87
 energy: -128.355678735841 gnorm: 0.289459527759 xtb: 6.7.1 (edcfbbe)
Fe          29.75000000000000       -4.77400000000000       -3.46500000000000
N           28.80400000000000       -4.86900000000000       -1.71600000000000
N           29.46200000000000       -2.82100000000000       -3.49600000000000
N           30.77400000000000       -4.69600000000000       -5.18000000000000
N           29.99100000000000       -6.78000000000000       -3.46800000000000
C           28.58100000000000       -5.99500000000000       -0.95000000000000
C           27.91600000000000       -5.65500000000000        0.27600000000000
C           27.71700000000000       -4.31800000000000        0.26700000000000
C           28.27300000000000       -3.84100000000000       -0.97100000000000
C           28.83900000000000       -2.02000000000000       -2.55400000000000
C           29.03000000000000       -0.63400000000000       -2.81600000000000
C           29.82800000000000       -0.57700000000000       -3.94100000000000
C           30.06500000000000       -1.92300000000000       -4.34700000000000
C           31.12900000000000       -3.57000000000000       -5.87400000000000
C           31.81200000000000       -3.89500000000000       -7.09600000000000
C           31.91500000000000       -5.26000000000000       -7.11500000000000
C           31.25600000000000       -5.73300000000000       -5.93400000000000
C           30.57100000000000       -7.57300000000000       -4.43300000000000
C           30.53500000000000       -8.96900000000000       -4.07600000000000
C           29.92800000000000       -9.02600000000000       -2.86300000000000
C           29.59100000000000       -7.66600000000000       -2.50100000000000
C           28.94500000000000       -7.28900000000000       -1.32100000000000
H           28.70100000000000       -8.08700000000000       -0.62000000000000
C           28.27700000000000       -2.50800000000000       -1.36700000000000
H           27.80500000000000       -1.78500000000000       -0.70100000000000
C           30.82400000000000       -2.27900000000000       -5.47100000000000
H           31.21000000000000       -1.46500000000000       -6.08500000000000
C           31.15000000000000       -7.07800000000000       -5.59200000000000
H           31.55700000000000       -7.80500000000000       -6.29500000000000
C           27.04900000000000       -3.45700000000000        1.33200000000000
H           26.72100000000000       -4.10000000000000        2.17700000000000
H           26.16100000000000       -2.94800000000000        0.90000000000000
H           27.77100000000000       -2.70300000000000        1.71200000000000
C           27.52100000000000       -6.65600000000000        1.36100000000000
H           28.33000000000000       -7.40700000000000        1.48500000000000
H           26.58600000000000       -7.17900000000000        1.06700000000000
H           27.37200000000000       -6.12500000000000        2.32500000000000
C           28.45300000000000        0.49000000000000       -1.95700000000000
H           28.97500000000000        0.51300000000000       -0.97700000000000
H           27.37000000000000        0.31200000000000       -1.78400000000000
H           28.60100000000000        1.46600000000000       -2.46700000000000
C           30.40300000000000        0.64800000000000       -4.67600000000000
H           30.39200000000000        0.71600000000000       -5.77300000000000
C           31.00100000000000        1.79000000000000       -3.85900000000000
H           31.02100000000000        1.73900000000000       -2.76000000000000
H           31.41800000000000        2.67600000000000       -4.36000000000000
C           32.30700000000000       -2.86500000000000       -8.10700000000000
H           33.16400000000000       -2.30400000000000       -7.67600000000000
H           31.49100000000000       -2.14900000000000       -8.34400000000000
H           32.64200000000000       -3.37900000000000       -9.03300000000000
C           32.71900000000000       -6.18000000000000       -8.07500000000000
H           32.27900000000000       -7.10900000000000       -8.46600000000000
C           34.14200000000000       -5.80500000000000       -8.49200000000000
H           34.60900000000000       -4.88200000000000       -8.11700000000000
H           34.71399999999999       -6.45400000000000       -9.17100000000000
C           31.09600000000000      -10.10500000000000       -4.91900000000000
H           32.18600000000000       -9.95100000000000       -5.07100000000000
H           30.59300000000000      -10.12100000000000       -5.90900000000000
H           30.93800000000000      -11.07300000000000       -4.39700000000000
C           29.71000000000000      -10.24500000000000       -1.96800000000000
H           30.42200000000000      -11.04800000000000       -2.25600000000000
H           28.67200000000000      -10.62100000000000       -2.09300000000000
H           29.88900000000000       -9.96800000000000       -0.90700000000000
C           25.15100000000000       -4.17700000000000       -6.73600000000000
H           24.20600000000000       -3.89700000000000       -6.22300000000000
H           24.94800000000000       -5.02200000000000       -7.42800000000000
H           25.52400000000000       -3.30000000000000       -7.30600000000000
N           25.96500000000000       -5.64600000000000       -4.86300000000000
H           25.12900000000000       -6.19300000000000       -4.82100000000000
C           26.16500000000000       -4.58800000000000       -5.72300000000000
C           27.04300000000000       -5.81200000000000       -4.11800000000000
H           27.15300000000000       -6.58000000000000       -3.35300000000000
N           27.93500000000000       -4.90000000000000       -4.46500000000000
C           27.40900000000000       -4.12100000000000       -5.46600000000000
H           27.97200000000000       -3.30500000000000       -5.90200000000000
C           34.60099999999999       -2.85300000000000       -1.57300000000000
H           35.48800000000000       -3.52100000000000       -1.57200000000000
H           34.55900000000000       -2.30900000000000       -0.60500000000000
H           34.69499999999999       -2.13000000000000       -2.41100000000000
N           32.98600000000000       -4.65900000000000       -0.86400000000000
H           33.50100000000000       -4.91500000000000       -0.04600000000000
C           33.36100000000000       -3.67000000000000       -1.74800000000000
C           31.85400000000000       -5.20100000000000       -1.27200000000000
H           31.33500000000000       -6.00900000000000       -0.75700000000000
N           31.48000000000000       -4.59900000000000       -2.38700000000000
C           32.40800000000000       -3.63800000000000       -2.70500000000000
H           32.30000000000000       -3.02000000000000       -3.58700000000000
87
 energy: -128.440936617629 gnorm: 0.127137785365 xtb: 6.7.1 (edcfbbe)
Fe          29.74924698030251       -4.77670331008088       -3.46699707666712
N           28.79513442672894       -4.87239585587962       -1.70958939190709
N           29.49198915255987       -2.80033837450729       -3.48473332851670
N           30.77436970258032       -4.70213578429055       -5.19865065174720
N           29.98638130392705       -6.79123638564035       -3.47158293574605
C           28.58210539013967       -5.99796421890492       -0.95439305136101
C           27.91559003149748       -5.66183906144369        0.27983611540112
C           27.71618629862224       -4.31600394065962        0.26730726422219
C           28.26947039326679       -3.83862296325222       -0.97923082357135
C           28.85844020671267       -2.02003139831468       -2.54715234402660
C           29.04035863722181       -0.62290661401440       -2.82000149676333
C           29.83879952056224       -0.54417229557749       -3.94488486425993
C           30.06989825982299       -1.91168382858716       -4.35531070940922
C           31.11635999379076       -3.57137484465085       -5.88639308634063
C           31.83275001035607       -3.89857949768352       -7.09830041451775
C           31.95850067200665       -5.26740387019294       -7.12609516144751
C           31.26251808848944       -5.74018768508092       -5.94346973481804
C           30.56949923723232       -7.56844034265496       -4.43749389693156
C           30.53590505100489       -8.96684651557071       -4.07383564790081
C           29.93363013542631       -9.02536313806689       -2.85285900733901
C           29.58973791710706       -7.66352606877249       -2.49739403595412
C           28.94568892541844       -7.28880308130645       -1.32252803476901
H           28.69996728185235       -8.08289276618735       -0.62516879166855
C           28.27379846770369       -2.51070604792773       -1.37762581751430
H           27.81204261188186       -1.79096718919341       -0.70884277343754
C           30.81728683940273       -2.27661342772760       -5.47620766104689
H           31.20826589931015       -1.46718798909128       -6.08214431921616
C           31.15017946873507       -7.07898545847279       -5.59610280156303
H           31.56039657199283       -7.80302112918135       -6.29019665129853
C           27.05559513089782       -3.46397764302194        1.32151521484709
H           26.72575712812867       -4.08691490859227        2.16177613567983
H           26.17716496308886       -2.95295834512027        0.90730507496862
H           27.75743982328295       -2.71139982008830        1.70345403328327
C           27.52683787982616       -6.65068655153620        1.35196801774766
H           28.31755809260630       -7.39814372876301        1.48592446442175
H           26.60078594903485       -7.17156056483403        1.07429752857531
H           27.37220154156823       -6.13709408115362        2.30785951218643
C           28.46180741418111        0.48127294840346       -1.96876338569049
H           28.96743617976758        0.51337315662841       -0.99373468539723
H           27.39087201786496        0.31442796313035       -1.79052614953313
H           28.59749959747513        1.45023030936099       -2.46226632745926
C           30.41361031709004        0.67405763116834       -4.60681641301846
H           30.40354438570653        0.71970844404206       -5.70278107948967
C           30.96516172424406        1.73320919383202       -3.89392180849803
H           31.01025904901727        1.71356677493768       -2.80689823047310
H           31.38834948223610        2.61930745398478       -4.37035686674193
C           32.30745181371405       -2.87579124702090       -8.09832250036326
H           33.15217500675006       -2.30956497619454       -7.68361494841320
H           31.50544431841163       -2.16536431266196       -8.34082276292288
H           32.63715439188026       -3.37264937543567       -9.01764343702843
C           32.76678620896944       -6.12556512690732       -8.07163774531377
H           32.31553256778499       -7.05500014599014       -8.44170764422685
C           34.06339374279452       -5.81380238550108       -8.47035488851234
H           34.56315272618333       -4.91443305133926       -8.11485510569883
H           34.65278789002400       -6.44667782836963       -9.13769198922338
C           31.09182835269106      -10.09195313105579       -4.90980491324146
H           32.16932275038490       -9.95230846537865       -5.07007733895780
H           30.60072516597690      -10.12212398849164       -5.89111746976720
H           30.93882748002257      -11.05522548634965       -4.40866416628391
C           29.71131390132577      -10.23432275933378       -1.97606992960585
H           30.40849431499086      -11.03510677350045       -2.25097160157753
H           28.68704126174742      -10.61479420433366       -2.08704447024037
H           29.88300597964569       -9.97565110839837       -0.92442031217979
C           25.14715852630107       -4.17693482502321       -6.73361336617722
H           24.21021071129598       -3.89820820185875       -6.23538310885699
H           24.94498579764729       -5.00531749496552       -7.42452166453404
H           25.51666732622141       -3.31574284630095       -7.29870812597275
N           25.95341093308497       -5.64448776849576       -4.87260941059255
H           25.11460566478216       -6.19459430022373       -4.82698790525864
C           26.16057106930141       -4.59113777259244       -5.72810553714244
C           27.05027432397866       -5.80472753679624       -4.12285447728616
H           27.15946602150768       -6.56374981059156       -3.36421810493459
N           27.95068596465615       -4.90683991737785       -4.45808185857130
C           27.41477774994750       -4.13580521069477       -5.45494776329966
H           27.96987724900967       -3.32225017605526       -5.88885055185748
C           34.60434211668787       -2.85589509745617       -1.56934869250384
H           35.48589923346532       -3.50839376535589       -1.56942074232481
H           34.56753888503966       -2.31092042855657       -0.61797707260161
H           34.69323280957823       -2.14121080196677       -2.39376602709340
N           32.99894824980412       -4.65238809267198       -0.86106728299615
H           33.51221226794461       -4.91353654184164       -0.03831321494427
C           33.36994839105074       -3.66729277547924       -1.74288363686442
C           31.84994963749681       -5.19235331410508       -1.28648734230334
H           31.33531295133222       -5.99287673111533       -0.77699084264679
N           31.46691115571151       -4.59755974262602       -2.39661236748103
C           32.40367830848513       -3.64656684221089       -2.69879790885659
H           32.30051863070041       -3.03036078884025       -3.57362567663605
87
 energy: -128.456732311339 gnorm: 0.104732367792 xtb: 6.7.1 (edcfbbe)
Fe          29.75021878013990       -4.77915856746279       -3.47176276800024
N           28.78525017754632       -4.87725627272809       -1.70766583618393
N           29.52118320519561       -2.77955975487687       -3.47716749675387
N           30.77064866293369       -4.70518909120953       -5.22198611647040
N           29.98056933921741       -6.79905856599258       -3.47648082350583
C           28.58073088413881       -5.99918529624511       -0.96127659802413
C           27.91498465012510       -5.66569943264050        0.28007481681638
C           27.71412863393492       -4.31683294623934        0.26227175127805
C           28.26665829055359       -3.84020155402742       -0.99008997884107
C           28.88666936707584       -2.02167455235123       -2.53858670016837
C           29.05967380378021       -0.61617830368742       -2.81736288634941
C           29.85132286272941       -0.52396702930355       -3.94005072576376
C           30.08519477048296       -1.90327061215349       -4.35704060677457
C           31.10367879684216       -3.57060159820900       -5.89798169135386
C           31.85286881706373       -3.89716819022704       -7.09520010011718
C           31.99417696082772       -5.26409224169626       -7.12631282571599
C           31.27284097982728       -5.74255771109834       -5.94847405026184
C           30.56498653753217       -7.56198327559917       -4.44189694597050
C           30.53627772062065       -8.96192595927110       -4.07158539563085
C           29.94021320022578       -9.02213951449800       -2.84597085217581
C           29.58914692257856       -7.65944496066196       -2.49679099402237
C           28.94519813543537       -7.28811165879679       -1.32528626429596
H           28.69824166977958       -8.07934442489432       -0.63036051124077
C           28.27832581843313       -2.51425128360585       -1.38773903253185
H           27.81893687514924       -1.79735090647305       -0.72032244877467
C           30.81378037122913       -2.27331757406466       -5.48166211144872
H           31.20429940060374       -1.46755942311367       -6.08698013667347
C           31.15314477513176       -7.07775256335944       -5.59928669668749
H           31.56991081692771       -7.80249569793524       -6.28374870799112
C           27.06223327946345       -3.46977055828370        1.30816743219229
H           26.73211351625301       -4.08117294927680        2.14605393663004
H           26.19025223151449       -2.95570563778804        0.90335742253890
H           27.75350084547418       -2.71696683027391        1.68878685919085
C           27.53271554290283       -6.64514668935477        1.34304955950803
H           28.31309621588462       -7.39101020843775        1.48337159825603
H           26.61175550966070       -7.16602681291835        1.07463260027370
H           27.37225952968967       -6.14078555085210        2.29379029969454
C           28.47419230648403        0.47560987893817       -1.98072554314070
H           28.96750605749797        0.51438405508482       -1.00718419264308
H           27.41049766977044        0.30767491987535       -1.80440831033283
H           28.59776893254804        1.44041638426667       -2.46677063180717
C           30.41396062272053        0.68019237274245       -4.56179937405586
H           30.40570685661180        0.70323014502647       -5.65439898151894
C           30.93097154785846        1.66984215457429       -3.91047908949024
H           30.99551944171581        1.68569210867571       -2.82992242627202
H           31.34973338086032        2.55291320028414       -4.38209228064938
C           32.31502901834610       -2.88563465939731       -8.09076326481107
H           33.15119431076848       -2.31101768916500       -7.68923430179781
H           31.51468677563634       -2.18489451698439       -8.33320032292218
H           32.63839497408016       -3.37424350811420       -9.00698913641118
C           32.79045809812771       -6.08700412485837       -8.05121367093477
H           32.32265932066751       -7.00912184694899       -8.40649224759504
C           33.99067260635717       -5.80643383963585       -8.43507259024301
H           34.52130886085273       -4.92210452392764       -8.10436250316663
H           34.57530582879484       -6.43109072321339       -9.10480051065782
C           31.08768809832586      -10.07855752846294       -4.90047584148726
H           32.15772662275581       -9.94515574649729       -5.06588245697517
H           30.60122057660706      -10.11464233458644       -5.87598945884070
H           30.93557172546472      -11.03828940664934       -4.41041496521492
C           29.71333687122759      -10.22277703719815       -1.98299164095444
H           30.39966337499896      -11.02333088286136       -2.25339796071105
H           28.69509100353752      -10.60189178886725       -2.08719946698718
H           29.87845070931667       -9.97724302116400       -0.93509702680750
C           25.14752262435616       -4.17503877718229       -6.73113298563706
H           24.21433700269449       -3.89786235920532       -6.24200183765610
H           24.94207578848255       -4.99197130019794       -7.42321222245171
H           25.51442718199289       -3.32315572541058       -7.29389194489777
N           25.94556592066897       -5.64593384337663       -4.87905627214957
H           25.10484895384100       -6.19697518426879       -4.83061334776409
C           26.16173091385128       -4.59508656007770       -5.73076638505904
C           27.05483715255313       -5.80319394940339       -4.12642300882156
H           27.16305664778891       -6.55515279381744       -3.37182482436003
N           27.96218002188309       -4.91619122981234       -4.44955477568209
C           27.42282198967983       -4.15239707354219       -5.44480132129054
H           27.97129502810062       -3.34052491239765       -5.87874446051236
C           34.60802747013598       -2.85780522776585       -1.56673672680366
H           35.48830467938600       -3.49940981414392       -1.56606722825949
H           34.57617295526689       -2.31131886848859       -0.62495761416875
H           34.69293308729269       -2.14734367709832       -2.38282041628665
N           33.00626155877901       -4.64933144457881       -0.86072463305129
H           33.51528294289677       -4.91607882866436       -0.03416119231333
C           33.37631457651165       -3.66618143421766       -1.74016969025976
C           31.84579974547594       -5.18392904313435       -1.30192408118027
H           31.33226060657968       -5.97831593013610       -0.79805602696982
N           31.45939861627289       -4.59411894038659       -2.40794040708782
C           32.40279020786632       -3.65155812431242       -2.69497254297199
H           32.30825083880589       -3.03373279970973       -3.56357483258819
87
 energy: -128.462508718335 gnorm: 0.012384075286 xtb: 6.7.1 (edcfbbe)
Fe          29.75023386626054       -4.78295256177647       -3.47138207893242
N           28.78046562032766       -4.88285672746531       -1.71283191061676
N           29.54401338469614       -2.78292715453361       -3.46550070256671
N           30.76084955802557       -4.69906871408428       -5.22197476313222
N           29.97407270579335       -6.79698737126694       -3.47764191672053
C           28.57573297636539       -6.00245818883293       -0.96637442608087
C           27.91232919391505       -5.66806391545998        0.27432916684807
C           27.71086251835035       -4.32105966614915        0.25340451006233
C           28.26362037684493       -3.84626911534602       -0.99718315555011
C           28.90826576278743       -2.02822062529759       -2.52826709987533
C           29.07412477302411       -0.62392003614049       -2.80739654219422
C           29.85199473630353       -0.53816170715743       -3.93254004908938
C           30.09457584706526       -1.90887384433740       -4.35157031660267
C           31.09584724743115       -3.56543878468112       -5.89691217379192
C           31.85766420468068       -3.88858970654264       -7.08322683957435
C           31.98754993420564       -5.25067024389392       -7.10740411943642
C           31.26922395917960       -5.73590289122907       -5.93893551563868
C           30.56158830941453       -7.55661205462739       -4.44115993909151
C           30.53719348520269       -8.95448807661833       -4.06886128635335
C           29.94354178571298       -9.01622632688537       -2.84428157006542
C           29.58740034156153       -7.65668698368081       -2.49723711586949
C           28.94152175454387       -7.28999704955203       -1.32718092378388
H           28.69424236597291       -8.08138478215424       -0.63337584057331
C           28.28532772087977       -2.51995304131477       -1.38837795250965
H           27.82397347694785       -1.80231859879118       -0.72481502841921
C           30.80909715493815       -2.26995571036348       -5.48477665482295
H           31.19574612744188       -1.46440200455672       -6.09333701338596
C           31.15391057557943       -7.07200357332750       -5.59495869410103
H           31.58434627608004       -7.79590431246030       -6.27303560154579
C           27.06478153896510       -3.46909431681312        1.29546655164576
H           26.73472118724815       -4.07681893127724        2.13528809196068
H           26.19492710515103       -2.95312977998895        0.88999506059951
H           27.75826594808394       -2.71633349525770        1.67064886786314
C           27.53443732406444       -6.64588037557382        1.33790120235003
H           28.31623626068056       -7.38953480852085        1.48072855434860
H           26.61515146636950       -7.16925343808117        1.07069776215146
H           27.37108656743737       -6.14040943366835        2.28689934079414
C           28.48354860604685        0.47252512501326       -1.98568690929999
H           28.97324413795733        0.52267538682139       -1.01148107152848
H           27.42119915644629        0.29703309027077       -1.81527544069071
H           28.60126048017856        1.43309018093521       -2.48123495423117
C           30.39657257517446        0.65038960951764       -4.56713004915504
H           30.39287908476777        0.66519972913177       -5.65386825612392
C           30.92342926795378        1.67673621383913       -3.90165398030980
H           30.99578809579101        1.68391327544770       -2.82460215125923
H           31.33562775542294        2.54370855636150       -4.39619459263708
C           32.32521307549916       -2.88776739328142       -8.08449168540989
H           33.16041952284291       -2.30702057800330       -7.69023616119099
H           31.52181758096863       -2.19368511718194       -8.33153660771147
H           32.64760992754188       -3.38350832558228       -8.99696953625450
C           32.75363701258836       -6.07721006099278       -8.02930432129630
H           32.28438130742484       -6.99823553457489       -8.36733420363750
C           33.98696677220988       -5.78718038781672       -8.44140188251004
H           34.51643598334855       -4.91057574484642       -8.09928873886358
H           34.54639315081511       -6.42902112642455       -9.10703062241786
C           31.08648416524075      -10.06841750164850       -4.89707681972378
H           32.15567114667906       -9.93444498069391       -5.06382950046010
H           30.59722144758782      -10.10333831900488       -5.87035342450660
H           30.93288414306525      -11.02716705278435       -4.40718938973705
C           29.71199001583017      -10.21618174597766       -1.98524149030860
H           30.39407310702032      -11.01866616590544       -2.25855113463839
H           28.69200270867108      -10.58871828985650       -2.09060272235618
H           29.87629741007064       -9.97590324995025       -0.93645447551369
C           25.15128659681474       -4.17299493705574       -6.72941353914508
H           24.21765052427376       -3.89311104755229       -6.24206205125675
H           24.93899563833602       -4.98335297177773       -7.42718866191090
H           25.52040161944872       -3.32114752347269       -7.29028975727138
N           25.94321692266680       -5.65264799514173       -4.88163198370542
H           25.09902605554106       -6.19922843164239       -4.83410153633344
C           26.16572434256694       -4.60163227489051       -5.73173639409350
C           27.05187888693849       -5.81362544074887       -4.12777362558021
H           27.15856226664311       -6.56319208088162       -3.37187563715956
N           27.96438239196490       -4.93113532928884       -4.44805712405085
C           27.42905496341818       -4.16664812446682       -5.44332447061506
H           27.98115297007131       -3.35710518452530       -5.87414797279202
C           34.61472675040569       -2.85860529466426       -1.56157406567064
H           35.49837348730986       -3.49593905018388       -1.56057427712659
H           34.58527252823656       -2.30965468520213       -0.62112902622219
H           34.69815767207308       -2.14730013854889       -2.37666254196490
N           33.00701373597450       -4.65010056283130       -0.86319036115818
H           33.51242829720726       -4.92032354372470       -0.03497770994665
C           33.38225775889857       -3.66580404789787       -1.73911349195297
C           31.84589297090196       -5.17913312522537       -1.31171918837096
H           31.32552967744914       -5.97187885276201       -0.81465662976203
N           31.46403398302695       -4.58709060669491       -2.41693810573941
C           32.41173753530203       -3.64711968487320       -2.69668080448585
H           32.32327134985424       -3.02665031105204       -3.56298080021367
87
 energy: -128.463792706137 gnorm: 0.010522666271 xtb: 6.7.1 (edcfbbe)
Fe          29.75000901989075       -4.78516147229803       -3.46973811358062
N           28.77924237540021       -4.88935912614247       -1.71418876024313
N           29.55289635816605       -2.78576591010598       -3.46058654292052
N           30.75101984841299       -4.69160673523028       -5.21972358790966
N           29.97141847257036       -6.79263347653997       -3.47379076699771
C           28.57045862502608       -6.00670354026705       -0.96920689985434
C           27.90650645966125       -5.67175559206358        0.27074500734402
C           27.70503652793050       -4.32567184027895        0.24603231880500
C           28.26267203682811       -3.85321314523257       -1.00184125147267
C           28.92554097952869       -2.03513792611498       -2.51795392629498
C           29.08863228720783       -0.63040269557218       -2.79554781341366
C           29.85358514741762       -0.54586295972925       -3.92656479479850
C           30.09628891842704       -1.91324720162162       -4.34860072601861
C           31.08995194147753       -3.55944151157372       -5.89240271777497
C           31.86044453510304       -3.87993841022270       -7.07103321840942
C           31.98540304980892       -5.24056951186704       -7.09086736331607
C           31.26211309952140       -5.72805514729691       -5.92990602609303
C           30.56042802353108       -7.54874073645673       -4.43644010727614
C           30.53869967484525       -8.94657509694155       -4.06574131396546
C           29.94580391475217       -9.01086941365750       -2.84215295207663
C           29.58567597340438       -7.65345644773318       -2.49570958630913
C           28.93598059593269       -7.29360211070363       -1.32727602989983
H           28.68775491120638       -8.08589480935755       -0.63562574866395
C           28.29414102657951       -2.52601218837119       -1.38595853836558
H           27.83203319176206       -1.80788743986477       -0.72452270965786
C           30.80359679720231       -2.26527101196583       -5.48563372616619
H           31.18223403824156       -1.46049327294184       -6.10011283069915
C           31.15502616631316       -7.06406101111686       -5.58769566024697
H           31.59936325329629       -7.78646655566123       -6.25845760247063
C           27.06414446801627       -3.46556235956362        1.28172451128779
H           26.73257967242927       -4.06674350837077        2.12559823041876