72
 energy: -105.880198478961 gnorm: 0.268398440677 xtb: 6.7.1 (edcfbbe)
Fe          -6.19100000000000       24.84800000000000        7.49900000000000
N           -4.53400000000000       23.78400000000000        7.25200000000000
N           -5.96400000000000       24.80400000000000        9.51200000000000
N           -8.00700000000000       25.65300000000000        7.78500000000000
N           -6.65200000000000       24.50800000000000        5.55100000000000
C           -3.88900000000000       23.42200000000000        6.07500000000000
C           -2.58800000000000       22.85700000000000        6.28200000000000
C           -2.39300000000000       22.82500000000000        7.69000000000000
C           -3.58500000000000       23.41700000000000        8.27800000000000
C           -4.89000000000000       24.35800000000000       10.21000000000000
C           -4.94300000000000       24.61000000000000       11.65000000000000
C           -6.09300000000000       25.40000000000000       11.74000000000000
C           -6.65600000000000       25.53900000000000       10.40700000000000
C           -8.43700000000000       26.39300000000000        8.90700000000000
C           -9.65200000000000       27.15100000000000        8.65600000000000
C           -9.92900000000000       26.81900000000000        7.29600000000000
C           -8.94100000000000       25.97600000000000        6.75000000000000
C           -7.85400000000000       24.71800000000000        4.93400000000000
C           -7.77600000000000       24.33800000000000        3.54300000000000
C           -6.46400000000000       23.82100000000000        3.29700000000000
C           -5.86200000000000       23.88600000000000        4.59900000000000
C           -4.49400000000000       23.57000000000000        4.80500000000000
H           -3.86700000000000       23.43200000000000        3.92400000000000
C           -3.73600000000000       23.59400000000000        9.68100000000000
H           -3.00400000000000       23.16800000000000       10.36600000000000
C           -7.84600000000000       26.28800000000000       10.16100000000000
H           -8.31500000000000       26.80399999999999       10.99900000000000
C           -8.93800000000000       25.40700000000000        5.46800000000000
H           -9.83400000000000       25.51000000000000        4.85700000000000
C           -1.21300000000000       22.25700000000000        8.40500000000000
H           -0.41400000000000       22.01800000000000        7.67100000000000
H           -1.50700000000000       21.32500000000000        8.93300000000000
H           -0.82300000000000       22.99900000000000        9.13400000000000
C           -1.63700000000000       22.41300000000000        5.22000000000000
H           -0.98000000000000       23.26200000000000        4.93200000000000
H           -2.20400000000000       22.07600000000000        4.32600000000000
H           -1.00600000000000       21.58400000000000        5.60400000000000
C           -3.96500000000000       24.20400000000000       12.71200000000000
H           -3.20100000000000       25.00100000000000       12.83700000000000
H           -3.45700000000000       23.26200000000000       12.41400000000000
H           -4.49700000000000       24.06000000000000       13.67700000000000
C           -6.69400000000000       26.00600000000000       12.97900000000000
H           -7.77900000000000       26.17500000000000       13.03700000000000
C           -5.94800000000000       26.35300000000000       14.03100000000000
H           -4.85900000000000       26.20200000000000       14.01700000000000
H           -6.41400000000000       26.79400000000000       14.92400000000000
C          -10.32700000000000       28.05100000000000        9.68000000000000
H           -9.56200000000000       28.46900000000000       10.36800000000000
H          -11.06000000000000       27.46200000000000       10.27100000000000
H          -10.84100000000000       28.88900000000000        9.16200000000000
C          -11.13100000000000       27.28500000000000        6.49500000000000
H          -11.17800000000000       27.02800000000000        5.42700000000000
C          -12.15700000000000       27.99400000000000        6.98100000000000
H          -12.18000000000000       28.28900000000000        8.04100000000000
H          -12.99000000000000       28.29100000000000        6.32700000000000
C           -8.95300000000000       24.44300000000000        2.56700000000000
H           -9.28500000000000       25.50100000000000        2.49900000000000
H           -9.79900000000000       23.82300000000000        2.93200000000000
H           -8.63700000000000       24.09900000000000        1.55900000000000
C           -5.88700000000000       23.26200000000000        2.03000000000000
H           -5.26600000000000       24.03700000000000        1.53200000000000
H           -6.70800000000000       22.96300000000000        1.34400000000000
H           -5.24800000000000       22.38400000000000        2.26400000000000
O           -7.28200000000000       22.71900000000000        7.82000000000000
H           -7.51900000000000       22.68100000000000        8.74700000000000
H           -7.43800000000000       22.09000000000000        7.21100000000000
C           -3.60900000000000       26.88600000000000        6.82300000000000
H           -3.03800000000000       27.76300000000000        7.19800000000000
H           -3.52600000000000       26.87000000000000        5.71500000000000
H           -3.13800000000000       25.96800000000000        7.23600000000000
S           -5.36300000000000       26.97400000000000        7.32200000000000
H           -5.12900000000000       26.75200000000000        8.60700000000000
72
 energy: -105.944952489584 gnorm: 0.118489645382 xtb: 6.7.1 (edcfbbe)
Fe          -6.24078119513346       24.75650486773223        7.50577787830189
N           -4.50175626374032       23.79436803371491        7.26502580429170
N           -5.92032971121507       24.84006107558940        9.51746307076069
N           -8.00397265151430       25.69325235446666        7.77060930271458
N           -6.65050200730366       24.49120368810095        5.54593190442162
C           -3.89596807221658       23.44063811259139        6.08121380680991
C           -2.59660896199733       22.86617101351553        6.29955215351800
C           -2.41113724005836       22.82847397129916        7.67387728724253
C           -3.59320792756304       23.41780000308468        8.27194522977258
C           -4.87055133788203       24.32426498850209       10.21266694366678
C           -4.95578076781098       24.62725144153628       11.63238153017614
C           -6.10129553355078       25.40423230375339       11.75220451334958
C           -6.67066536737051       25.52787016136431       10.42436347717552
C           -8.43456032593992       26.37977969638162        8.89647505139965
C           -9.64274282645278       27.13567679790766        8.63198972845153
C           -9.95696196396838       26.83207690819713        7.30125721333529
C           -8.94942125286276       25.96244983574336        6.77497910539569
C           -7.83992777996160       24.73646565495972        4.92583738922515
C           -7.77675339923125       24.32382568817628        3.54002601102733
C           -6.49358238920314       23.82924858992309        3.31587219993763
C           -5.83686082201752       23.93081524042459        4.59645292722019
C           -4.49669580129218       23.58228389330551        4.82180140310675
H           -3.88138191592876       23.40783688354466        3.94376196550258
C           -3.77137714659090       23.60045932633414        9.64823217077098
H           -3.02947891478796       23.19535391304967       10.33040443180122
C           -7.83495202210123       26.26973996517202       10.14855587594429
H           -8.29877996629139       26.79136754902371       10.97933490252763
C           -8.92438507430015       25.40785498406762        5.48964512700507
H           -9.80966380962225       25.52242006865209        4.87108966774675
C           -1.22845163799090       22.26601533409541        8.39697740502134
H           -0.42829009102354       22.02377316581630        7.68754580703680
H           -1.50136550117972       21.34425894698552        8.92916336628450
H           -0.83066821159607       22.98427122432546        9.12545215086139
C           -1.64741941706993       22.41783306779400        5.23365248122949
H           -0.98936164174725       23.24668884384299        4.93476360574520
H           -2.19016148965545       22.07888722094206        4.34358475723784
H           -1.01701440607119       21.59641055361744        5.59301204683753
C           -3.98114291654042       24.20944810307688       12.69140646132203
H           -3.21306848256169       24.98415957224415       12.83250886754736
H           -3.47024036765385       23.27765147350510       12.42012686203118
H           -4.49109495034186       24.06005855237109       13.65190840678743
C           -6.67955954347713       25.99860853007559       12.97256609479940
H           -7.75658001813299       26.16430587010912       13.01512862948920
C           -5.94810342568106       26.34878092207315       14.02753675974903
H           -4.87376766806010       26.21989651405775       14.02695801359380
H           -6.40435292769088       26.78469211690334       14.91088212239326
C          -10.30782671496033       28.03016291064506        9.65427933755454
H           -9.56946523768129       28.45195928522626       10.34794654413981
H          -11.04440203721278       27.47096118457040       10.25037529084031
H          -10.81770812925609       28.87362466995369        9.17497237268220
C          -11.12278188335649       27.29092924063524        6.51073391109167
H          -11.15407216278348       27.02363527189516        5.45344122034721
C          -12.15315746256054       27.99054519983224        6.98138308515420
H          -12.20579304757032       28.28150691885505        8.02031083695219
H          -12.97505006269192       28.28556628152413        6.33706197265457
C           -8.93472829035832       24.44073324709278        2.57588456660589
H           -9.27432876550014       25.48202428341995        2.49950324335863
H           -9.78045791381481       23.83343250667417        2.92378095687169
H           -8.64225948696176       24.10257041936769        1.57660799591391
C           -5.90203765281442       23.27366415139357        2.05273229629074
H           -5.28060804022417       24.02538754404790        1.54376449664157
H           -6.69270378434533       22.96659145352949        1.35815064617062
H           -5.26559534253770       22.40381036851903        2.26273058685168
O           -7.26966529470511       22.74653859269482        7.83302644234128
H           -7.52480929517358       22.67144065925459        8.74959870299926
H           -7.44489088425865       22.07260092050629        7.20240614400941
C           -3.59125688967505       26.88429112943087        6.82427805511744
H           -3.05096561402315       27.76177488211168        7.19680896781228
H           -3.53611870657493       26.86693315367977        5.73149713022800
H           -3.14115153948837       25.97340554525602        7.22830862216431
S           -5.34761864064186       26.94696160727142        7.31646532854431
H           -5.11282197644679       26.78746155066347        8.61704933609623
72
 energy: -105.964739011423 gnorm: 0.029367484668 xtb: 6.7.1 (edcfbbe)
Fe          -6.26022244099423       24.72567369228867        7.50954747004153
N           -4.49006067623192       23.78874896797449        7.27714303986723
N           -5.91032969386362       24.84127760376682        9.51945103073916
N           -8.01842014274272       25.69229545406368        7.76320522433469
N           -6.64829969302540       24.48559311746354        5.55135056692648
C           -3.90784284833825       23.46174640348082        6.08843318723309
C           -2.60527835876290       22.87670093948611        6.31406478906506
C           -2.42901301659716       22.83081735965560        7.66192693314220
C           -3.61134555284311       23.41972021536889        8.26082602714192
C           -4.86055502945324       24.30508789448385       10.20524851796725
C           -4.96554240536542       24.63135172001267       11.61075780269492
C           -6.10370757257440       25.39713606792969       11.75303122389246
C           -6.68086551622462       25.51306979950841       10.42785791004840
C           -8.42484069352378       26.36227621172767        8.88032840285978
C           -9.63109620447465       27.11534379661919        8.61579526842312
C           -9.97685213212798       26.83455329659396        7.31131158594036
C           -8.94341002967561       25.95023078171763        6.79826301626750
C           -7.83129168242313       24.74362686571011        4.93399563283579
C           -7.77335154813185       24.32131008955665        3.54583116133810
C           -6.51483960821634       23.84672796414855        3.33627111927325
C           -5.82192076655949       23.96267465638547        4.60671942989722
C           -4.50469778321049       23.59298020639081        4.84038037609798
H           -3.90208557408273       23.36740815845035        3.96721947508875
C           -3.80444506076953       23.61889776031378        9.61799468020942
H           -3.05066165114404       23.22781707704998       10.29175367870196
C           -7.81552223896984       26.25575509117154       10.12710237098720
H           -8.28160623421179       26.77578731704025       10.95270086936003
C           -8.90549428498628       25.41104027917027        5.51429737181179
H           -9.77784108411571       25.54585016047809        4.88698073727942
C           -1.24616299174733       22.27621089741380        8.39410555123913
H           -0.44737044121135       22.03411845393229        7.69705287599911
H           -1.51120463112095       21.36273416429778        8.92856232949669
H           -0.85119433209877       22.98517058136224        9.12000328215697
C           -1.65887239271244       22.42421714182283        5.24603147105410
H           -1.00234902124434       23.24244581037370        4.94287316778480
H           -2.19144305159029       22.08261742821358        4.36239261853691
H           -1.03191997205808       21.60742944428233        5.59556664877686
C           -3.99591115906603       24.21031468829657       12.66963692617326
H           -3.22783175003051       24.97372244766892       12.81837226862475
H           -3.48891823632616       23.28464333143183       12.40735793875944
H           -4.50044810567604       24.06017711340729       13.62331124239539
C           -6.65893339346488       25.98609512596422       12.95656057846863
H           -7.73115466755758       26.14761838204995       12.97883156284244
C           -5.94561058276388       26.34498846842171       14.02056525021711
H           -4.87841701378043       26.24086098061850       14.04031356394666
H           -6.40263415885424       26.77343340084049       14.89603206269965
C          -10.28523545306040       28.00893769287220        9.62972496173843
H           -9.55491534964588       28.42164126314883       10.32438182261672
H          -11.02720706625648       27.46405528050308       10.22012096495369
H          -10.78645581794038       28.85366476656070        9.16419343804113
C          -11.11042702444582       27.28703390195932        6.53272816498486
H          -11.11340332221551       27.01959959647655        5.48162973879205
C          -12.15248892046235       27.98128629993934        6.98436244054644
H          -12.24018787058529       28.27453671564796        8.00970569804979
H          -12.95883454466865       28.27930285823834        6.33696805856717
C           -8.91505833353366       24.43699011433805        2.58850590691615
H           -9.25445297045463       25.46955620749173        2.50945288543913
H           -9.76218309361727       23.83756739261097        2.92417786640439
H           -8.63357029878355       24.10224197767178        1.59454454238642
C           -5.91655390281208       23.28885708623656        2.07813198005690
H           -5.29471488343512       24.02956782389220        1.56992820780834
H           -6.69159704074678       22.97837019644093        1.38071520522909
H           -5.28721569763865       22.42291271507100        2.28229484230596
O           -7.24629557247775       22.78097663761801        7.84522395899337
H           -7.53799092169562       22.64808330889858        8.74896591830291
H           -7.44555832848506       22.08679204178971        7.21337934034626
C           -3.57239536927464       26.87886309451811        6.82321451448450
H           -3.06175304716972       27.75968774432555        7.19790151471035
H           -3.53972769100990       26.86370685399479        5.74048008335097
H           -3.13360843028224       25.97370910804185        7.22146529901292
S           -5.33239862885474       26.94773538942694        7.30122457391567
H           -5.10695499550441       26.83002712388126        8.61421983340843
72
 energy: -105.969207014991 gnorm: 0.020962854651 xtb: 6.7.1 (edcfbbe)
Fe          -6.26586060253139       24.71775483373267        7.51023106543384
N           -4.49182655010488       23.79632983141364        7.27318355869364
N           -5.91717322600681       24.83563712695241        9.51141244390462
N           -8.01804597772538       25.68524427759235        7.75886815493452
N           -6.64933811370652       24.49442936348346        5.56099923709918
C           -3.91407904835611       23.47017594664191        6.08716441660860
C           -2.60988555018482       22.88366327791691        6.31257302399186
C           -2.43609126571994       22.83384174514362        7.65987181988346
C           -3.62245031311814       23.41992071241486        8.25066743078710
C           -4.86470035581069       24.30121936898147       10.19386601780874
C           -4.96359356606545       24.62737748205361       11.59530247562259
C           -6.09638420673802       25.39118762705872       11.74350554725565
C           -6.68143885533992       25.50357271728446       10.42112916674435
C           -8.41998792463255       26.34467512699100        8.87865773462965
C           -9.62198526011953       27.09967124315546        8.61926504946469
C           -9.98208996435319       26.82298027447083        7.32151841605333
C           -8.94476566935796       25.93657255191737        6.80647665220137
C           -7.83140791119586       24.75135524626573        4.94559850294517
C           -7.77384977550962       24.33113822775048        3.55725845552840
C           -6.51516573792454       23.86406562539042        3.34833527687176
C           -5.82144166370887       23.97819150704391        4.61735078070484
C           -4.51210985188575       23.59077746447856        4.84492732824181
H           -3.92087873842247       23.31890148007045        3.97655708581928
C           -3.81156685413606       23.61950852346282        9.60562658615290
H           -3.04103831319637       23.24626795667443       10.26832719616575
C           -7.81084013378722       26.24245814049659       10.12126513360928
H           -8.27352589911824       26.76990173631465       10.94190477930040
C           -8.90257929411097       25.41509910969887        5.52140010067721
H           -9.76223470773496       25.57478412178475        4.88495664833624
C           -1.26088198315754       22.28545441578139        8.40187834227069
H           -0.45954983132868       22.04399935723083        7.70789345911087
H           -1.53247558067740       21.37587807428962        8.93861378614542
H           -0.87753744291647       23.00213956784430        9.12577636067600
C           -1.66629799299876       22.42898394850947        5.24798609920252
H           -1.01216723170890       23.24817803255561        4.94451063062244
H           -2.20310779145626       22.08296701153126        4.36906703676518
H           -1.04223486148438       21.61341588474992        5.60524465036931
C           -4.00114871358610       24.20150180921983       12.65206489768309
H           -3.23241684291984       24.96307761676317       12.80061996667028
H           -3.50364333042851       23.27274326249339       12.38413624129666
H           -4.51766021867664       24.05594737313517       13.59943112935413
C           -6.64724294392496       25.97631268855676       12.94454343753778
H           -7.72007474419530       26.13068979233531       12.95091918644975
C           -5.94676424971138       26.34350850589764       14.01507659848330
H           -4.87515763688313       26.26457637740049       14.04845957127662
H           -6.41770014603131       26.76753895441257       14.88513103453884
C          -10.26122425354011       27.99776541541453        9.62569979482788
H           -9.52070693813501       28.38570815425551       10.32235582086457
H          -11.01869146496993       27.45719589046400       10.19898241098267
H          -10.73560492413099       28.85205994117760        9.15054489605883
C          -11.10427024505796       27.28340028040185        6.54180928856943
H          -11.07728874024824       27.02255578081096        5.49009637691173
C          -12.16238693805741       27.96894999340963        6.97496254111731
H          -12.30012863736112       28.23986288127870        8.00576126586435
H          -12.95121852212317       28.26887349584016        6.30674217967951
C           -8.90914251127031       24.43831903838916        2.59815496931357
H           -9.24315588599839       25.47217432034422        2.51709910670418
H           -9.75527733813684       23.83773923070248        2.93353857998380
H           -8.61808129797275       24.09886305569838        1.60793927615456
C           -5.92126025696793       23.30296289150813        2.09614910325007
H           -5.29804335623009       24.04566049133858        1.59536542107032
H           -6.70020716006525       22.99539565901233        1.40226039688217
H           -5.30018902340763       22.43527644476362        2.31217621803018
O           -7.22244719436377       22.78057597679278        7.86998066520931
H           -7.56512768688969       22.61837747541807        8.75617962652255
H           -7.45604502886729       22.10356013888902        7.22888085921871
C           -3.55858192777635       26.87487534295143        6.82011430512222
H           -3.05788156696872       27.76318479128824        7.19122736077336
H           -3.53227490249226       26.85395982614083        5.73689369754730
H           -3.11448216066674       25.97312928683271        7.22177898942007
S           -5.32008830898149       26.94580337405646        7.29685571646092
H           -5.08679685663320       26.92415550347736        8.62389861953740
72
 energy: -105.971500192856 gnorm: 0.024332113590 xtb: 6.7.1 (edcfbbe)
Fe          -6.26027730506762       24.72768882423347        7.51262654414648
N           -4.49872822164028       23.80496814025864        7.26810981583562
N           -5.91732756266468       24.83701810950960        9.49806577258303
N           -8.01474926249017       25.66869406965247        7.75754960421605
N           -6.65061346569678       24.49925588245234        5.57812452807272
C           -3.92122369015790       23.47251185554465        6.08595036298491
C           -2.61585542057349       22.88737004728396        6.30938402877631
C           -2.44323096037327       22.83919434148945        7.65799223941446
C           -3.62910302319045       23.42885184200532        8.24107483572319
C           -4.86569405134228       24.30293043358434       10.17998422712258
C           -4.95748637570699       24.62364669538804       11.57919031871142
C           -6.08677704319837       25.38654120611968       11.73201323601859
C           -6.67616084937302       25.49693039989127       10.41176677449394
C           -8.41270867784349       26.32749444460790        8.87805962280698
C           -9.61539045031532       27.07811364091985        8.62584114285447
C           -9.98491827603163       26.80324575594815        7.33268971434723
C           -8.94525472093001       25.92171316737769        6.81187882917305
C           -7.83022891453158       24.75922911528385        4.95901895353610
C           -7.77389012286179       24.34283607980846        3.57196133094677
C           -6.51412713186075       23.87789852911843        3.36296900682328
C           -5.82505814116170       23.98599231214211        4.63154711621816
C           -4.52215052457314       23.58013402869790        4.84775805315589
H           -3.94445294968143       23.27562891964511        3.98500350139841
C           -3.80803887194960       23.62617652290989        9.59595030344419
H           -3.02954016954489       23.26018582175343       10.24842418511712
C           -7.80524534294731       26.23319532695159       10.11761012906508
H           -8.26783325802970       26.76408188855651       10.93463360458477
C           -8.90111633575779       25.42183611324765        5.52357244735783
H           -9.74954736648162       25.60185834104957        4.88028519706073
C           -1.27760200840364       22.29848326575347        8.41341043369562
H           -0.46943598534328       22.05246453799934        7.72856430259492
H           -1.55681126306482       21.39496711755146        8.95675296073021
H           -0.90585693120900       23.02533588988441        9.13406248233341
C           -1.67371588904010       22.43256417067363        5.24805895859654
H           -1.02348232272151       23.25286148698182        4.93923545193002
H           -2.21231547796541       22.07879184289271        4.37282826648469
H           -1.04803046056964       21.62092492077800        5.61288268349974
C           -4.00334255164256       24.18755394971524       12.63388563538011
H           -3.22905107753195       24.94225698477593       12.78489590591573
H           -3.51761132407884       23.25337685117378       12.36188839069897
H           -4.53073353294656       24.04828167218242       13.57621235304517
C           -6.63842946938493       25.97013292526383       12.93149009477108
H           -7.71365141290827       26.10721479570947       12.92797749624896
C           -5.95011605014545       26.34850736722839       14.00557715695034
H           -4.87687887665286       26.28260722570495       14.05715564900595
H           -6.43880843845093       26.76142244338183       14.87237946135374
C          -10.24673022726174       27.98620726368337        9.61961443754599
H           -9.50253520973579       28.35454463713106       10.32320233504815
H          -11.02267550077840       27.46041770439469       10.18077730371572
H          -10.69642144991512       28.84366534422256        9.12454240374988
C          -11.10083762298263       27.27286237044573        6.55279829657044
H          -11.03894785509301       27.04401940365859        5.49414750525631
C          -12.17491421459263       27.93876630192677        6.97670557377177
H          -12.34165583907055       28.20378151039775        8.00636362392570
H          -12.93859125696258       28.25721136178333        6.28412688824442
C           -8.90510063805111       24.44440478887191        2.60937388819189
H           -9.23686171540928       25.47849799534532        2.51989554370871
H           -9.75153299907293       23.84432554588149        2.94475711638169
H           -8.60530574662957       24.09708218823008        1.62353831746898
C           -5.92290149547713       23.31848875619084        2.11464400596415
H           -5.29408837852680       24.06043457266941        1.62110378992249
H           -6.70463451666088       23.01810280600490        1.42065659330780
H           -5.31123582828748       22.44628789612815        2.33725340304897
O           -7.16134821649739       22.75779184565714        7.90142010762749
H           -7.60639898058718       22.60854646932233        8.75282479239256
H           -7.50130464743594       22.12479230637407        7.24575770996473
C           -3.54414845523146       26.87301064552739        6.81539130769581
H           -3.04425449463599       27.76461190724537        7.17938898751901
H           -3.51922297026124       26.84297681467472        5.73151343409437
H           -3.09578385809582       25.97385736537913        7.22230737849414
S           -5.30740125774702       26.95572826106852        7.28868569631152
H           -5.07556506696455       27.00061463470305        8.61791645085281
72
 energy: -105.972378194315 gnorm: 0.014158422555 xtb: 6.7.1 (edcfbbe)
Fe          -6.25871889379300       24.72635318875969        7.51645869906537
N           -4.50019247259203       23.81641795119530        7.26413304816714
N           -5.90977918385143       24.84596162870433        9.48798697510904
N           -8.01261511501167       25.65467223121884        7.75991751324142
N           -6.65109650274261       24.50195947202088        5.58809556319081
C           -3.92306564664940       23.47218666703902        6.08428359965156
C           -2.61883872421926       22.88652215017922        6.30636479998135
C           -2.44457094611057       22.84595607904362        7.65630327699176
C           -3.62794942745315       23.43966240705308        8.23642530545559
C           -4.86031879234061       24.31131036162267       10.17085103412012
C           -4.95062934100354       24.62218008419167       11.57103125368353
C           -6.07972772635732       25.38491249406534       11.72556052641085
C           -6.66666778594670       25.49975266222931       10.40554967278405
C           -8.40985708766621       26.31763719878720        8.88038563943121
C           -9.61411085317663       27.06507775127738        8.63225636885462
C           -9.98356015181575       26.79172913279900        7.33858723191063
C           -8.94645083171934       25.91347205241767        6.81418488969770
C           -7.82927201280250       24.76447481795154        4.96497303681506
C           -7.77316673222544       24.35297607172670        3.57904401881959