72
 energy: -105.979765770503 gnorm: 0.000092373147 xtb: 6.7.1 (edcfbbe)
Fe         -26.56375656110771        2.83620197780889      -16.45910608104819
N          -27.94512228448568        4.17176836540525      -17.07200361225963
N          -26.95573614362022        3.30432118385300      -14.56397849235022
N          -25.17472375460792        1.54170627946263      -15.87607288083362
N          -26.10144111367946        2.46959998389688      -18.38197422172885
C          -28.24114615139352        4.52506595064181      -18.35387131275786
C          -29.32515159780181        5.47902493536822      -18.38181131329662
C          -29.68523550600470        5.68837270576713      -17.08595869310969
C          -28.80500831751642        4.87328720306989      -16.28184562719878
C          -27.91826685797521        4.15152175357079      -14.11117796905785
C          -27.87717854291669        4.24854506282604      -12.67496965694835
C          -26.83531350946819        3.46288216619752      -12.26549694950321
C          -26.29608412339484        2.85616780119221      -13.46737702684676
C          -24.83382459551783        1.24432135590366      -14.59532748980522
C          -23.84154150932064        0.19800484386906      -14.55791344131739
C          -23.58301076949843       -0.13185726844385      -15.86006491667957
C          -24.43648859449498        0.72314129420771      -16.66466272459318
C          -25.20405834273144        1.55563273343355      -18.83921511329122
C          -25.14951463842707        1.57297143848634      -20.28284261298049
C          -26.03341403650096        2.52488402067198      -20.68864493166476
C          -26.62509476792540        3.06751483018317      -19.48787764373980
C          -27.61402383966463        4.03399852343479      -19.48483065914471
H          -27.94214462166196        4.41368713382150      -20.43969512002677
C          -28.81003408381576        4.85639963827921      -14.90109727694206
H          -29.54082870511630        5.47108097459824      -14.39906664875833
C          -25.33436277948797        1.86663733530923      -13.46771030178003
H          -24.95807905877209        1.54508808673820      -12.50970475060533
C          -24.43606950714574        0.72515982891912      -18.04619063226522
H          -23.77329647209903        0.03778724252541      -18.54816746538749
C          -30.74831547384709        6.57260734123151      -16.53216551423965
H          -31.29934853058616        7.06218986728992      -17.33120597365529
H          -30.31257606678873        7.34211839460525      -15.89436839491987
H          -31.45261817991701        5.99608989379916      -15.93220030111208
C          -29.89082118306029        6.06994408608496      -19.62701453567078
H          -30.29443479701302        5.29053179882142      -20.27412925470045
H          -29.11982270952624        6.60407133910159      -20.18286534779501
H          -30.69005962318816        6.76886369101539      -19.39394376765454
C          -28.77431508223668        5.10437674026143      -11.85011258355153
H          -29.82036804918866        4.86929636199754      -12.04846733953771
H          -28.61613216175386        6.15886726899403      -12.07892204115179
H          -28.57789096389710        4.95373254180407      -10.79180646581411
C          -26.36406923927426        3.27736428657997      -10.90831312586664
H          -27.13817417775665        3.24207029715072      -10.14929037666144
C          -25.09107262828737        3.19443166933246      -10.53970842282792
H          -24.28541114070504        3.27972599666989      -11.24891834380980
H          -24.81058326311538        3.06443036789571       -9.50761651608741
C          -23.29055203553214       -0.41234881172039      -13.31791109423133
H          -24.06643404377226       -0.51039028478657      -12.56044084252300
H          -22.49077788500506        0.20404972652271      -12.90451570932523
H          -22.88678280044451       -1.39901639057143      -13.53532198338059
C          -22.68224458823331       -1.13090110859079      -16.39226221680915
H          -23.01136092304439       -1.62176116176429      -17.30085703460266
C          -21.51228645734117       -1.47176934493022      -15.86249235710588
H          -20.89555307768139       -2.23696891460749      -16.30389152017021
H          -21.11573393699114       -0.98417075035419      -14.98923851710107
C          -24.26801987182967        0.69298997170723      -21.09960602641221
H          -24.50163067935753       -0.35642351831980      -20.91875505206126
H          -23.22104872282087        0.85461974470125      -20.84244414896631
H          -24.39602491457186        0.89404382704370      -22.16032163042226
C          -26.38202601728927        2.96426615025085      -22.06895292035059
H          -27.43456958302379        2.77133586536555      -22.27893711684651
H          -25.78408311499818        2.43344770557647      -22.80531902678537
H          -26.20416213059244        4.03318635645156      -22.18869490087651
O          -25.07224601967390        4.50849012661517      -16.57277251188265
H          -25.65914303980484        5.25999412524365      -16.71525396129792
H          -24.63653137098562        4.32400116839120      -17.41283054764831
C          -28.93646528211473        0.99010039749546      -18.03253505209681
H          -29.86982353874613        0.44032225950451      -17.96134976793550
H          -28.21996660189516        0.43646399600146      -18.62996556018037
H          -29.08890324508925        1.97442653584580      -18.46105324721112
S          -28.20825657690219        1.15308168113689      -16.36455432131029
H          -29.20040948592683        1.90530132417675      -15.87501906152491
