72
 energy: -105.875084369809 gnorm: 0.454203935638 xtb: 6.7.1 (edcfbbe)
Fe         -26.59900000000000        2.75200000000000      -16.56600000000000
N          -28.01200000000000        4.06100000000000      -17.13600000000000
N          -27.01400000000000        3.21500000000000      -14.62900000000000
N          -25.10300000000000        1.47900000000000      -15.98000000000000
N          -26.09000000000000        2.43200000000000      -18.42700000000000
C          -28.32000000000000        4.34000000000000      -18.44800000000000
C          -29.47400000000000        5.28000000000000      -18.44100000000000
C          -29.78800000000000        5.53100000000000      -17.13000000000000
C          -28.84700000000000        4.78600000000000      -16.32200000000000
C          -27.81600000000000        4.14000000000000      -14.20200000000000
C          -27.70800000000000        4.33400000000000      -12.79300000000000
C          -26.77800000000000        3.47500000000000      -12.37100000000000
C          -26.32100000000000        2.74800000000000      -13.57700000000000
C          -24.88300000000000        1.07300000000000      -14.67200000000000
C          -23.92000000000000        0.00200000000000      -14.65600000000000
C          -23.49900000000000       -0.15200000000000      -15.94600000000000
C          -24.24100000000000        0.78900000000000      -16.82300000000000
C          -24.99900000000000        1.77800000000000      -18.88600000000000
C          -24.84700000000000        1.89200000000000      -20.35200000000000
C          -25.86900000000000        2.76600000000000      -20.72900000000000
C          -26.52700000000000        3.10200000000000      -19.51300000000000
C          -27.64700000000000        3.94200000000000      -19.58800000000000
H          -27.99300000000000        4.28700000000000      -20.56200000000000
C          -28.72000000000000        4.83300000000000      -14.98000000000000
H          -29.40800000000000        5.49200000000000      -14.45100000000000
C          -25.39600000000000        1.67100000000000      -13.56800000000000
H          -25.07300000000000        1.29500000000000      -12.59700000000000
C          -24.16600000000000        0.95200000000000      -18.13600000000000
H          -23.39400000000000        0.39700000000000      -18.66900000000000
C          -30.87400000000000        6.41900000000000      -16.62900000000000
H          -31.62500000000000        6.57600000000000      -17.43200000000000
H          -30.44900000000000        7.40300000000000      -16.33600000000000
H          -31.37300000000000        5.94600000000000      -15.75600000000000
C          -30.12700000000000        5.85900000000000      -19.66800000000000
H          -30.94900000000000        5.19000000000000      -20.00100000000000
H          -29.38000000000000        5.94600000000000      -20.48500000000000
H          -30.55000000000000        6.85900000000000      -19.43200000000000
C          -28.59400000000000        5.29100000000000      -11.93900000000000
H          -29.62700000000000        4.88700000000000      -11.88100000000000
H          -28.62600000000000        6.29500000000000      -12.41300000000000
H          -28.17900000000000        5.36900000000000      -10.91100000000000
C          -26.34500000000000        3.36500000000000      -10.96300000000000
H          -27.14099999999999        3.27900000000000      -10.21200000000000
C          -25.25100000000000        3.35600000000000      -10.52000000000000
H          -24.37900000000000        3.43700000000000      -11.18500000000000
H          -25.08800000000000        3.26700000000000       -9.43600000000000
C          -23.46800000000000       -0.67100000000000      -13.42200000000000
H          -24.20900000000000       -0.49800000000000      -12.61300000000000
H          -22.48699999999999       -0.25700000000000      -13.10600000000000
H          -23.37900000000000       -1.76400000000000      -13.60200000000000
C          -22.53500000000000       -1.11100000000000      -16.47700000000000
H          -22.26200000000000       -1.05400000000000      -17.54100000000000
C          -21.96400000000000       -2.04600000000000      -15.77300000000000
H          -21.37500000000000       -2.83400000000000      -16.26500000000000
H          -22.06300000000000       -2.05900000000000      -14.67800000000000
C          -23.77199999999999        1.25600000000000      -21.21800000000000
H          -23.81900000000000        0.15100000000000      -21.11500000000000
H          -22.77000000000000        1.60600000000000      -20.89000000000000
H          -23.93900000000000        1.52600000000000      -22.28300000000000
C          -26.16400000000000        3.25700000000000      -22.14700000000000
H          -27.00700000000000        2.67200000000000      -22.57400000000000
H          -25.26700000000000        3.11600000000000      -22.78700000000000
H          -26.44700000000000        4.33100000000000      -22.12100000000000
O          -25.22500000000000        4.39800000000000      -16.60800000000000
H          -25.36000000000000        4.87600000000000      -15.79000000000000
H          -24.64400000000000        4.60600000000000      -17.24800000000000
C          -29.41300000000000        1.17900000000000      -17.41200000000000
H          -30.21800000000000        0.44300000000000      -17.20100000000000
H          -29.18100000000000        1.13300000000000      -18.49700000000000
H          -29.80100000000000        2.19100000000000      -17.16700000000000
S          -27.92299999999999        0.82500000000000      -16.43600000000000
H          -28.46000000000000        1.17200000000000      -15.27500000000000
72
 energy: -105.948833677893 gnorm: 0.112359026436 xtb: 6.7.1 (edcfbbe)
Fe         -26.58907290834875        2.74414113297571      -16.57255593702188
N          -28.01188088781378        4.04967970779486      -17.14782325753288
N          -26.98943520150172        3.21352472583244      -14.63616112435468
N          -25.10587576931343        1.49144158817015      -15.97566363305723
N          -26.06604006102728        2.45401327432164      -18.44572307042037
C          -28.33341498506182        4.35304878839111      -18.44007662756092
C          -29.47081213383769        5.28134152897741      -18.44598451782299
C          -29.78623804172610        5.52962433377286      -17.14651012579411
C          -28.84707581471758        4.77990899370632      -16.34520128676845
C          -27.83294310654238        4.15124056205285      -14.20393339659614
C          -27.73589748283595        4.33954197961382      -12.78727705123593
C          -26.79516628370357        3.46241368799452      -12.36850004159570
C          -26.31932918859451        2.74509249098067      -13.55907023944865
C          -24.88685840265848        1.08272179822755      -14.68508385177602
C          -23.91530753524959        0.01416385690602      -14.66407955370131
C          -23.48806302721315       -0.14823628739564      -15.95242896492556
C          -24.25253564240245        0.78624571007584      -16.78878232149192
C          -24.99497149230990        1.75876394343749      -18.90504913740589
C          -24.84427412740873        1.90182545759520      -20.35202206999845
C          -25.85065254934212        2.75997131622687      -20.73772093023488
C          -26.55572316007323        3.09479736095714      -19.53481350029094
C          -27.66384204743428        3.93899529269974      -19.57410978914663
H          -27.99607611166914        4.28893116798392      -20.54280040768911
C          -28.73824918582451        4.84128140332737      -14.98451223147001
H          -29.41605434382566        5.49949736094317      -14.45729196501930
C          -25.40968146153103        1.68203512735751      -13.56286747883702
H          -25.08037799931570        1.31182947695241      -12.59862049354163
C          -24.16709306202051        0.94341395564033      -18.13944079135302
H          -23.39550291492444        0.39636751520197      -18.66803614729024
C          -30.87105952933289        6.41477785950519      -16.63207065808805
H          -31.61907871114071        6.57754237668486      -17.41647427471969
H          -30.46037392117264        7.38992298610592      -16.33440710792362
H          -31.36725964162433        5.95807976971249      -15.76619766196527
C          -30.12414485182307        5.85393476411221      -19.66417918298429
H          -30.93937762430578        5.19924871783297      -20.00179039483663
H          -29.39529257576083        5.94888049081920      -20.47643318283887
H          -30.54271730456160        6.84312684870194      -19.44132077569587
C          -28.58590543443926        5.28279942281146      -11.94932446299290
H          -29.61012552698026        4.89257369107786      -11.88468465786382
H          -28.62228862215366        6.27962023021432      -12.40424088045411
H          -28.18230634856966        5.36712676043608      -10.93373177492413
C          -26.39564049605341        3.34092170980273      -10.97416615200791
H          -27.18993003258807        3.27855867543858      -10.23286148242426
C          -25.18646809526546        3.34654833673649      -10.49621981073498
H          -24.33723608821825        3.43571200448835      -11.16202175737713
H          -25.03196610014998        3.27042594844199       -9.42912109231808
C          -23.47435714670033       -0.66671526637657      -13.42068422191732
H          -24.19772716257919       -0.50196612951648      -12.61544293209789
H          -22.49864513545832       -0.27105752410618      -13.10368017346986
H          -23.39143821587190       -1.74771803637970      -13.58212728804025
C          -22.53477411076736       -1.10401894238890      -16.48252824185138
H          -22.29063584568825       -1.05109850288897      -17.54291701894457
C          -21.94733044491749       -2.05561788419222      -15.77260087416948
H          -21.35907641866704       -2.82650988963063      -16.25445022092590
H          -22.04693659458686       -2.08956441224023      -14.69882281284337
C          -23.78318543161782        1.26025816230572      -21.20477194559009
H          -23.81837748381518        0.16647008219291      -21.11529397642275
H          -22.78536888429312        1.59967119921251      -20.89551641327335
H          -23.93438351767986        1.52107514187843      -22.25975719078281
C          -26.16022973099489        3.25116167681408      -22.13188430992003
H          -26.99360519236908        2.68052371472411      -22.56608947375472
H          -25.28332423885967        3.12171506343268      -22.77603052927329
H          -26.43865954911954        4.31263981526430      -22.12297229846452
O          -25.23665555675624        4.39232565673535      -16.59063284926536
H          -25.34789631606060        4.89340500882048      -15.78549158900554
H          -24.62071340052008        4.62408072979500      -17.25989407531027
C          -29.43260835720103        1.18208270673076      -17.41643482680323
H          -30.21134484920967        0.44267447302644      -17.20033489487410
H          -29.17665427703519        1.13469501725062      -18.47998718652268
H          -29.79645836956361        2.18472926594049      -17.17383769726933
S          -27.93602032824309        0.83243060916873      -16.44807870774984
H          -28.46497760905709        1.16691042078337      -15.27335299792654
72
 energy: -105.963294133884 gnorm: 0.033190660487 xtb: 6.7.1 (edcfbbe)
Fe         -26.56788344800502        2.75361745503937      -16.57517431581166
N          -28.01711568795702        4.03778045835591      -17.15685907300340
N          -26.96930975939480        3.22397619008372      -14.64346439481878
N          -25.10612743854461        1.50712634905095      -15.97256081801910
N          -26.04831335940884        2.46906851465882      -18.45908714315319
C          -28.34914811567728        4.35417093078300      -18.43657811870677
C          -29.46776468076962        5.28018259661248      -18.45431387351637
C          -29.78563420829179        5.52569593887110      -17.15788384769061
C          -28.85066143735608        4.76870065717853      -16.36068842642286
C          -27.84652835807013        4.15723792738995      -14.20631401716676
C          -27.75684390794623        4.32586025624083      -12.78168464524338
C          -26.79826903949726        3.44846286776171      -12.36014262701483
C          -26.32039655691554        2.75100435846271      -13.54684336764521
C          -24.88733835009931        1.10273644607099      -14.69104380328692
C          -23.91327444075886        0.03621818947584      -14.66125830888369
C          -23.48761170547822       -0.14367825437908      -15.95313406062036
C          -24.26400833649353        0.78917125097310      -16.76475436740369
C          -24.99090021815365        1.74510987801130      -18.91396063913225
C          -24.84324053205338        1.90312802757181      -20.34864395436406
C          -25.83971916014725        2.74717265174330      -20.74324336722125
C          -26.57816619930760        3.08248868299089      -19.55090285131630
C          -27.68001082680135        3.92490229955131      -19.56414078235450
H          -28.00589912051026        4.28635979097587      -20.52600899743162
C          -28.75661120322255        4.84324813688889      -14.98963299858761
H          -29.43098881806944        5.50665057518015      -14.47057105784452
C          -25.41880140327307        1.70075538842581      -13.55877560659132
H          -25.08422195193449        1.34008203962783      -12.59693513230739
C          -24.17193992242433        0.93832327643673      -18.13455056416118
H          -23.40308076282202        0.38932675382164      -18.65756280612841
C          -30.86729193937993        6.40941551117915      -16.63303769107843
H          -31.61636281801196        6.57970508537065      -17.40340304403590
H          -30.46370314328775        7.37705529541220      -16.32878505691777
H          -31.35835344200737        5.96048921759636      -15.77117884508558
C          -30.12020475441385        5.84772898599138      -19.66833679782622
H          -30.93124401802471        5.20063807192968      -20.00744571033614
H          -29.40464423800391        5.95104960110416      -20.47985132473657
H          -30.53699247587808        6.82927494680854      -19.45042601268783
C          -28.57914267396617        5.26632683653804      -11.96207850352366
H          -29.60308549343427        4.89539979351599      -11.88903941075257
H          -28.61048657054372        6.25938350497568      -12.40775294452676
H          -28.17417605818967        5.35653985141242      -10.95722456570133
C          -26.39790002488644        3.31219857806269      -10.97434584552476
H          -27.20102435682546        3.26784779486253      -10.24625485931114
C          -25.16404751521815        3.32732488804614      -10.49883749570527
H          -24.32020225794232        3.42245715644275      -11.15746332280011
H          -24.99576190717691        3.26886474917874       -9.43946954084501
C          -23.48761531192688       -0.65411420090916      -13.41165652167775
H          -24.19699558679716       -0.48185491505584      -12.60760732039508
H          -22.50679211485673       -0.28946163239275      -13.09588393700025
H          -23.42668932028863       -1.73005445330611      -13.55928793232731
C          -22.54458286166987       -1.10140084671924      -16.48567022409129
H          -22.34820084576213       -1.05144682315426      -17.55129568636091
C          -21.92632241074001       -2.05768775461850      -15.79005571592790
H          -21.31169981927718       -2.79617896343440      -16.27385542153052
H          -22.01894734754604       -2.13589461505495      -14.72715310143905
C          -23.79000055467713        1.26239648272673      -21.18999983989488
H          -23.82444999671213        0.17649369833290      -21.10218805338158
H          -22.79599277802916        1.59581410965198      -20.88872107195799
H          -23.93321746715945        1.51861198257392      -22.23807826939535
C          -26.15206399474167        3.24182510255344      -22.11921191456317
H          -26.98391258252559        2.68176571073767      -22.55127084669520
H          -25.28940972900275        3.12197431658037      -22.77040449928429
H          -26.42599638736431        4.29592640074797      -22.11065522753794
O          -25.22269727982824        4.40287933724614      -16.56989399958099
H          -25.30767857804729        4.94284898004487      -15.78340378283718
H          -24.60172997711440        4.65479780155654      -17.24820453406560
C          -29.45601151955002        1.18839255053391      -17.42103286132836
H          -30.21180563710336        0.43922416393439      -17.19908332544493
H          -29.17681811474288        1.13696202735996      -18.46935629314505
H          -29.81005768721951        2.18551784597049      -17.18602538130605
S          -27.94787128367931        0.85285202168297      -16.46097149282383
H          -28.47900817706373        1.15323217012841      -15.27238780876455
72
 energy: -105.967751574424 gnorm: 0.020757952800 xtb: 6.7.1 (edcfbbe)
Fe         -26.55502363683218        2.76690149411688      -16.57134627480593
N          -28.01761775159551        4.03737590168008      -17.16114871602525
N          -26.96200994977067        3.23410196216139      -14.64904157054453
N          -25.10495168504101        1.52382652513879      -15.96710594009666
N          -26.04074511116285        2.47655557657006      -18.46160719629427
C          -28.35587073580682        4.35199600051799      -18.43788326404733
C          -29.46776137658099        5.27545716443312      -18.46200915705326
C          -29.78759317927067        5.52065705556302      -17.16374766160752
C          -28.85370790194568        4.76213103855557      -16.36705965989960
C          -27.85884652741668        4.15876301684678      -14.20853395991843
C          -27.77452689314467        4.31093432409521      -12.78082910060912
C          -26.80522475059123        3.44031901603960      -12.35735867442879
C          -26.32017725598104        2.76418286382213      -13.54374596217808
C          -24.88187243026616        1.12500979739983      -14.68726100287340
C          -23.91603127102265        0.05425217838371      -14.65089532944101
C          -23.50275325157768       -0.14512706342604      -15.94770665155078
C          -24.27470632827966        0.79367420059353      -16.75051528413729
C          -24.98745973362496        1.74260547491870      -18.91097302852940
C          -24.84201114785209        1.89702182282331      -20.34225619552690
C          -25.83662486572387        2.73223311746681      -20.74400926008192
C          -26.58408708743012        3.07589842649986      -19.55558828915942
C          -27.68480961636439        3.91229011770087      -19.56098486207220
H          -28.01752245744683        4.27292561634937      -20.52048333110148
C          -28.77135304309151        4.84222251997683      -14.99232577879044
H          -29.45110570469950        5.50608871691531      -14.48193834914871
C          -25.41424048963915        1.72428018489201      -13.55322170682405
H          -25.07743525909988        1.37135291352922      -12.59039845513421
C          -24.17783451839384        0.93788168398811      -18.12639728498096
H          -23.41516943187018        0.37810828445529      -18.64543299309746
C          -30.86522481643160        6.40396021111463      -16.63165393225818
H          -31.61732878265913        6.58121590829144      -17.39592494237122
H          -30.45849362991493        7.36737065804075      -16.32208642733713
H          -31.35101676585415        5.95152253808470      -15.77037304886771
C          -30.11814883779715        5.84043871033157      -19.67719689093638
H          -30.92552126002845        5.19164320099879      -20.01835903215871
H          -29.40520063592184        5.94959117408656      -20.48921161497882
H          -30.53830151741017        6.81919915691998      -19.45890122813208
C          -28.58205381826274        5.25580314777900      -11.96547355343366
H          -29.61181172282416        4.90285306701041      -11.88650352404447
H          -28.60037131694549        6.24657233435509      -12.41596953045809
H          -28.17014832016037        5.34591675348072      -10.96429938562344
C          -26.39286313888076        3.29298034287972      -10.97533429101404
H          -27.20357584706278        3.24738518480188      -10.25583313452057
C          -25.14601252988450        3.30401184820271      -10.51125907564252
H          -24.30118810861457        3.39239695250290      -11.16999563363896
H          -24.95306581995537        3.24467384747302       -9.45487879233817
C          -23.49953623933000       -0.64265748202367      -13.40074638241481
H          -24.19778607401737       -0.44396130467337      -12.59310702386488
H          -22.50584890174078       -0.30957420544851      -13.09221588883618
H          -23.47121033998173       -1.72018847246003      -13.54719857766526
C          -22.56723533905172       -1.10236459012900      -16.48850200776022
H          -22.40768190977974       -1.04573956840513      -17.55954622059377
C          -21.90854120323737       -2.05046274313034      -15.81509822402937
H          -21.25853246907563       -2.75045105697416      -16.31641324658254
H          -21.98306931089293       -2.16805162841974      -14.75199865472026
C          -23.78819471635582        1.25629762112949      -21.17616969858996
H          -23.82641384582837        0.17250942943010      -21.08246321594365
H          -22.79613315858133        1.58867142389024      -20.87192750822768
H          -23.92711922471116        1.51015845186851      -22.22388198256058
C          -26.14677397034584        3.23047076862557      -22.11358689882783
H          -26.98438878245438        2.67881861778306      -22.54214210845730
H          -25.28992000914191        3.11135876307423      -22.77132093400536
H          -26.41309695654165        4.28522198520580      -22.09509419515168
O          -25.18714489705425        4.41484371691024      -16.53890812712750
H          -25.26301736227821        5.00954295613251      -15.78515238023909
H          -24.58728514982102        4.69551748891363      -17.23313181873028
C          -29.47491378046210        1.19693480229163      -17.42817861214016
H          -30.21651021043251        0.43835811242220      -17.19923259870032
H          -29.18767104908002        1.14041243148833      -18.47210470689602
H          -29.83709889203868        2.19073128076278      -17.19976841462387
S          -27.95827795106076        0.87304190803173      -16.46927785459000
H          -28.49819799657365        1.13910632534263      -15.27277374100907
72
 energy: -105.970269622860 gnorm: 0.025553386507 xtb: 6.7.1 (edcfbbe)
Fe         -26.54533261062392        2.78313412312082      -16.56183367552297
N          -28.01066312980397        4.04649034305267      -17.16234987682555
N          -26.96133978982533        3.24333726740844      -14.65213443380803
N          -25.10635708355829        1.53685292807723      -15.95945430433035
N          -26.03345349836049        2.48747032434838      -18.45715824641900
C          -28.35535013682959        4.35227042218228      -18.43991832436678
C          -29.46851901243869        5.27002222634160      -18.46790169486068
C          -29.78962456002695        5.51639317809672      -17.16810078844470
C          -28.85323482358119        4.76199976174388      -16.36979473899777
C          -27.87120103069502        4.15862430882151      -14.20858844297201
C          -27.79070564846978        4.29908587188431      -12.78001600049847
C          -26.81250476510701        3.43788184066844      -12.35655254541922
C          -26.31982140787441        2.77903382440179      -13.54418832749585
C          -24.87517414002490        1.14458200132400      -14.67850755361320
C          -23.91972923290331        0.06773323800153      -14.63915786093833
C          -23.52153699857483       -0.14835528192790      -15.93968705864473
C          -24.28891420431294        0.79365341811423      -16.74027885204827
C          -24.98509475509803        1.74433383722785      -18.90253817208210
C          -24.83954340114551        1.88975308571717      -20.33406989293876
C          -25.83485649152557        2.71892573975098      -20.74233773169347
C          -26.58227265903816        3.07376335127716      -19.55523862523668
C          -27.68518709069331        3.90261467559742      -19.56084552878036
H          -28.03207035054277        4.25373728542580      -20.51992060670808
C          -28.78372836511043        4.84104516038145      -14.99307605883402
H          -29.47447088368733        5.49982309038750      -14.49078412216009
C          -25.40454070651676        1.74821617227731      -13.54670548081879
H          -25.06390734124904        1.40769868978079      -12.58102825958052
C          -24.18747151157436        0.93441400710879      -18.11713856265213
H          -23.43048096283427        0.36365265898482      -18.63267104513488
C          -30.86478127608673        6.39799774779867      -16.63033405010171
H          -31.61988612773934        6.58328220084708      -17.39002470759791
H          -30.45418456454060        7.35810218884006      -16.31421606007370
H          -31.34785660177245        5.93969895178480      -15.77012834603083
C          -30.11812469535041        5.83051119027261      -19.68616081435626
H          -30.91925449900576        5.17592655008400      -20.03232067523077
H          -29.40311198791655        5.94631006727575      -20.49644071246311
H          -30.54626318069455        6.80661025563030      -19.46924978008785
C          -28.59075523486408        5.25009875841979      -11.96421524399198
H          -29.62576286804747        4.91276558137585      -11.88176713038745
H          -28.59581249099300        6.23992073457248      -12.41914789431761
H          -28.17378423262189        5.33663534040901      -10.96445811612559
C          -26.38500635736937        3.27701616001768      -10.97824929700066
H          -27.19869858826038        3.23057741099565      -10.26131269899944
C          -25.12947075705231        3.27046860147838      -10.53306170437509
H          -24.28573983077643        3.35572938317956      -11.19671107754246
H          -24.90737650538786        3.19956113218278       -9.48046585750219
C          -23.50662779053919       -0.63700093613709      -13.39317363200117
H          -24.18792849106722       -0.41106134828915      -12.57609471039281
H          -22.49841409872344       -0.33742746860210      -13.09580331645842
H          -23.51503305511936       -1.71598538224277      -13.54201926811074
C          -22.58706412941883       -1.09935861268833      -16.48894675464755
H          -22.46172061903525       -1.04007138316149      -17.56485794986714
C          -21.88685277654755       -2.03218788956917      -15.83768120640515
H          -21.22577142424461       -2.70545408066799      -16.36168469326682
H          -21.93811339989817       -2.18031247982982      -14.77427096225976
C          -23.78260988641289        1.24373424947696      -21.15958798306007
H          -23.82489161031835        0.16032377045672      -21.06015605169615
H          -22.79196138892561        1.57489056967879      -20.84892231267918
H          -23.91452282384586        1.49433783597322      -22.20900058900522
C          -26.14405799308209        3.21785652824233      -22.11077897829112
H          -26.98993821977234        2.67613368060697      -22.53617580249101
H          -25.29145044186107        3.09184020171144      -22.77315704695644
H          -26.39872954038098        4.27592690496283      -22.08578133742908
O          -25.12171386065321        4.41512767552278      -16.49190246667890
H          -25.23160647403258        5.09089640886127      -15.79978375784227
H          -24.58747867881109        4.76135834418183      -17.22458135141706
C          -29.49332447646124        1.20653565124861      -17.43729987328208
H          -30.22475950583130        0.44043403405258      -17.20150805494479
H          -29.20492516180198        1.14650004879344      -18.48043752403503
H          -29.86763020849108        2.19772664855338      -17.21431130075424
S          -27.96958555716348        0.89487651150442      -16.47812539752273
H          -28.52133199705516        1.13096071261861      -15.27871670049511
72
 energy: -105.971591149204 gnorm: 0.017784903533 xtb: 6.7.1 (edcfbbe)
Fe         -26.53773287942573        2.80068202627367      -16.55349654548246
N          -27.99854742549516        4.06252795493223      -17.16138161417523
N          -26.96293523719579        3.25189454051818      -14.65274758768025
N          -25.11018801177388        1.54318652866182      -15.95213091157490
N          -26.02714603549182        2.49938921709554      -18.45052840587131
C          -28.34931062145714        4.35616777227554      -18.44166740104618
C          -29.46998120331677        5.26588676875183      -18.47072536804335
C          -29.79153379166579        5.51446916177810      -17.17074529545619
C          -28.84994987960620        4.76851096535394      -16.36982538800250
C          -27.87879127880425        4.15913671866495      -14.20682813617972
C          -27.80070014130269        4.29492674055477      -12.77842889795604
C          -26.81614015867523        3.44240017824306      -12.35707324283560
C          -26.31830365744458        2.79144822388207      -13.54681407002544
C          -24.87058841966928        1.15617744138773      -14.66952657299207
C          -23.92125392588876        0.07529715303063      -14.63063724552146
C          -23.53525770864837       -0.15012121146509      -15.93257369134178
C          -24.29943758787325        0.79353630374927      -16.73445647397900
C          -24.98350044288945        1.74957244472434      -18.89363539359786
C          -24.83802750166544        1.88330640517288      -20.32731360077614