72
 energy: -105.980243694363 gnorm: 0.000054616159 xtb: 6.7.1 (edcfbbe)
Fe          22.09203289782536       23.76488190799881       12.09233648996668
N           22.11811557882607       22.07573899542011       13.17865528416314
N           21.57221186668735       24.80437621537672       13.70165058527484
N           21.99134797528746       25.41269228617670       10.96748858416962
N           22.55258135921007       22.68364013751709       10.44909698563443
C           22.35411448461853       20.80983773918578       12.73775192865968
C           22.31873496096981       19.87180567327079       13.83624080408415
C           22.06831013647431       20.60373822753308       14.95537367090649
C           21.93796525092725       21.97665452519986       14.52302964270520
C           21.45069592522294       24.33796319183312       14.97172673301639
C           21.08544512754380       25.40046103746591       15.87700062254048
C           20.98484590467616       26.53247379635716       15.11656419619454
C           21.29236248567266       26.12870646029124       13.75632509147751
C           21.65403737837791       26.65963166259417       11.38981555759530
C           21.71093791460484       27.60231268866027       10.30163645321502
C           22.10855279545695       26.89443184074071        9.19943575588741
C           22.26627255379541       25.52292264687694        9.64249028570642
C           22.77584432542982       23.16404826836426        9.19479316335993
C           23.11748047153675       22.09068155671413        8.29124463335976
C           23.08104200522108       20.94483799233345        9.02534663817750
C           22.73245135992461       21.33499489956769       10.37112263579744
C           22.62392648240832       20.45166779958011       11.42939252083228
H           22.79104173002236       19.40609984299601       11.22341132538491
C           21.63994224806779       23.02663854223130       15.36757231152854
H           21.53158494072617       22.80116272377413       16.41697852320048
C           21.32834330429101       27.00171191648915       12.68874849895124
H           21.10186062739382       28.03802396131434       12.88512213845729
C           22.66072737303849       24.48806908020668        8.81496656932087
H           22.87677219384473       24.72574093819809        7.78520946793742
C           21.93205296112746       20.15218921593787       16.36823059416026
H           22.09493239259117       19.08037589084864       16.44940222300717
H           20.93515232002300       20.37766360852046       16.74770664813651
H           22.65804702378238       20.65920896317337       17.00387626829907
C           22.53359797400643       18.40428471136222       13.69443246202793
H           23.52796117986161       18.19815844701340       13.29716147372272
H           21.80103899115711       17.97286011396779       13.01189158229804
H           22.43954328694391       17.90599560573732       14.65588380377590
C           20.80828153391887       25.23093540868059       17.32941483151335
H           21.73695452447268       25.20977805924456       17.90192148429951
H           20.27610425363488       24.29909514553515       17.51446457829456
H           20.19995480530241       26.05710096824088       17.69131027928539
C           20.62146248655733       27.87462453475796       15.51584980488384
H           20.05265239630117       28.44148475436277       14.78815691617325
C           20.93330741331289       28.44229464991334       16.67599395184885
H           21.53629942038938       27.94266795734979       17.41397361795273
H           20.61765042949197       29.44402602174098       16.91585518857507
C           21.33493528335218       29.03879911332194       10.39480479587909
H           22.15286073261269       29.62764571583960       10.81275028604460
H           20.46483919642010       29.16668884718473       11.03674383564436
H           21.09974164021351       29.42825619090552        9.40646650476757
C           22.31153413937365       27.35066668854467        7.84165583808479
H           22.05505342884739       26.64034660422467        7.06409757359028
C           22.78456720156854       28.54301122134590        7.49515633714757
H           23.09902697268237       29.26793231232375        8.22541794977199
H           22.89856769081840       28.82513503525870        6.46171538344471
C           23.42667633461022       22.27683417244862        6.84613607344618
H           24.26528463889910       22.96156673095957        6.71867077335976
H           22.56727875760936       22.69442767184398        6.32077463690833
H           23.68437069628747       21.32885136163384        6.38059400644345
C           23.34238792779822       19.54121705299323        8.59973485792331
H           24.18549599177302       19.12276325620801        9.15041127933190
H           23.57132476092809       19.49626788348580        7.53806333097489
H           22.47096686367252       18.91406705739933        8.78939604877242
O           19.95128280114458       23.30121885827608       11.60876017562445
H           19.86309724752370       22.41325478725545       11.97379989491096
H           19.99172090279199       23.21233414071894       10.64985780791308
C           25.25481241864522       22.62455509530148       12.59571988411538
H           26.32036346242986       22.79793100372272       12.48171257514728
H           24.88196227725831       21.94386091151165       11.83850701733059
H           25.04321868878565       22.22753387907647       13.58287224063027
S           24.37238398939232       24.22016454109522       12.47464900191934
H           24.71567090358975       24.44997925645330       11.20247908509780
