72
 energy: -105.925119937496 gnorm: 0.201636101977 xtb: 6.7.1 (edcfbbe)
Fe          22.21700000000000       23.71000000000000       12.01600000000000
N           22.16000000000000       22.07400000000000       13.16600000000000
N           21.61799999999999       24.82600000000000       13.68300000000000
N           21.93600000000000       25.45900000000000       10.90300000000000
N           22.56300000000000       22.70200000000000       10.46800000000000
C           22.49100000000000       20.81600000000000       12.70300000000000
C           22.50500000000000       19.90600000000000       13.77800000000000
C           22.18500000000000       20.60600000000000       14.89300000000000
C           21.98500000000000       21.96200000000000       14.51900000000000
C           21.44100000000000       24.31900000000000       14.91600000000000
C           21.02800000000000       25.34800000000000       15.80700000000000
C           20.94700000000000       26.50900000000000       15.08100000000000
C           21.32600000000000       26.14300000000000       13.69200000000000
C           21.67900000000000       26.73000000000000       11.33400000000000
C           21.78900000000000       27.62200000000000       10.24000000000000
C           22.12900000000000       26.86000000000000        9.12300000000000
C           22.20700000000000       25.51000000000000        9.56100000000000
C           22.61800000000000       23.16200000000000        9.20500000000000
C           22.87900000000000       22.07100000000000        8.26400000000000
C           22.96300000000000       20.94500000000000        8.98800000000000
C           22.74900000000000       21.36600000000000       10.38800000000000
C           22.76200000000000       20.44000000000000       11.40800000000000
H           22.99000000000000       19.39800000000000       11.18600000000000
C           21.63500000000000       23.00500000000000       15.36500000000000
H           21.50500000000000       22.79300000000000       16.42600000000000
C           21.35800000000000       27.07900000000000       12.64400000000000
H           21.12200000000000       28.12000000000000       12.86500000000000
C           22.49900000000000       24.46800000000000        8.73200000000000
H           22.64300000000000       24.66100000000000        7.67000000000000
C           22.08300000000000       20.00700000000000       16.27400000000000
H           22.90200000000000       19.27100000000000       16.42000000000000
H           21.10800000000000       19.48699999999999       16.38700000000000
H           22.17700000000000       20.80800000000000       17.03800000000000
C           22.79700000000000       18.41700000000000       13.70900000000000
H           23.89500000000000       18.25600000000000       13.66000000000000
H           22.32900000000000       17.98400000000000       12.79900000000000
H           22.39900000000000       17.91400000000000       14.61600000000000
C           20.75400000000000       25.15000000000000       17.27500000000000
H           21.71500000000000       25.13700000000000       17.83300000000000
H           20.23300000000000       24.18200000000000       17.43200000000000
H           20.12800000000000       25.98500000000000       17.65600000000000
C           20.55700000000000       27.86900000000000       15.53100000000000
H           20.03400000000000       28.53600000000000       14.83000000000000
C           20.80500000000000       28.34500000000000       16.75500000000000
H           21.32500000000000       27.72500000000000       17.50000000000000
H           20.49200000000000       29.36200000000000       17.03200000000000
C           21.58599999999999       29.12500000000000       10.32900000000000
H           22.42800000000000       29.58000000000000       10.89400000000000
H           20.63500000000000       29.34500000000000       10.86000000000000
H           21.56000000000000       29.56100000000000        9.30800000000000
C           22.34200000000000       27.27200000000000        7.72200000000000
H           21.81800000000000       26.73600000000000        6.91700000000000
C           23.14200000000000       28.26800000000000        7.37100000000000
H           23.69100000000000       28.83900000000000        8.13400000000000
H           23.26700000000000       28.53700000000000        6.31200000000000
C           23.01400000000000       22.19600000000000        6.77200000000000
H           23.85800000000000       22.87700000000000        6.53200000000000
H           22.07900000000000       22.61700000000000        6.34400000000000
H           23.21900000000000       21.19800000000000        6.32900000000000
C           23.21600000000000       19.55500000000000        8.43900000000000
H           24.30200000000000       19.42600000000000        8.24100000000000
H           22.65800000000000       19.42000000000000        7.48800000000000
H           22.89200000000000       18.79400000000000        9.18100000000000
O           19.82600000000000       23.31700000000000       11.78000000000000
H           19.40800000000000       23.79900000000000       12.49300000000000
H           19.41300000000000       22.82800000000000       11.16300000000000
C           25.15800000000000       22.90000000000000       13.06000000000000
H           26.25400000000000       22.97900000000000       13.22600000000000
H           24.97700000000000       22.06200000000000       12.35300000000000
H           24.68000000000000       22.66300000000000       14.03400000000000
S           24.48800000000000       24.42700000000000       12.39600000000000
H           25.06100000000000       24.29799999999999       11.20800000000000
72
 energy: -105.960032541727 gnorm: 0.078623652713 xtb: 6.7.1 (edcfbbe)
Fe          22.12931057783443       23.72362018700764       12.01348971781005
N           22.19375241973033       22.07304780596287       13.15694673841978
N           21.60871482625262       24.82400153405829       13.66954591247636
N           21.95032119576519       25.44835074495917       10.90626507053048
N           22.55742381308352       22.69596755128317       10.45353027162286
C           22.49903995562694       20.81489030566713       12.71095355740051
C           22.50254818494273       19.88945124589584       13.79368970919016
C           22.18938973890196       20.59761250096428       14.91123607692173
C           21.99310102451842       21.96078133301362       14.50572119391422
C           21.44607160878244       24.32522294913731       14.91670026765160
C           21.03050649796817       25.36590877471997       15.81461736087809
C           20.94549545264626       26.52019496554563       15.08017235209262
C           21.31740346060363       26.14565025758447       13.70342755870177
C           21.68803397555959       26.71589325206391       11.33404257865997
C           21.79212887355786       27.63164302850707       10.23461794585007
C           22.11332376234389       26.88311106459926        9.12331952015601
C           22.19968159220048       25.52272888366598        9.57030861336060
C           22.62724244606356       23.16018250706680        9.18276516567473
C           22.88139199194480       22.07342519404308        8.24998869811854
C           22.96545247663976       20.94186581187956        8.98206125486085
C           22.75897220935287       21.35408478273312       10.36970028576429
C           22.76607482021374       20.44933604463210       11.40692746472897
H           22.98592980999724       19.41332777940954       11.19279483538867
C           21.64113724712602       23.01110129663738       15.34012775564860
H           21.50706324815528       22.79832702363353       16.39368283319021
C           21.36238086089192       27.05341996657289       12.64720757860529
H           21.13175264689804       28.08963635589681       12.86315582494299
C           22.49993603185289       24.46594179055048        8.73981226592518
H           22.64036281082014       24.66036001522626        7.68598077899498
C           22.08353859269061       20.01635609790340       16.28469641822922
H           22.88546011649501       19.28658689211269       16.43457849280289
H           21.12352574375154       19.50106462224580       16.40186658519909
H           22.17027002185040       20.79418397655813       17.04556923926086
C           22.79641307939316       18.42108694996945       13.70970294931358
H           23.87853682176029       18.25260130488737       13.65865542678656
H           22.33647063743808       17.98443353506872       12.81849176001603
H           22.40598044679175       17.91312791301424       14.59417513715668
C           20.75138279077204       25.15661109881576       17.26948871133635
H           21.69318890326032       25.13858030638535       17.83201850291266
H           20.23723672978117       24.20437658076590       17.43458713491849
H           20.12761954277293       25.96593600375029       17.65606532719789
C           20.56252298874325       27.85795982073059       15.52999726920605
H           20.05023358137149       28.50620874885421       14.82055538835465
C           20.80253629756650       28.33841958661402       16.74852380047941
H           21.33204467443460       27.75386343405639       17.48934176842340
H           20.49608123718533       29.33974714282044       17.02841559129353
C           21.58768515450960       29.11487717717067       10.32528437392045
H           22.41160641050862       29.57482319738801       10.88350565334448
H           20.65234930574801       29.34270465622890       10.84735046343187
H           21.55579529774949       29.55463021645651        9.32480396257639
C           22.33018853940717       27.29266471647187        7.73567381570312
H           21.82139705185444       26.72998032550688        6.95141188920264
C           23.13616301853740       28.28143976853568        7.37525922383896
H           23.69378113456324       28.84182845592527        8.11502175853427
H           23.27322086556979       28.54280520078936        6.33221796345647
C           23.01541949630389       22.20553463571190        6.77036485167149
H           23.84686871609667       22.87292156075918        6.52179898315362
H           22.09610029553122       22.61390170606725        6.33812892045663
H           23.21360208980322       21.22622161972109        6.32732386867246
C           23.21577584504527       19.56053314518342        8.45458424165009
H           24.28396566564535       19.42209056943193        8.24912320297872
H           22.66877115933725       19.41524846654825        7.51765533266880
H           22.89654047433195       18.79636847895127        9.16674653019733
O           19.86133636698322       23.33144404842740       11.79094623730062
H           19.40641945514944       23.79736959790618       12.48931655431868
H           19.40284280600121       22.81797622940617       11.14972874395787
C           25.17654367452010       22.87945361645435       13.06203943170925
H           26.25448530431893       22.98613106799540       13.22515280321139
H           24.97898265298886       22.05755627998139       12.36877165627712
H           24.68631832357769       22.66979256458965       14.01646572055779
S           24.46112403992169       24.39772121635988       12.40057190473477
H           25.04973108966293       24.29775251456209       11.20823322210712
72
 energy: -105.969490488490 gnorm: 0.027293741004 xtb: 6.7.1 (edcfbbe)
Fe          22.10964621292518       23.74401277439178       12.02456764036094
N           22.20511320586416       22.07008221098595       13.14532975826219
N           21.57791413206590       24.81292880398054       13.65034227704690
N           21.94596316312448       25.42945046179525       10.90952769376568
N           22.54187616593957       22.68735567429790       10.43561749540652
C           22.50293729476474       20.81639301139004       12.71430095521899
C           22.50021242146465       19.88077468322149       13.80486597884300
C           22.19270748225719       20.59613911681801       14.92254550229651
C           21.99794901338599       21.96231105220579       14.49039859958213
C           21.43912491208722       24.32500834407393       14.91273964093093
C           21.03736313150462       25.37454442530627       15.81903488576537
C           20.94988920288428       26.52224783110331       15.07614932041998
C           21.29735594954293       26.14104422478448       13.70938945972833
C           21.68876604474109       26.69532677843213       11.33889937190197
C           21.79504315360355       27.63228679253553       10.24057649803299
C           22.10291516629585       26.89435442099570        9.13271759210509
C           22.18484646574203       25.52344789142327        9.58004979638972
C           22.62322492675898       23.15378304936171        9.15924351006206
C           22.88519695057170       22.07464404582168        8.23449429753270
C           22.96728431778043       20.93948972465948        8.97417886965449
C           22.75615997581265       21.34238062679567       10.34818244011955
C           22.76710354127684       20.45951506705491       11.40504754514492
H           22.98347526880979       19.42521603961801       11.19981424541200
C           21.64517924579152       23.01481005934566       15.31580136427915
H           21.51156435162744       22.79936641455795       16.36459695035316
C           21.36231200735867       27.02787081201346       12.64862902566661
H           21.14713613204759       28.06474514662788       12.85899948855023
C           22.49262913813467       24.46277652261340        8.74727426126054
H           22.63642227844884       24.66687612677658        7.69953226954340
C           22.08220174999535       20.03454028281680       16.29756322685385
H           22.87376035971330       19.30658526007652       16.45733143776916
H           21.12889856776977       19.52223208077401       16.42117162568311
H           22.16233928232257       20.80239198254062       17.05632571705285
C           22.79481320443974       18.42462472370941       13.71023961335793
H           23.86928291429847       18.25303437691055       13.65400436046195
H           22.33769419236557       17.98861441290121       12.82721434585244
H           22.41144094348137       17.90790107636702       14.58301052971355
C           20.74995813657650       25.16237060022407       17.26492789461761
H           21.67870435444743       25.14280063966639       17.83515643998375
H           20.23842242527035       24.21683525573957       17.42662556946088
H           20.12380068042868       25.95926089168713       17.65062043820303
C           20.57710725673283       27.84671069712464       15.52059021353205
H           20.06690049877998       28.47431657550971       14.80023105214010
C           20.81232922795019       28.33724665773748       16.73441668705681
H           21.34554957236507       27.77974223213858       17.48071822878255
H           20.49193886662180       29.32392252743594       17.01802249641016
C           21.58763045392665       29.10292183280314       10.33067157569533
H           22.40212105341253       29.56871885477527       10.88341514942194
H           20.65836792257251       29.33548456808390       10.84550421124521
H           21.55369296210100       29.53908534449150        9.33713836009783
C           22.32857892020789       27.30387587944655        7.75622783411206
H           21.81523318808750       26.72913809309166        6.99256104676749
C           23.13353181213643       28.29165702696864        7.38640029499859
H           23.68719332335717       28.86124922205107        8.10900403642889
H           23.27203360819262       28.55219875447487        6.35233516871232
C           23.01888887318190       22.21434148725195        6.76086483307873
H           23.84147728506302       22.87920574033373        6.51010275412323
H           22.10708728099246       22.61954336379288        6.32876685367583
H           23.21328534283657       21.24586886351300        6.31310245502938
C           23.21663269998746       19.56166561181330        8.46614173152839
H           24.27712819210183       19.41663102683245        8.26324922280438
H           22.67568586685244       19.40736593221311        7.53553575106417
H           22.89649496768351       18.80336622370353        9.17028386566667
O           19.91393841626859       23.35490681945085       11.78798309879408
H           19.39965817008946       23.78548505513748       12.47484508461248
H           19.42610025989429       22.82322210401382       11.15486183408506
C           25.19280520042119       22.85844404082133       13.06608004047165
H           26.25905178800387       22.99262034827753       13.21542548511431
H           24.98732101516323       22.04398031694108       12.38291781448476
H           24.70361792753117       22.66782851180193       14.01402922227873
S           24.45590488988588       24.38588129738918       12.41546363393384
H           25.01808509387692       24.29700127417857       11.20307203120658
72
 energy: -105.971873546778 gnorm: 0.018598292991 xtb: 6.7.1 (edcfbbe)
Fe          22.08966736416605       23.74916729518221       12.02699062086264
N           22.20960625065156       22.06897520946555       13.14272535210419
N           21.57348429675688       24.80593912609394       13.64570238172767
N           21.94657163680186       25.41969356793427       10.91388411542568
N           22.53477491556593       22.68171194845128       10.42105786588354
C           22.50672409661221       20.81755396919492       12.71328427864858
C           22.50410333460782       19.88090075684660       13.80902110493493
C           22.19878411633228       20.59921046737562       14.92570500928226
C           22.00471432736744       21.96428569843155       14.48561639125012
C           21.43741061456608       24.32160829107807       14.91180545269728
C           21.04449108547573       25.37197840578141       15.82043446730130
C           20.95760088869514       26.51709844157157       15.07412087117545
C           21.29430354761075       26.13527992824301       13.71287211105632
C           21.69148859542479       26.68364251082222       11.34772707702061
C           21.79880641042638       27.62824606218914       10.25434593944391
C           22.10253272034960       26.89524234353526        9.14455268386357
C           22.18096301179330       25.51886463146493        9.58523887832247
C           22.62007123844980       23.14875835885389        9.14391234415420
C           22.88836744555640       22.07332209910973        8.22146178758983
C           22.96881333915220       20.93735400993730        8.96503073193809
C           22.75363347031620       21.33697163301387       10.33479725840835
C           22.76695806993672       20.46367981390044       11.40221415603010
H           22.98498409280173       19.42780719741850       11.20228588475546
C           21.64721605214529       23.01340606510197       15.30867370641431
H           21.51485062209073       22.79465359205239       16.35643858242728
C           21.36534189878270       27.01754200170262       12.65184785701778
H           21.16105912328490       28.05712227167429       12.85869928731961
C           22.48685853595054       24.46241410060953        8.74743058567084
H           22.63173290452918       24.67767792077650        7.70121784105296
C           22.08023110801496       20.05513531938712       16.30840089928219
H           22.86882614073103       19.32612060761917       16.48478224841718
H           21.12356305045817       19.54797596160327       16.43739304657706
H           22.15726785891905       20.83174472618501       17.06085471449278
C           22.79560876056809       18.42490440764987       13.70944400845735
H           23.87028189369408       18.25180496447583       13.64592466201211
H           22.33297853655374       17.99237341811079       12.82618835714292
H           22.41676929044688       17.90197589849630       14.58243966268128
C           20.74625016828685       25.16348193158267       17.26339629644115
H           21.66799200156465       25.14818746453064       17.84594655679559
H           20.23485385640899       24.21610712246619       17.41886752287199
H           20.11271075595318       25.96055540516723       17.64068023145995
C           20.58244791920772       27.84074688185731       15.50993715716217
H           20.07639285835920       28.45708435361223       14.77674043498575
C           20.81260529029840       28.34224056601857       16.72023152058369
H           21.36911398753483       27.80555600394481       17.46799865819574
H           20.48917779297354       29.33056114125716       16.99473925411190
C           21.58496032132280       29.09650160235363       10.34499994656002
H           22.39762325821152       29.56851491466146       10.89621659878885
H           20.65329506539581       29.32617618375278       10.85804555140076
H           21.54930463935821       29.52771677856401        9.34811107203632
C           22.32491516318527       27.31298246096629        7.77239752482183
H           21.81588512766608       26.72603309363769        7.01608479409793
C           23.11757890206191       28.30984206078271        7.40067285156449
H           23.67869221160525       28.88137878361838        8.11795122329974
H           23.26347452003385       28.56357589187961        6.36536256540171
C           23.02399273443824       22.22063361314600        6.74734668765498
H           23.84506335974141       22.89004652697775        6.49918662285430
H           22.11199799706966       22.63010136206738        6.31674955505504
H           23.21885478014882       21.25556754540030        6.29014339628026
C           23.21998378668833       19.55567244948471        8.46940288194431
H           24.28205393581501       19.40554034662998        8.27551482387731
H           22.68317565376768       19.39114932329030        7.53720749656178
H           22.89423352895156       18.80613353247313        9.18213335919692
O           19.93125158758625       23.39166612365543       11.75879443594981
H           19.37766555341116       23.75783267215724       12.46170919445334
H           19.44191599319982       22.81482527032866       11.16036552461081
C           25.20694123512639       22.84223525984291       13.07031110333432
H           26.27336220952533       23.00056071797773       13.19892562636901
H           25.00010741465016       22.02239402540002       12.39430494276566
H           24.73384091961024       22.65525108305442       14.02679714791585
S           24.43304479505002       24.36379379429374       12.42613805157222
H           24.96780003020494       24.28121069182644       11.19906716618192
72
 energy: -105.972964887964 gnorm: 0.035295032766 xtb: 6.7.1 (edcfbbe)
Fe          22.09306556290729       23.75473855359954       12.03312744317307
N           22.20035990635505       22.06764922072209       13.13959264887380
N           21.56710841811073       24.79747640797379       13.64399025309504
N           21.95121800809200       25.40917994389267       10.92034759842475
N           22.53004674914378       22.67552996866426       10.40501594044409
C           22.50351796832621       20.81788112088157       12.70904570183117
C           22.50664244765450       19.88284783536786       13.81033608997746
C           22.20269347550437       20.60278145087933       14.92543531672218
C           22.00400644764377       21.96523746552984       14.48161465340609
C           21.43184076285383       24.31698020725219       14.91228248873266
C           21.04905792212793       25.36723968189410       15.82161599714797
C           20.96597960326581       26.51104793071202       15.07254161686592
C           21.29321740464355       26.12776000914818       13.71564456467434
C           21.69704313665392       26.67143086798895       11.35783670872032
C           21.80463067685270       27.62049626696712       10.27060920930989
C           22.10620062946621       26.89132624428007        9.15777535948960
C           22.18057118905338       25.51047465573753        9.59042816066423
C           22.61635222773857       23.14228366217241        9.12853990768594
C           22.89053384705589       22.06928797829889        8.20706222189415
C           22.96945012500819       20.93313002527197        8.95344176649346
C           22.74839945283409       21.33163712719896       10.32149875061587
C           22.76321348096664       20.46604303386497       11.39779931385376
H           22.98720464430338       19.42864118138625       11.20364968122504
C           21.64490394369875       23.00992958327923       15.30648613643990
H           21.51809859041233       22.78812971499987       16.35451691485417
C           21.37255002852704       27.01029919289972       12.65615645091687
H           21.17869787223650       28.05274682597249       12.85940486630125
C           22.48216644790287       24.46124225167172        8.74547579283360
H           22.62577966917744       24.68911777334647        7.70025770597524
C           22.07865864486176       20.08060499385696       16.31792113746252
H           22.86416525299480       19.35122672370201       16.51580498968559
H           21.11688528015544       19.58164597282395       16.45519105512696
H           22.15530177057068       20.87357533442694       17.05728587602113
C           22.79761528203800       18.42562105365728       13.70727868403887
H           23.87290237467935       18.25135184780678       13.63256071738430
H           22.32499992794733       17.99527318254585       12.82583698499412
H           22.42664594069933       17.89938660806935       14.58401744912834
C           20.73948317984875       25.16587014451126       17.26296533361433
H           21.65341924260393       25.15735727684756       17.85986267052974
H           20.22815555211340       24.21643884035067       17.41593444384846
H           20.09854017553186       25.96620280683816       17.62708986235317
C           20.59429304212511       27.84035189027562       15.49556342013688
H           20.07673179811204       28.43913246418956       14.75469541535881
C           20.82831869189674       28.35826380950578       16.69778656808007
H           21.37776704028158       27.82947653826278       17.45641820915337
H           20.48673453190388       29.34458397316177       16.96465737806463
C           21.58203021294353       29.08809505105875       10.36394523506049
H           22.39200139693246       29.56753600868659       10.91498932035710
H           20.64726143037898       29.31090586091607       10.87717355682473
H           21.54288821750223       29.51759563987767        9.36459305729080
C           22.32781753716156       27.31801305296170        7.78891632810341
H           21.82051643530358       26.72598322116821        7.03580645315801
C           23.10608821842732       28.32652545250490        7.41927318093495
H           23.65284696410637       28.91581215065049        8.13620302805615
H           23.23724959582919       28.59347253927997        6.38409984795354
C           23.03077278565781       22.22632399049328        6.73229102626629
H           23.85210380315962       22.90101077560863        6.49056371739302
H           22.11857862401368       22.64169618953732        6.30267997207670
H           23.22750953975320       21.26529188491492        6.26357787884820
C           23.22535519137939       19.54625216891116        8.47042374024094
H           24.29054952853796       19.39053509481015        8.29104132810224
H           22.69710945450325       19.36963581594697        7.53418271794937
H           22.89047254150847       18.80663727438603        9.19289421912610
O           19.93921144598009       23.45940100208242       11.69619537396331
H           19.36601070700660       23.71046723240823       12.45129121385163
H           19.45105078307786       22.77736988215258       11.18547314223036
C           25.22442297311926       22.82583756881553       13.07364924984078
H           26.29216756640268       23.00562785443344       13.17182947737437
H           25.01465418595544       21.99663456596376       12.40804643968975
H           24.77960013112103       22.63940284432372       14.04555391299159
S           24.41318954361326       24.33924886111535       12.43698097598563
H           24.90737281974322       24.24975837430470       11.19292615070689
72
 energy: -105.973476723382 gnorm: 0.018066035062 xtb: 6.7.1 (edcfbbe)
Fe          22.09463589888750       23.75343637357844       12.03546638185520
N           22.18805975511157       22.06618493835496       13.13856772321311
N           21.56596885788989       24.79279209501817       13.64689811345559
N           21.96121619395617       25.40433412532672       10.92579657802805
N           22.52885060542157       22.67138008576650       10.39534283772942
C           22.49986844032130       20.81708069559180       12.70523841645595
C           22.50961179871106       19.88505658681171       13.80944676374426
C           22.20575178757949       20.60484056497400       14.92357436606204
C           22.00098277701161       21.96479684737061       14.48131495397750
C           21.42815919691806       24.31370739116475       14.91449253145642
C           21.04908375743540       25.36265943442445       15.82260467846110
C           20.96948613392325       26.50664558252836       15.07302478435685
C           21.29709778778810       26.12302011895538       13.71768238822315
C           21.70430749523316       26.66529791896572       11.36458445331213
C           21.80858877792184       27.61386481549344       10.28105029914435
C           22.11071444330261       26.88635320168355        9.16570897886888
C           22.18648507871301       25.50423406131880        9.59346569021039
C           22.61548401144891       23.13809951458155        9.12086329275976
C           22.89196825240914       22.06499240199210        8.19886517190268