71
 energy: -108.857659797015 gnorm: 0.186079126198 xtb: 6.7.1 (edcfbbe)
Fe          19.60000000000000       11.95200000000000        9.79100000000000
N           17.93100000000000       11.86600000000000        8.69100000000000
N           20.31400000000000       10.32900000000000        8.88000000000000
N           21.19800000000000       11.97500000000000       11.01600000000000
N           18.84800000000000       13.51100000000000       10.79500000000000
C           16.87700000000000       12.75500000000000        8.68300000000000
C           15.88400000000000       12.38100000000000        7.69700000000000
C           16.33300000000000       11.24000000000000        7.10400000000000
C           17.60800000000000       10.92500000000000        7.72300000000000
C           19.70800000000000        9.59000000000000        7.86600000000000
C           20.58900000000000        8.53800000000000        7.40000000000000
C           21.73900000000000        8.59400000000000        8.16100000000000
C           21.53800000000000        9.69400000000000        9.08400000000000
C           22.31800000000000       11.16100000000000       10.95600000000000
C           23.23800000000000       11.47800000000000       12.01800000000000
C           22.68300000000000       12.47100000000000       12.79300000000000
C           21.41800000000000       12.77500000000000       12.14200000000000
C           19.34600000000000       14.12900000000000       11.94000000000000
C           18.47800000000000       15.20300000000000       12.38800000000000
C           17.43500000000000       15.24800000000000       11.51300000000000
C           17.66700000000000       14.21600000000000       10.52200000000000
C           16.74200000000000       13.86000000000000        9.52500000000000
H           15.86000000000000       14.48900000000000        9.40100000000000
C           18.43000000000000        9.85500000000000        7.34700000000000
H           18.04600000000000        9.17200000000000        6.58900000000000
C           22.47500000000000       10.10100000000000       10.05000000000000
H           23.40900000000000        9.54200000000000       10.10000000000000
C           20.54900000000000       13.78100000000000       12.57100000000000
H           20.82700000000000       14.33900000000000       13.46500000000000
C           15.60100000000000       10.37200000000000        6.09300000000000
H           14.68300000000000       10.89600000000000        5.75000000000000
H           15.31100000000000        9.40900000000000        6.56500000000000
H           16.25700000000000       10.18300000000000        5.21600000000000
C           14.58900000000000       13.14200000000000        7.42400000000000
H           14.78600000000000       14.23500000000000        7.46300000000000
H           13.83200000000000       12.88400000000000        8.19600000000000
H           14.20600000000000       12.88100000000000        6.41400000000000
C           20.24600000000000        7.52300000000000        6.31100000000000
H           20.71000000000000        7.83800000000000        5.35200000000000
H           19.14400000000000        7.47200000000000        6.17900000000000
H           20.64100000000000        6.52300000000000        6.59200000000000
C           22.84400000000000        7.70800000000000        8.19400000000000
H           23.39000000000000        7.58900000000000        9.14100000000000
C           23.29900000000000        6.97600000000000        7.13700000000000
H           22.80300000000000        7.04200000000000        6.15700000000000
H           24.16700000000000        6.31000000000000        7.25100000000000
C           24.61600000000000       10.82000000000000       12.17400000000000
H           24.92700000000000       10.37700000000000       11.20400000000000
H           24.56300000000000       10.01500000000000       12.93700000000000
H           25.36400000000000       11.58300000000000       12.47800000000000
C           23.12500000000000       13.08200000000000       13.98100000000000
H           22.44100000000000       13.78800000000000       14.47200000000000
C           24.32700000000000       12.89700000000000       14.60800000000000
H           25.07500000000000       12.20800000000000       14.18900000000000
H           24.56000000000000       13.43500000000000       15.53900000000000
C           18.63400000000000       16.04500000000000       13.65500000000000
H           19.67300000000000       16.43400000000000       13.71600000000000
H           18.43100000000000       15.41800000000000       14.55000000000000
H           17.92899999999999       16.90300000000000       13.62500000000000
C           16.18100000000000       16.12700000000000       11.66400000000000
H           16.48600000000000       17.17500000000000       11.87400000000000
H           15.56200000000000       15.75600000000000       12.50800000000000
H           15.59200000000000       16.10500000000000       10.72300000000000
O           18.79500000000000       10.79100000000000       10.95700000000000
O           19.31300000000000        9.77000000000000       11.54800000000000
C           19.82700000000000       13.89700000000000        6.95100000000000
H           20.42200000000000       14.11300000000000        6.03800000000000
H           19.38700000000000       14.85200000000000        7.30800000000000
H           19.00700000000000       13.20300000000000        6.66900000000000
S           20.85700000000000       13.15600000000000        8.25000000000000
H           21.02100000000000       12.00100000000000        7.62200000000000
71
 energy: -108.897954723677 gnorm: 0.084411808936 xtb: 6.7.1 (edcfbbe)
Fe          19.57232314231586       11.88733427663326        9.87171674397721
N           17.93395214502427       11.87534922348966        8.67013809571663
N           20.32524824160534       10.31712468938107        8.86255522420458
N           21.21822811219064       11.98427751150875       11.02986768405877
N           18.84194612054885       13.53613538054734       10.80187699094957
C           16.88846164646017       12.76003687800694        8.68006503475438
C           15.88769058654817       12.38029765221884        7.70408303885645
C           16.33191557876253       11.23102456287370        7.11929653283023
C           17.61644628583768       10.92897941622891        7.72384936249413
C           19.70944284829049        9.59683935588571        7.86146097464464
C           20.57458192551697        8.53544930884983        7.40745074230533
C           21.72095596531844        8.59237354936662        8.17441729121751
C           21.53570505692029        9.70572037107482        9.08722874405270
C           22.31286914859339       11.15945928543384       10.95475062509268
C           23.24701034220907       11.47179594791043       12.00414572139305
C           22.68133966667670       12.46252121015693       12.78017409363494
C           21.41331808772300       12.77773733998602       12.13447786095771
C           19.34959570760432       14.13288922407069       11.93181080698937
C           18.47329629875960       15.19063988163414       12.39174706524697
C           17.42590000356597       15.23536532947614       11.51832151324670
C           17.65967470469279       14.20080348359676       10.53406347882076
C           16.76356958105270       13.85534681960033        9.52559335980430
H           15.87918759134015       14.47183628393498        9.41000795536575
C           18.43715133678263        9.86751033918948        7.35377160115933
H           18.05216682410461        9.19112269201739        6.59909714433500
C           22.46437085365004       10.11626542620129       10.04116235743228
H           23.38535386491283        9.54731594251527       10.09897738762488
C           20.54263587449910       13.77576074166825       12.55474329303369
H           20.81367471542162       14.33039952380886       13.44565558121421
C           15.61655548527862       10.38238565179478        6.10369033673530
H           14.70705006149310       10.88453735983693        5.75881491914175
H           15.32452127719907        9.42731232280932        6.55359097092064
H           16.24988997523300       10.18169432418301        5.23261094567208
C           14.61153776811003       13.13500391117911        7.43027431011697
H           14.78451409360900       14.21577094617191        7.46070738870233
H           13.85156131352791       12.88825457089711        8.18060537290217
H           14.21645606704647       12.88307647569397        6.44112471383170
C           20.24425306418506        7.53956866943515        6.32684294480070
H           20.69801735514232        7.83636496998958        5.37277654981477
H           19.16317583811368        7.46839785302351        6.18201638021740
H           20.63011770877138        6.54970278398343        6.59381820017993
C           22.84798186922549        7.70441389778741        8.18659703027251
H           23.38609083472285        7.59995304846549        9.12747097564804
C           23.28991296941826        6.98087022581691        7.14810963286877
H           22.82457068275009        7.04671491559498        6.17345221048792
H           24.14424883577710        6.32255949883325        7.24989367433760
C           24.59846991419052       10.81983507456502       12.16005471967939
H           24.92179359608433       10.37605009390218       11.21581080279256
H           24.56257320329476       10.03380253835595       12.92334296281173
H           25.34782671244821       11.56152957813609       12.44901358557915
C           23.13703295621297       13.08328914131243       13.98427886231589
H           22.45045540007224       13.77904838519643       14.46383831283861
C           24.31303154076076       12.89939423816910       14.60682255888925
H           25.06105597779984       12.22289475581240       14.22358854872569
H           24.54848453217900       13.42822605515573       15.52132543526229
C           18.64291897414781       16.02856298720853       13.63440321641657
H           19.66123913447806       16.42386918222215       13.71211713592538
H           18.43818726452673       15.42755985378463       14.52755709765660
H           17.94706026395308       16.87318839585145       13.62158563221417
C           16.20153753370062       16.11468506968238       11.64986580453176
H           16.48713847284022       17.15074934474175       11.86380829443196
H           15.58115275406472       15.75985336072141       12.48071934360413
H           15.60125283440289       16.10586414590813       10.73741289153185
O           18.72840908734620       10.78244025974159       10.98634837247910
O           19.31595039387521        9.79090059233406       11.53615655488518
C           19.81269803131106       13.90417870979063        6.92816395305272
H           20.42338475160210       14.11360041536295        6.04451491990174
H           19.39149203109956       14.83790301117246        7.30801043957790
H           19.00558785075633       13.21324966695142        6.67211859545337
S           20.84057592718099       13.18128842050501        8.23787076881466
H           21.04422340513999       12.02774365065402        7.60236832856400
71
 energy: -108.910593389619 gnorm: 0.027179181284 xtb: 6.7.1 (edcfbbe)
Fe          19.54113145053196       11.84658188988720        9.92344989102821
N           17.92540345537497       11.87327765154565        8.66048656885540
N           20.31982693209743       10.29749498161778        8.86501927034277
N           21.21216022398494       11.97332426104290       11.05138100836436
N           18.82656495112876       13.54124075542274       10.82304441777417
C           16.89436775547630       12.75864020045605        8.68132921944313
C           15.89264923540268       12.38053023103924        7.70645717920557
C           16.33267900086341       11.22573426982124        7.12809317459284
C           17.61891031884479       10.92827430361470        7.72814291238070
C           19.70431937832814        9.59598053167893        7.87001058575263
C           20.56194078062500        8.53179265244912        7.41730025259597
C           21.70164686374713        8.59091918956047        8.18841963183823
C           21.52016367517712        9.70720754312281        9.09867966809358
C           22.29680719847839       11.15537574748247       10.95552836376622
C           23.24982975151956       11.46745403032413       11.99176313180407
C           22.67761465316363       12.45435792883306       12.76501231183450
C           21.40309028645686       12.76883909331334       12.12981205507520
C           19.34683316236180       14.12656589438263       11.93330099610854
C           18.47218232033183       15.18240540361913       12.39437920445699
C           17.41985560216071       15.22254621267510       11.52574573950122
C           17.65492101638529       14.18110074174643       10.55001140960097
C           16.78141232755874       13.84725825317809        9.52973686386195
H           15.89622030321566       14.45601350683035        9.42009508464241
C           18.44076186269789        9.87577788585078        7.36146310932190
H           18.05993504871490        9.20959935291328        6.60173249778132
C           22.44689370557707       10.12541748217162       10.03757759023197
H           23.36198787488589        9.55487630222153       10.09598243655303
C           20.53600962738539       13.76638626164045       12.54483808759434
H           20.80630442537121       14.32391876638715       13.42900775715345
C           15.63204196147910       10.38800664890307        6.11375208027588
H           14.72956895447485       10.88312936864863        5.76857836803895
H           15.34214379271904        9.43480006427594        6.55168508544047
H           16.26202256758776       10.18592685139274        5.25114325516717
C           14.63122765830034       13.12864190660351        7.43653442944073
H           14.79778450568327       14.20188195513103        7.46372572635664
H           13.87266837614646       12.88597429131113        8.17891552654133
H           14.23314146946285       12.87604002097060        6.45812704826024
C           20.23917702153232        7.55140090616402        6.34471526034460
H           20.68842662134999        7.84694190535878        5.39619676387499
H           19.16818720108346        7.46944881456800        6.19437543088126
H           20.62643079743047        6.56952477725986        6.60562184025914
C           22.84774832676564        7.70565676149671        8.18341692324129
H           23.37410437629007        7.61643793594076        9.12497981159551
C           23.28624774915940        6.99265176962439        7.15337453495165
H           22.83938077861295        7.04815409264399        6.18018468280717
H           24.12897324655378        6.33296626389035        7.24994824303654
C           24.58175800635559       10.82150534415547       12.14484753328266
H           24.90417177268633       10.36524112226804       11.21553849504563
H           24.55310814790417       10.05158564071869       12.91492991620146
H           25.33166002968934       11.55476442566622       12.42400387635517
C           23.14400126056779       13.08447933766980       13.97953157911954
H           22.44998811551408       13.77646850223393       14.43930325498755
C           24.30212446752288       12.89826757290635       14.60428967319807
H           25.05772368569138       12.22754681680504       14.25246992374136
H           24.53476078688329       13.42497813119816       15.51084138520181
C           18.65323897004133       16.01450453789420       13.61717005779511
H           19.66362578743250       16.40579620812299       13.69492651598053
H           18.44939446348568       15.42383952091077       14.50870982719242
H           17.96151768897357       16.85180454537921       13.60959714430885
C           16.21853366418195       16.09993351209269       11.63768840110277
H           16.50463166228528       17.12768862004049       11.84993139489985
H           15.59188195781351       15.75778883062369       12.46092209050139
H           15.61977018708298       16.09568413781585       10.73496629123123
O           18.69282098892679       10.80620762150821       10.99022475815395
O           19.33696155329234        9.83581830193467       11.50810248252927
C           19.79755634706699       13.91624773108330        6.91055936486274
H           20.40918676881120       14.11789914953741        6.03999975866730
H           19.38629805556557       14.83766491911084        7.30103772035254
H           19.00050541522697       13.22161001436105        6.67805783592403
S           20.87146318229403       13.23013970041736        8.21137434683351
H           21.09361844222473       12.07006009653345        7.58390094246198
71
 energy: -108.913897483419 gnorm: 0.019609524317 xtb: 6.7.1 (edcfbbe)
Fe          19.52243587072467       11.83152345057090        9.94369788019465
N           17.92594621767260       11.86925430882719        8.66293839863006
N           20.30791555756153       10.29135011639404        8.87113279808480
N           21.19895746838533       11.96205496375985       11.06244100123326
N           18.81947248988691       13.52691635934950       10.83656396046086
C           16.89841129275445       12.75358939084901        8.68521959624682
C           15.89879057006346       12.37846303242379        7.70902830333572
C           16.33752713795008       11.22441023932508        7.13173952531678
C           17.62079949533317       10.92658022420946        7.73262481886307
C           19.69651505532239        9.59226059709474        7.87794742485994
C           20.55308736259046        8.52697996271097        7.42635974773860
C           21.68987117436431        8.58801539733818        8.19688601054359
C           21.50492821563187        9.70272050589281        9.10650542798201
C           22.28269032156984       11.14878175945211       10.95845983439338
C           23.24627546312435       11.46622867919146       11.98502253459819
C           22.67877758733960       12.45372763997577       12.75690528780475
C           21.39754740884151       12.76005737915274       12.13366131010798
C           19.34252622964931       14.11209660079494       11.94156880677156
C           18.47157648889355       15.17128891221113       12.39808226406204
C           17.41795592491447       15.20789945414495       11.53314964564266
C           17.65121620383522       14.16131645836658       10.56329800556738
C           16.78390851630991       13.83620160029832        9.53770446052016
H           15.89940988662116       14.44454431319781        9.42920277370841
C           18.43918166417228        9.87568119591592        7.36302733555799
H           18.06247069974118        9.21822479015115        6.59446337915687
C           22.43298645803555       10.12163528371058       10.04131805763640
H           23.34937822219820        9.55492117224371       10.09421694199029
C           20.53272884392304       13.75772255016433       12.55001197937597
H           20.80623646931150       14.32349739104017       13.42685599517236
C           15.64654177557243       10.38673954836216        6.11503208639841
H           14.74397931546652       10.87994505045627        5.76649984311862
H           15.36048197121980        9.43023976394486        6.55020539807342
H           16.28584590746733       10.18922978170602        5.25741881927790
C           14.64077852989234       13.12656831845951        7.44141945110441
H           14.81130764899179       14.19977615871657        7.46615187963721
H           13.88521871242406       12.88561848917980        8.18824846698175
H           14.24074856858853       12.86935818890757        6.46441997156099
C           20.23014764790577        7.55029275766736        6.35524998159760
H           20.67644629713677        7.85462603878934        5.40773239029935
H           19.15809790472424        7.46351905200473        6.20841158067102
H           20.62571066276193        6.57111773829812        6.61527783603161
C           22.83980180397432        7.70626384596292        8.19054702621284
H           23.36394951366055        7.62923212194214        9.13420061995932
C           23.28196316604029        6.99601094000288        7.15919376456296
H           22.84870805318367        7.05778504165755        6.17858171500092
H           24.13220672032906        6.34434296390203        7.25450420231554
C           24.57465627744505       10.81687348082183       12.12666504298553
H           24.88027620661134       10.33664804299359       11.20174638772366
H           24.55033102288522       10.06344525650109       12.91514267514776
H           25.33331822591172       11.55326003341322       12.37789875941541
C           23.14543128179957       13.08960240672753       13.97074898435203
H           22.44622110565406       13.78837369487763       14.41135457624512
C           24.29426540590800       12.89938021766696       14.61359988261583
H           25.05508066058615       12.21509636697633       14.29289835384527
H           24.51477125117613       13.43662568133839       15.51871388720367
C           18.66650355034137       16.00696464582700       13.61212437567523
H           19.68096122632274       16.39139897903196       13.67739445015433
H           18.46785303976914       15.41810504245028       14.50703154175272
H           17.97681958303306       16.84626047454520       13.60471393915092
C           16.22535252621532       16.09386324615301       11.62731749406463
H           16.52257578543631       17.11985173818689       11.83528161005504
H           15.58661031642466       15.76145538110476       12.44649033526971
H           15.63650689655339       16.08748882783870       10.71710278330822
O           18.67633101851173       10.82526674171494       10.99414856207587
O           19.33378680433255        9.86124729326648       11.50632670704835
C           19.78723571142401       13.93550002550659        6.89459042843971
H           20.37891680435965       14.13713411333575        6.01025511945535
H           19.36777596082888       14.85210461903449        7.28894470014683
H           18.99668456736492       13.22178990037329        6.69103976816877
S           20.90471784291255       13.28501233404540        8.18564287224556
H           21.16755843213006       12.13264192755128        7.55569822509400
71
 energy: -108.916200303757 gnorm: 0.015243638175 xtb: 6.7.1 (edcfbbe)
Fe          19.50248278039252       11.82044649555762        9.95931566891082
N           17.92968777407539       11.86281630258927        8.67151695225815
N           20.29441395780260       10.29308894514613        8.87480781929018
N           21.18166852244370       11.95062224251548       11.07194248314588
N           18.81217457171552       13.50169226711285       10.84926090982074
C           16.90087754943511       12.74522938052121        8.69226370608739
C           15.90500117430144       12.37481782424807        7.71247701555970
C           16.34431677328057       11.22362973596777        7.13373285211120
C           17.62381424486897       10.92447728186603        7.73675281257590
C           19.68843710034099        9.58950165180771        7.88316695896331
C           20.54467265484953        8.52195195090215        7.43473902797648
C           21.67935093093078        8.58553472710985        8.20470755839245
C           21.48921497999468        9.69981283488329        9.11207214483144
C           22.26812305752639       11.14248151193028       10.96122519226414
C           23.23917118179460       11.46366189695264       11.98041267325116
C           22.67866675504159       12.45147526910807       12.75256108119754
C           21.39233567159065       12.75168359504838       12.14049924975467
C           19.33664862544844       14.09244010689928       11.95170450079666
C           18.47050132173197       15.15665768932977       12.40275042351875
C           17.41627772401562       15.19055329674663       11.54130601833433
C           17.64617441066143       14.13876267159904       10.57686937372599
C           16.77989077678215       13.82181477626164        9.54911783030357
H           15.89561150450390       14.43024101663204        9.44170978399522
C           18.43663186853150        9.87334886581039        7.36031735550202
H           18.06267168857264        9.22329401213251        6.58425100547899
C           22.41900232191109       10.11612879754874       10.04566157224478
H           23.33588566805022        9.55056237131008       10.09384539361953
C           20.52925471885967       13.74881049116623       12.55952618548377
H           20.80406002748139       14.32375620751722       13.42960326733463
C           15.66530318784811       10.38309219059608        6.11134062570367
H           14.76098705022783       10.87127135010836        5.75656026637611
H           15.38514265390573        9.42170130220582        6.54329567490953
H           16.31687518686679       10.19393442871914        5.25877045412900
C           14.64793887888930       13.12557257661340        7.44721363487679
H           14.82481342268886       14.19944035533103        7.46643406731237
H           13.89638140162513       12.88980621415469        8.20176340389890
H           14.24346690965700       12.86295953108922        6.47201446069477
C           20.21864858524727        7.54345114208208        6.36574869555810
H           20.65537584481587        7.85656975420592        5.41524343733529
H           19.14409218612872        7.44945297406875        6.22909845369085
H           20.62610860155108        6.56686892622001        6.62245194260684
C           22.83338149008597        7.71254612142259        8.19970197997383
H           23.34895599058283        7.63476828417787        9.14843264395854
C           23.28637925852696        7.01167579066693        7.16438953111985
H           22.84927187652167        7.06383918042197        6.18362039268978
H           24.13637206305200        6.35704750970586        7.26457391318586
C           24.56963870770047       10.81505970796646       12.11581604161374
H           24.85713932304060       10.30802743655089       11.19616998674762
H           24.55315688419942       10.07961271356543       12.92320976314642
H           25.33280738993308       11.55867668971784       12.34140213854457
C           23.14738124976585       13.09205044553679       13.96047287814929
H           22.45541223222472       13.81314708358555       14.37769076993083
C           24.28631078434670       12.88967545273443       14.61978005992724
H           25.04684207030477       12.19406113976966       14.31630861655236
H           24.49822455645784       13.44207711012679       15.52156721733888
C           18.68472682879769       15.99955436185300       13.60938681788591
H           19.70522731509991       16.37628236948420       13.65474434910761
H           18.49678029650167       15.41501596318618       14.51140524560306
H           17.99972013679273       16.84405502658486       13.60482823987066
C           16.23118916117193       16.09015537191842       11.61471541447893
H           16.54173015214244       17.11452849703173       11.81798169123202
H           15.57379490032106       15.77112319758019       12.42639040152116
H           15.65866374771115       16.08263737336903       10.69167749003356
O           18.65895811360363       10.84032780089714       11.00238832547772
O           19.31162490432697        9.87561758324863       11.51839021926666
C           19.77583360093960       13.95927676581806        6.87735766000302
H           20.33043036702945       14.16239016163307        5.96640714298301
H           19.34305452395592       14.87232863258324        7.27036243291642
H           18.99561127742120       13.21897981190095        6.71362251064107
S           20.95405518062579       13.36045274277205        8.15016207311067
H           21.25717137042739       12.21559471257463        7.52499211916813
71
 energy: -108.917328897784 gnorm: 0.011670579784 xtb: 6.7.1 (edcfbbe)
Fe          19.48914497778232       11.81440304776028        9.96698531298845
N           17.93329029740177       11.85740899017280        8.68044514748580
N           20.28590426946028       10.29782236079651        8.87590478702769
N           21.16979711998407       11.94352170101664       11.07712586190044
N           18.80694817496814       13.48073744494114       10.85527252240035
C           16.89932050336898       12.73697881891978        8.69965770353996
C           15.90730000879507       12.37094322403757        7.71529864573759
C           16.34989901639937       11.22380287720049        7.13228187839075
C           17.62649610512501       10.92324037614219        7.73828709296955
C           19.68355029638917        9.58819964356771        7.88424882639126
C           20.53843314975823        8.51769248339842        7.44001720520668
C           21.67186488883760        8.58198714797602        8.21076164570447
C           21.48085179490629        9.70000034008394        9.11319585758829
C           22.25913196837466       11.13749177274749       10.96417117184676
C           23.23329769080904       11.46016993841132       11.97908936405974
C           22.67811601323143       12.45001521459004       12.75155335788143
C           21.38809626129461       12.74501373014310       12.14726661044188
C           19.33105549122715       14.07611865357043       11.95876537930266
C           18.47003152725532       15.14558855545304       12.40597707578531
C           17.41550432914965       15.17981441812864       11.54608596795654
C           17.64077514409556       14.12375234506820       10.58553433303720
C           16.77086598384313       13.80927126127461        9.56027698372751
H           15.88548703918783       14.41641039984374        9.45449321874936
C           18.43450907841977        9.87056762909873        7.35616817993623