71
 energy: -108.922385474209 gnorm: 0.000048669393 xtb: 6.7.1 (edcfbbe)
Fe          19.44661754962372       11.84091959632371        9.99546858348456
N           17.86752618397982       11.86577699832490        8.74321884297312
N           20.28909301647680       10.40502303388671        8.83589143501474
N           21.15892669351109       12.02428176247802       11.04385648171572
N           18.71524403477586       13.44228253981545       10.96081872602077
C           16.78862857649219       12.68804310544654        8.82589355582599
C           15.81385330431486       12.34650487907656        7.81516297879118
C           16.32270075291450       11.28405149028787        7.13310218040829
C           17.60445547561912       10.99053367666597        7.73260045954348
C           19.68804024602346        9.69506920473152        7.84126870154999
C           20.55073800949796        8.63743385392673        7.38157949713800
C           21.69149464131013        8.71433329696957        8.13692370487229
C           21.49381130475340        9.81635022562938        9.05584905411109
C           22.25505286361703       11.22453440271199       10.92738430962571
C           23.23120388820154       11.55621538689967       11.93387664915269
C           22.68705573406502       12.56748220764193       12.68074448644501
C           21.38732674787776       12.84124383966419       12.10263632787038
C           19.26514310767232       14.06927142168234       12.03456337665800
C           18.38158922772832       15.10680506567292       12.51989818531562
C           17.28767543777979       15.08830010300403       11.71147832196760
C           17.51333467673166       14.03677611997533       10.74470319726087
C           16.61851611584149       13.70451908584877        9.74653084932781
H           15.70196593364405       14.27116771062889        9.69369279156950
C           18.43719189615832        9.97057809177505        7.31327279181611
H           18.08655825628265        9.34212929868475        6.50936288437408
C           22.42145700884172       10.21192500452021        9.99985860706150
H           23.34233278557575        9.65182190274369       10.04723497256590
C           20.50396501280548       13.79222322729780       12.58027140109992
H           20.80449435524842       14.36348668572891       13.44477747852106
C           15.73547595188274       10.52195917341371        5.99659928561720
H           14.77200426829793       10.93572352148168        5.71119234588620
H           15.59157528833727        9.47796603598139        6.27389181803679
H           16.39514699889550       10.55487856542144        5.12937754616979
C           14.52188219913677       13.06111057417286        7.62130726925635
H           14.69376725068037       14.12104421117264        7.43475140027632
H           13.89986074768882       12.96984641267591        8.51143142602091
H           13.97496815723116       12.64813490900019        6.77781728386436
C           20.19300517050727        7.63697878015590        6.34057911217674
H           20.33442838965351        8.04751892526476        5.33928429815344
H           19.15112448060369        7.33782713268443        6.43983737011360
H           20.82059391312246        6.75459364828953        6.44269276852408
C           22.87046977377994        7.87505595326765        8.09620479248797
H           23.34164779411179        7.68441991607197        9.05242195174989
C           23.39306359733120        7.34468284660487        6.99624309155026
H           22.98855040068605        7.53850659030059        6.01780205138369
H           24.26543847431612        6.71438172751511        7.03541669034672
C           24.57598236661069       10.93293269554087       12.05847806682289
H           25.01289005505614       10.75507201833948       11.07695094958531
H           24.50872448308130        9.97624543648829       12.57772916655361
H           25.23834884628948       11.58578669314591       12.62286581494699
C           23.24960395431374       13.27635151090002       13.81088217254716
H           22.99214915101242       14.32658489982314       13.87960196701044
C           24.02712623227986       12.73503393107177       14.74175334259832
H           24.26918586471796       11.68679313486631       14.74546112889867
H           24.42234605502557       13.32071580662861       15.55469795574994
C           18.68193309062443       15.98429123362976       13.68427624478657
H           19.58485556819172       16.56655823683818       13.50065449631812
H           18.84035057608729       15.38544609942957       14.58068063111441
H           17.86186088931562       16.67242272840405       13.87131644842553
C           16.06863242634697       15.94255843139122       11.75097544733131
H           16.13062608680541       16.66567831311986       12.55976177761677
H           15.17971337459253       15.33098673336882       11.90382058012565
H           15.95104957620288       16.48516802004820       10.81310078112900
O           18.69479854617666       10.79148520524890       11.05710884881538
O           19.36970190626623        9.79263358363947       11.47487835118900
C           20.14055802359313       13.15451942031127        6.59178285646574
H           20.82167358458469       13.48398433213345        5.81286606447963
H           19.15708202981501       13.58505831249467        6.43388213360030
H           20.06984830069454       12.07282896416421        6.62274662008626
S           20.72639284944718       13.77875253920548        8.20515182756105
H           21.83757046925000       13.04239957829897        8.24580499255475
