78
 energy: -115.960530645384 gnorm: 0.260609570394 xtb: 6.7.1 (edcfbbe)
Fe           4.82200000000000        4.25100000000000       15.29300000000000
N            6.37300000000000        4.84200000000000       16.25900000000000
N            5.96300000000000        2.65700000000000       14.51600000000000
N            3.33600000000000        3.61300000000000       14.29800000000000
N            3.80400000000000        5.82100000000000       15.85800000000000
C            6.51200000000000        6.00900000000000       17.03700000000000
C            7.83500000000000        6.06100000000000       17.68300000000000
C            8.57500000000000        5.05100000000000       17.17300000000000
C            7.66300000000000        4.29900000000000       16.32300000000000
C            7.30200000000000        2.46800000000000       14.71600000000000
C            7.70000000000000        1.23200000000000       14.05500000000000
C            6.58000000000000        0.68800000000000       13.53000000000000
C            5.45600000000000        1.57600000000000       13.87400000000000
C            3.12500000000000        2.37400000000000       13.67200000000000
C            1.77700000000000        2.16000000000000       13.11000000000000
C            1.10800000000000        3.28300000000000       13.45500000000000
C            2.04200000000000        4.08700000000000       14.21400000000000
C            2.47900000000000        6.08500000000000       15.55900000000000
C            2.06500000000000        7.35900000000000       16.12800000000000
C            3.10300000000000        7.80600000000000       16.85400000000000
C            4.22800000000000        6.86900000000000       16.67300000000000
C            5.47400000000000        6.93200000000000       17.27800000000000
H            5.66200000000000        7.74300000000000       17.98100000000000
C            8.11600000000000        3.22800000000000       15.53700000000000
H            9.17600000000000        2.97900000000000       15.57600000000000
C            4.14000000000000        1.43700000000000       13.49700000000000
H            3.86500000000000        0.50000000000000       13.01300000000000
C            1.66400000000000        5.30300000000000       14.78800000000000
H            0.64800000000000        5.65300000000000       14.60900000000000
C           10.04300000000000        4.72800000000000       17.51400000000000
H           10.31000000000000        5.19800000000000       18.48400000000000
H           10.71000000000000        5.13200000000000       16.72200000000000
H           10.17600000000000        3.62800000000000       17.59800000000000
C            8.25100000000000        7.04500000000000       18.78800000000000
H            8.02300000000000        6.60400000000000       19.78200000000000
H            7.68600000000000        7.99500000000000       18.67700000000000
H            9.34200000000000        7.24200000000000       18.72300000000000
C            9.20900000000000        0.83400000000000       14.05400000000000
H            9.56300000000000        0.71900000000000       15.10100000000000
H            9.80600000000000        1.62800000000000       13.55700000000000
H            9.34200000000000       -0.13100000000000       13.52100000000000
C            6.24400000000000       -0.59300000000000       12.79900000000000
H            5.20900000000000       -0.71400000000000       12.45300000000000
C            7.07600000000000       -1.63400000000000       12.51000000000000
H            8.13200000000000       -1.60600000000000       12.81600000000000
H            6.70100000000000       -2.51500000000000       11.96800000000000
C            1.33500000000000        1.01000000000000       12.23300000000000
H            0.95800000000000        0.18100000000000       12.87000000000000
H            2.19600000000000        0.64200000000000       11.63500000000000
H            0.51900000000000        1.34500000000000       11.55800000000000
C           -0.34400000000000        3.74700000000000       13.17500000000000
H           -0.57700000000000        4.82200000000000       13.17700000000000
C           -1.36400000000000        2.88700000000000       12.92300000000000
H           -1.18800000000000        1.80100000000000       12.90900000000000
H           -2.37900000000000        3.26600000000000       12.73000000000000
C            0.69200000000000        8.02100000000000       15.84100000000000
H           -0.12300000000000        7.34300000000000       16.17400000000000
H            0.58500000000000        8.20500000000000       14.75100000000000
H            0.61400000000000        8.97900000000000       16.39800000000000
C            3.18400000000000        9.20600000000000       17.48400000000000
H            2.25100000000000        9.41200000000000       18.05100000000000
H            3.29700000000000        9.97100000000000       16.68600000000000
H            4.04800000000000        9.25500000000000       18.18100000000000
O            5.49500000000000        5.39400000000000       13.43900000000000
H            5.89800000000000        4.74600000000000       12.86200000000000
H            5.40700000000000        6.26300000000000       13.27400000000000
C            1.85500000000000        1.10300000000000       19.24100000000000
H            1.60600000000000        1.64700000000000       20.17700000000000
H            2.17600000000000        0.07100000000000       19.49800000000000
H            0.95300000000000        1.07000000000000       18.59300000000000
N            4.25500000000000        2.04100000000000       19.08200000000000
H            4.54300000000000        1.73000000000000       19.98800000000000
C            2.99100000000000        1.83300000000000       18.51100000000000
C            4.98500000000000        2.72300000000000       18.19500000000000
H            6.03500000000000        2.98400000000000       18.32100000000000
N            4.18000000000000        3.01700000000000       17.13600000000000
C            2.92500000000000        2.47900000000000       17.30800000000000
H            2.13100000000000        2.60200000000000       16.58300000000000
78
 energy: -116.020826610747 gnorm: 0.112246886372 xtb: 6.7.1 (edcfbbe)
Fe           4.81965666648430        4.23803253601465       15.29665726120758
N            6.40398791029398        4.87081900059197       16.25431291449954
N            5.95373091421376        2.65047099842140       14.54356777003551
N            3.28482945168633        3.57559122041189       14.30971663216505
N            3.79072501379233        5.82252875141439       15.87694774389006
C            6.49568763282454        5.99257452987453       17.06991959516217
C            7.81847030081796        6.06893446477751       17.68787983089062
C            8.56002084734427        5.04646156471456       17.18158637037147
C            7.67261597834689        4.31271740245675       16.29457502211774
C            7.29061606592289        2.45515321603574       14.71971148150348
C            7.70537549888676        1.22842774444541       14.05450245836553
C            6.57254502628683        0.66257938543292       13.53313033682161
C            5.47184716551695        1.58215368873714       13.86007055259371
C            3.13325201482739        2.36028008089811       13.65510129846720
C            1.78597626103965        2.17418589296279       13.10969918015057
C            1.09116872940950        3.29974656370574       13.45843564635841
C            2.02501431492473        4.11542536514249       14.20767140928166
C            2.48561798305756        6.10004182564602       15.55663573637929
C            2.06695659551064        7.36566139074904       16.12140643895847
C            3.12249819433337        7.82904549211212       16.83403576622796
C            4.21329154807536        6.85863547466821       16.68193360087012
C            5.46492854516229        6.91381256232931       17.28034942358870
H            5.66153126938117        7.73584841350377       17.96153677706906
C            8.10577231403034        3.23324392517040       15.52899053026683
H            9.15814844497113        2.97784596451350       15.58083809875412
C            4.14823753797783        1.43353412041614       13.48484641458647
H            3.86828562717403        0.50231757289315       13.01038710518362
C            1.66156513165737        5.31901782252729       14.78340172161220
H            0.64861340761573        5.65992262605166       14.62199700521415
C           10.01052567678240        4.72670412478258       17.50735663493790
H           10.29519541008162        5.18604513803388       18.46119610949400
H           10.68540753917590        5.11948720640160       16.73429519733420
H           10.17034443351137        3.64603479282610       17.59137657216953
C            8.24030863250716        7.04119161099103       18.76873067473704
H            8.02361156990905        6.61301651960239       19.75739298006436
H            7.69790077866468        7.98606793628179       18.67872127532403
H            9.31621218554893        7.24212043060657       18.71724361837689
C            9.17878093857886        0.83076132358767       14.04905323056755
H            9.54453966008675        0.71849328201085       15.07794749762194
H            9.78109180099842        1.60917571827707       13.56337732435277
H            9.33812169228886       -0.11417358497195       13.52491746461919
C            6.26891434743677       -0.58884852602501       12.80391328602489
H            5.23809248136439       -0.69784079954433       12.46757002888065
C            7.07951735903392       -1.61330784863042       12.51774787698927
H            8.12076945314966       -1.61230961941230       12.81193003578210
H            6.71170596767340       -2.48685675561068       11.98518596076674
C            1.34615221789087        1.02306864380005       12.24828186209805
H            0.96774789200015        0.19336765113097       12.86136686174070
H            2.17970981539655        0.64816667112275       11.64377761829469
H            0.54208675894540        1.34226987249572       11.57433539281358
C           -0.32206149016621        3.72022263835099       13.17542587551534
H           -0.54248341345427        4.78877145725748       13.18048001857306
C           -1.33730929087991        2.88806283685259       12.92571770177055
H           -1.19564795992173        1.81473815742384       12.91667923383401
H           -2.34262506951840        3.25953096250406       12.73509673141099
C            0.71463093714987        8.00792427261154       15.85254707160015
H           -0.10380236336937        7.35113903898091       16.17230261606435
H            0.59517942366007        8.19906023533097       14.77859918948523
H            0.62251981277195        8.95875301773723       16.38730361609424
C            3.19256373911294        9.19175211766767       17.48607402692660
H            2.27133493259969        9.40369143906598       18.04240990556257
H            3.30146550579185        9.95662440081682       16.70680850831365
H            4.03955167469896        9.25870082976551       18.17358941250925
O            5.49442185712794        5.36943921716993       13.45337638437925
H            5.90328796222040        4.75213005641893       12.85005195906213
H            5.40839793086824        6.28554888455727       13.26230231962927
C            1.86646824937575        1.10903606532517       19.24546611483136
H            1.60695948375765        1.63617619992176       20.17012428636810
H            2.16965815512356        0.08606939278039       19.49583900486893
H            0.98025125838504        1.07213054642782       18.60484740932548
N            4.23166321680367        2.02831573476828       19.06612979256001
H            4.53104765756289        1.71626720740972       19.97581755484331
C            2.97220448170774        1.84023868927989       18.52977823794142
C            4.95402630219556        2.73218273067812       18.17360158093279
H            5.99448204108153        2.99020533948709       18.30344966601815
N            4.20247293219850        3.02493928048419       17.11594987502697
C            2.95930844823234        2.48329792216818       17.32371069886788
H            2.16933058229279        2.59940794438274       16.60095958210194
78
 energy: -116.039400118801 gnorm: 0.031318132371 xtb: 6.7.1 (edcfbbe)
Fe           4.81668589854375        4.21628965026618       15.30564303149999
N            6.42735310352526        4.88995117179006       16.26247519347776
N            5.93877715983116        2.64515386639968       14.56776240325747
N            3.24226735831196        3.54791878459308       14.30152106163707
N            3.77721347078628        5.81936044461557       15.89754560699352
C            6.48647883925491        5.98123084919931       17.08676119252009
C            7.80091731537459        6.07041834354178       17.69732658385737
C            8.54648216592988        5.04907232359473       17.18497145153792
C            7.67724607184799        4.32870044169394       16.27394489580496
C            7.27396013847138        2.44590595301207       14.72822718698990
C            7.70116420662788        1.23153534454772       14.06053763970824
C            6.56117833434625        0.65649543208239       13.53583092044148
C            5.47466277164423        1.58433797228432       13.86155095353735
C            3.13051899821159        2.35047401039662       13.64755843574177
C            1.79425710412621        2.18120000666641       13.10713394069962
C            1.08271633488915        3.30411492828607       13.45564547781765
C            2.01104943468621        4.12639320078421       14.20764298761116
C            2.49134332160479        6.10755445878527       15.55943021985346
C            2.07539254870111        7.37016771493826       16.11627971512841
C            3.14228033920927        7.84226744201359       16.82164873164579
C            4.20229678038430        6.84857598177189       16.68594450525585
C            5.45976848156329        6.89889222005852       17.27574321267786
H            5.66117998417384        7.72817066771623       17.94168831183952
C            8.09181411868374        3.24103624891851       15.52367189723913
H            9.13770424397027        2.97609561228244       15.58780798365119
C            4.14808823462993        1.42827280026156       13.48392956219885
H            3.87124081974838        0.50806819404008       12.99595129024102
C            1.65889125391389        5.32465115485077       14.78609926074244
H            0.65048621487720        5.66977924659524       14.63228787481841
C            9.97737629758262        4.72784576430566       17.49970961218824
H           10.26968801259051        5.18000960005157       18.44572810739738
H           10.64974094991260        5.11287363687289       16.73050639760685
H           10.14315631776987        3.65581329404125       17.57896244159671
C            8.22540558614090        7.03744044851356       18.75485402833009
H            8.01671952743115        6.62036751333126       19.74275534497295
H            7.69761125873979        7.98126032661323       18.67115129484114
H            9.29314598570346        7.23730369990261       18.69980624195441
C            9.14212636892609        0.82681172289763       14.04525307600981
H            9.51601966656563        0.71182660327150       15.06367748586548
H            9.74664832722653        1.59854534406917       13.56555867284530
H            9.31072628347320       -0.10483740042025       13.51934578089526
C            6.29126862231324       -0.57196290788007       12.81512587812529
H            5.26457739753792       -0.67106071917022       12.48129346485484
C            7.09409600967713       -1.59141046695333       12.53344831920123
H            8.12920592968775       -1.61646276248794       12.81523895945569
H            6.73077300977060       -2.45532703891299       11.99906356080438
C            1.35372539719814        1.03426916234925       12.25757867230676
H            0.97767787691484        0.20935482127638       12.86511859376068
H            2.17605661162257        0.65784470888328       11.65376200882977
H            0.55657980523271        1.34865011911998       11.58637459739742
C           -0.28714290895709        3.69162627334059       13.17435410304824
H           -0.49091630619314        4.75784843861033       13.18528039276864
C           -1.30901200280312        2.87945429576921       12.92910385552835
H           -1.20273577669183        1.81054744052586       12.92707029558531
H           -2.30280976325250        3.25420888303310       12.73495016542003
C            0.74302492525861        8.00024387951064       15.86271560292387
H           -0.07173855000494        7.34929517412607       16.17871906497678
H            0.61266662891079        8.19414469607915       14.79707667601521
H            0.64459020689538        8.94506070419095       16.38938376941949
C            3.20941442311761        9.17751773692752       17.48701470061894
H            2.29209891321916        9.38329824241137       18.03685834852827
H            3.31542629394642        9.95284175938026       16.72636737990538
H            4.04504556172702        9.25183724552762       18.17245514634306
O            5.48471587773927        5.34768134154657       13.47004056066794
H            5.91085930995327        4.77706517833826       12.82825713954388
H            5.41129607353068        6.27865063722452       13.25683725433012
C            1.87704102255943        1.12022408185448       19.24365343088896
H            1.61038219847784        1.63046984392998       20.16740110535960
H            2.17702462183464        0.10335497156821       19.48928684386166
H            0.99806163233999        1.07640329669484       18.60934380881805
N            4.21698668938249        2.02183646862055       19.05015843903059
H            4.52720103827381        1.70660507005897       19.95769491789617
C            2.95935394964649        1.85020708104348       18.53592686859055
C            4.93322661810297        2.73724796542142       18.15204722527244
H            5.96419787252842        2.99846968515662       18.28893915245174
N            4.21381881036398        3.03705250903241       17.10503363983681
C            2.98269988419031        2.48938905621543       17.32773651572543
H            2.19448246601814        2.59817810820069       16.60941952897952
78
 energy: -116.043355616232 gnorm: 0.018915040894 xtb: 6.7.1 (edcfbbe)
Fe           4.81472675506358        4.20404776883306       15.30937729626811
N            6.42783990001378        4.89750207293382       16.26291393336591
N            5.91815491604210        2.63698843679232       14.59353034618896
N            3.22406352179126        3.52960225477045       14.31086592836165
N            3.77175092990680        5.80926027657903       15.91084799017614
C            6.47610451102972        5.97186999304181       17.09937331572702
C            7.78803314349822        6.07025143111285       17.70468783544759
C            8.53362615077124        5.05429314296753       17.18611268145152
C            7.66976576137171        4.33665309734110       16.27298635300287
C            7.25429880679344        2.44232077211206       14.74877514065405
C            7.68419629892173        1.23585982963332       14.08083012018493
C            6.54898978340680        0.66188354116348       13.54965300273517
C            5.46242500635303        1.58195343100569       13.87342567462128
C            3.12471677219144        2.34427317827065       13.64634513235963
C            1.79673807357363        2.17483791639293       13.10564881062137
C            1.08451573002493        3.29493647947700       13.45549440174398
C            2.00559408140210        4.12167173765057       14.21282427807702
C            2.49434981060071        6.10550509697329       15.56243935510234
C            2.09144538628445        7.37452131649206       16.11073839788765
C            3.15984766796011        7.84411897402988       16.81497100961369
C            4.20128692818491        6.83856128365207       16.69097431577135
C            5.45344008432820        6.88854224568167       17.28426007146387
H            5.65965097636500        7.72921970323130       17.93309171676160
C            8.07683530791980        3.24297934856423       15.53150694730152
H            9.12016031308089        2.97172533737043       15.59732152990584
C            4.14358867872306        1.42486047755544       13.47903983284452
H            3.87347479674471        0.51291624273524       12.97101795791080
C            1.65822167789652        5.32405973141073       14.78906099551211
H            0.65192437541230        5.67879772132767       14.63796879574276
C            9.95658909499135        4.72612725148699       17.49224757235576
H           10.25308454534255        5.17597279286986       18.43725965249715
H           10.61985062749207        5.10760381825310       16.71424968844649
H           10.11025773535776        3.65194740759869       17.56566161801441
C            8.21277009858724        7.04601758511074       18.74851025600341
H            8.00754640278758        6.63965548369188       19.74147264697542
H            7.68526003674693        7.98997947507730       18.65630973353800
H            9.28010720795957        7.24316574700497       18.68080347982229
C            9.11567901479265        0.82342839774114       14.04513747250431
H            9.49485068317972        0.69257447717992       15.05961421141272
H            9.71731733488337        1.59805082226428       13.56646102008273
H            9.26727680426585       -0.10217737427175       13.50331438874077
C            6.30778068299217       -0.55916784536043       12.81992018566031
H            5.28689813369306       -0.66185256774424       12.47494940917251
C            7.12338357577627       -1.57247416323344       12.54208607268518
H            8.15440990713756       -1.60947909625276       12.83967422538710
H            6.76374093168668       -2.43449642946439       12.00486497026276
C            1.35529568382243        1.03358700560536       12.25714094127475
H            0.98154962033364        0.21217238516993       12.86975171966171
H            2.17812710380785        0.65806165903776       11.65344684546570
H            0.55805964064270        1.35293903766719       11.58967153100293
C           -0.27400053362899        3.67331695113943       13.16719689610485
H           -0.46604215563548        4.74035886197447       13.17261503071880
C           -1.29868265876615        2.86217483494033       12.92417151200733
H           -1.20757010623537        1.79061264932050       12.94654282579670
H           -2.28530326045073        3.24560837563917       12.72357519992000
C            0.76290523357299        8.00429971041919       15.87183933679238
H           -0.04417043467007        7.34711651523530       16.19511247037525
H            0.62523587660121        8.19957458728642       14.80742633017467
H            0.67246525531322        8.94670547679205       16.40372643780048
C            3.23536137339841        9.16838248003059       17.49644507014397
H            2.31643151993441        9.36397498957921       18.04737002843481
H            3.34579497243948        9.95908088460327       16.75091751065669
H            4.07010130745344        9.23118742306393       18.18535754885858
O            5.46706157791051        5.33146955927751       13.46760675320175
H            5.92375740690510        4.80225969244211       12.80569110084049
H            5.41354865192164        6.26684555575708       13.26008285050788
C            1.88469906033276        1.13094199645048       19.23643565221860
H            1.61846642730966        1.63321484695192       20.16600147180611
H            2.19492342216131        0.11536174275138       19.47795708701135
H            1.00245346988044        1.08206962255079       18.60685213335551
N            4.21925201143301        2.02777023995165       19.03392393341827
H            4.53472800105578        1.70263086767569       19.93502779322313
C            2.95810650862154        1.86607135127385       18.52351315958433
C            4.93314962498517        2.74745844562533       18.13660340774283
H            5.96034274921452        3.01444381055306       18.27856022747928
N            4.21514534810314        3.04324803552322       17.08716369025637
C            2.98283176260012        2.50385099118386       17.31496271200474
H            2.19440657630385        2.60632079347444       16.59869102179302
78
 energy: -116.045684643096 gnorm: 0.016214289994 xtb: 6.7.1 (edcfbbe)
Fe           4.80942342310889        4.18716851856240       15.31858258973073
N            6.41862941034483        4.89665345645935       16.27050489693205
N            5.89357155326921        2.63086933588494       14.61873204324710
N            3.21055645811493        3.51275007177586       14.32216439263186
N            3.76887378243266        5.79673737737890       15.92017313804858
C            6.46684216896282        5.96511198669240       17.10736675677503
C            7.77521380149736        6.06831282939752       17.71378615422185
C            8.52078466235552        5.05749034837706       17.19035912547983
C            7.65814305770650        4.34035674542498       16.28005801151816
C            7.23069221914111        2.43964504999969       14.77511071378385
C            7.66353089571908        1.24174543660237       14.10441615682541
C            6.53563116587816        0.66855789945899       13.56512053744937
C            5.44567008059142        1.57897945097169       13.88823877004948
C            3.11579624671107        2.33624126259613       13.64923802834246
C            1.79487432749399        2.16716509487340       13.10298854950673
C            1.08388548511165        3.28432629272378       13.45732439781330
C            1.99988863538978        4.11193246685115       14.22123539128769
C            2.49665097680578        6.10068850153264       15.56450112239695
C            2.10742391054506        7.37791935406944       16.10599060147329
C            3.17642557842872        7.84131374857448       16.81041450327568
C            4.20352193490214        6.82900317319353       16.69235618428147
C            5.44940656802729        6.88383795356441       17.28950322228756
H            5.65502650460951        7.72770256462554       17.93153343337821
C            8.05940144498948        3.24105871854498       15.54586093948561
H            9.10082091201910        2.96355804047189       15.60877530783379
C            4.13638737708643        1.41958789694504       13.47565508326976
H            3.87646139879612        0.51829211834940       12.94141821734688
C            1.65684239193030        5.31969655897524       14.79362870978833
H            0.65434944437712        5.68700838973723       14.63926580082554
C            9.94184088746864        4.72211539294292       17.48433542611561
H           10.24933407144522        5.17031975864444       18.42642848215601
H           10.59740432713179        5.09615860719147       16.69599246129059
H           10.08193935442461        3.64518533754884       17.55539366902940
C            8.19968582235578        7.05946810115265       18.74285755716030
H            7.99566632702057        6.67237534876757       19.74416885347748
H            7.67101245817991        8.00257626643528       18.63330928776053
H            9.26708493133300        7.25541100635579       18.66544709813874
C            9.09193412167256        0.82429346890755       14.05000726610257
H            9.48096216889289        0.66674572308266       15.05764204636078
H            9.69174626637639        1.60375857463034       13.57709582694577
H            9.22416183674852       -0.09091376036923       13.48427241490971
C            6.32232342889388       -0.55217501238019       12.82796437616495
H            5.31258272109192       -0.65881285643071       12.45190110589607
C            7.15314155653663       -1.55960484334950       12.56464364736935
H            8.18047172784151       -1.59926190934734       12.87590676323585
H            6.80852642593571       -2.40900668520556       11.99700285661710
C            1.35211448767543        1.02993987957856       12.25311155996748
H            0.98106678674423        0.20856945573912       12.86800148770791
H            2.17467608115356        0.65456703821029       11.64756607465568
H            0.55301893270291        1.35213243805405       11.58925798968175
C           -0.27419063321995        3.65737026433637       13.16108437884145
H           -0.45806873058477        4.72530024605572       13.14270117807861
C           -1.29729473741166        2.83980201181104       12.92814127653831
H           -1.20813722647800        1.76864916861830       12.96349270751614
H           -2.27607522036288        3.22810784970209       12.70172151993556
C            0.78027397172134        8.01433197793031       15.88185186948384
H           -0.02132860896645        7.35432048888732       16.21486697911245
H            0.63007277444544        8.21457752879478       14.81977608800782
H            0.70223861105927        8.95398515782966       16.42157349857191
C            3.26567353949542        9.15510037817354       17.51177449558082
H            2.34906604094400        9.34640982645754       18.06900619458914
H            3.38577984738932        9.96214192073849       16.78403255673119
H            4.10258061462056        9.19479779870275       18.20254071866798
O            5.41853704868009        5.30564228971040       13.45164494547543
H            5.94762596067385        4.82824602434629       12.79539498595177
H            5.43250438846760        6.25169050494107       13.27077104133339
C            1.89587680774857        1.14341024752625       19.22463438958652