78
 energy: -116.058078165683 gnorm: 0.000026105846 xtb: 6.7.1 (edcfbbe)
Fe           4.77905298905435        4.19925186029839       15.25211847338161
N            6.39730545053670        4.90195756411409       16.22306919747359
N            5.88080186207132        2.65850670652969       14.56100227990737
N            3.19947077402511        3.52956669940917       14.23804156189390
N            3.72173620361911        5.75885227087346       15.89767246746904
C            6.45657986353028        6.00239218619989       17.01959192326011
C            7.77925744498484        6.15701913376585       17.58055279989763
C            8.52080409092766        5.11925558396234       17.10647325384273
C            7.63924344946615        4.34228387594684       16.26496222168292
C            7.19366489966689        2.40068261497637       14.82524482026969
C            7.61162503744882        1.17556722799487       14.19713416127210
C            6.50958216184794        0.67859426335271       13.55031855340694
C            5.44301214031593        1.63016279505419       13.78755692163132
C            3.12711979034544        2.39246706557849       13.49424410050242
C            1.80941553549005        2.22941725971177       12.93193022201555
C            1.07527240424269        3.30327901427586       13.35803657030631
C            1.97323320143674        4.10303273004674       14.17020358637056
C            2.42178344063820        6.03106499334366       15.61652639589744
C            1.99519000904397        7.24367416554905       16.28250192651783
C            3.07267309857542        7.69522510640081       16.97633404881631
C            4.14193018689376        6.75260964322992       16.72302363373779
C            5.40973561959207        6.87317544522867       17.25800320336385
H            5.59969868001574        7.71260572046715       17.90906869981404
C            8.02137531359864        3.18690669193020       15.61093642100102
H            9.04063771359933        2.85757586865062       15.74361976280615
C            4.15971289733777        1.49399826595969       13.29524162677404
H            3.94390574308353        0.61428259630337       12.70868026217942
C            1.59655376524721        5.26669393253540       14.81466578681010
H            0.57873647981422        5.60263988111634       14.68706816374635
C            9.95204024959325        4.78759172308669       17.35870406238651
H           10.40793709655567        5.52118893915012       18.01890088288429
H           10.51362616948389        4.77248812621598       16.42413482141050
H           10.04397800398048        3.80515601411710       17.82296200409628
C            8.18143232315198        7.26580818767756       18.49127885060867
H            7.56633814895025        7.26387290149366       19.39132784824976
H            8.05590241950471        8.23056654335412       17.99915955105857
H            9.22279052212443        7.16588751632925       18.78757873119995
C            8.99823064653740        0.63233418954047       14.21343249043647
H            9.18596835479239        0.06527523547559       15.12699650981272
H            9.72942536266135        1.43780583578524       14.16131996470950
H            9.14872281691470       -0.02956543709291       13.36296631624657
C            6.38360138785329       -0.51932766259580       12.75055125322263
H            5.68774456698991       -0.45761596826402       11.92191898543495
C            7.03480744809681       -1.65921151485865       12.95856970900113
H            7.70130664286088       -1.79568375497889       13.79223333791776
H            6.90097125950957       -2.51003364574890       12.31130832068576
C            1.39966575238635        1.13452276439350       12.00997688308435
H            1.15591392297628        0.22754411449764       12.56587690354726
H            2.20225755302743        0.89707699021090       11.31324500889588
H            0.52276953238870        1.43523772449034       11.44038858008705
C           -0.30004598757983        3.64521037077759       13.06948057040093
H           -0.51098320439721        4.70520652755768       12.98798153239240
C           -1.29331351143666        2.77666643907236       12.90959417126622
H           -1.15126803607327        1.71630801280057       13.02588666542808
H           -2.29481956566649        3.10157258882140       12.68071357593185
C            0.62686585454533        7.82412708505152       16.17617970105337
H           -0.12059270224838        7.11447464916778       16.53194359200893
H            0.39519033845955        8.06747191804143       15.13913657276178
H            0.54481351886825        8.73295453561740       16.76728630308402
C            3.20384277695285        8.90429037874424       17.83771098590223
H            2.26590169004781        9.45243023026482       17.88005966389822
H            3.97307155651437        9.57108619717175       17.44745651764042
H            3.48341667539420        8.62328297384625       18.85341331410797
O            5.53452597303589        5.37759674887368       13.43432732032662
H            5.96465340897560        4.66672376158668       12.94664896100730
H            6.23056778414001        5.89220667267198       13.85729014639510
C            1.99160759575805        1.70956721780898       19.38811531468299
H            2.21009443569888        2.01741548952974       20.41065523856401
H            1.91388839238242        0.62261293952683       19.36865250382802
H            1.03605750429114        2.13210691130182       19.09396820792226
N            4.35994423071164        1.79684510302359       18.57901958365633
H            4.73026588713330        1.17928694978150       19.28261288643706
C            3.04956787749869        2.17902099730265       18.45813957746898
C            5.05431793495462        2.39459287860278       17.58491211789377
H            6.10713102485761        2.27593238474478       17.43302040673521
N            4.26414442956199        3.13164824565177       16.84290726663269
C            3.01360972276436        3.00808444634792       17.37375276087497
H            2.17800396806509        3.51961736123585       16.94248048067551
