72
 energy: -105.980208032351 gnorm: 0.000109941713 xtb: 6.7.1 (edcfbbe)
Fe           9.88291994118402      -13.00361019934082      -23.10972185978671
N           11.16672096432360      -12.42133457706628      -21.70427681265308
N            8.41712432106345      -13.08838639247053      -21.75084848177686
N            8.61662040979467      -13.68820077489022      -24.51571048230005
N           11.35509312575904      -12.97060096062771      -24.46843355509387
C           12.47317737071350      -12.09530463730878      -21.87465256927279
C           13.07805499568073      -11.72778160794184      -20.61217195847373
C           12.10397640886038      -11.85162502280956      -19.67282945207759
C           10.91474990972434      -12.28174873850177      -20.37661966713657
C            8.52956821677274      -12.85155968792968      -20.41612795593046
C            7.25477508395332      -12.99483563785582      -19.76066241277446
C            6.35317309553220      -13.31983869197937      -20.73872839909230
C            7.11186621267493      -13.39353703002933      -21.97218742778250
C            7.27812488068707      -13.89722488668208      -24.36907150898302
C            6.69894833696827      -14.36146114991637      -25.60011993380186
C            7.72800718323397      -14.46490722338867      -26.49816900420744
C            8.91184524487797      -14.00204466614538      -25.80530295147327
C           11.25806418726958      -13.28689285202616      -25.78781504821555
C           12.50833642906063      -13.02937416432975      -26.46701953088279
C           13.36057138643948      -12.54155367971848      -25.52640055783145
C           12.62132279997670      -12.51249768404649      -24.28431928693875
C           13.15449707035657      -12.10633071419982      -23.07681637906260
H           14.18487697650880      -11.78688442034016      -23.06937296414139
C            9.69480348430973      -12.48525429259874      -19.76521140775505
H            9.64159823109696      -12.33006496955113      -18.69890082075829
C            6.56515828738479      -13.73258602129370      -23.19435570258502
H            5.50341153642004      -13.91940262893427      -23.23356795177320
C           10.13545144144110      -13.79217446990641      -26.41355265113619
H           10.20314749401377      -13.99891853500131      -27.46943664771538
C           12.16879077911492      -11.60889651290757      -18.20450014802732
H           13.17026865701825      -11.30928658427450      -17.90616767516084
H           11.90357037287784      -12.51297168812837      -17.65651456429193
H           11.47384305594151      -10.82046963823455      -17.91378012430874
C           14.50005968920113      -11.31371498074351      -20.45188996996021
H           14.71375971396326      -10.43257871388848      -21.05736783702690
H           15.16939262825066      -12.11306523819656      -20.77027088518373
H           14.71896775897066      -11.07700799612228      -19.41371684504086
C            7.02764850191318      -12.86984164397467      -18.29520452528070
H            6.93304449016774      -11.82275124483790      -18.00189835823834
H            7.85858362796406      -13.30207111482932      -17.73998608650720
H            6.11345936282568      -13.38869883372105      -18.01462326520797
C            4.93636415589059      -13.58750196789034      -20.62427742694329
H            4.54415204167931      -14.33678583914902      -21.30185120564153
C            4.10742422214526      -12.98868087089476      -19.77573864829526
H            4.43245057283234      -12.20559411596711      -19.11305853617186
H            3.06232520139099      -13.24635464266986      -19.73319550471534
C            5.26452726548384      -14.71233971471419      -25.79042854529672
H            4.62420008259533      -13.87430297121239      -25.51445726371131
H            4.99120726442856      -15.56474881483790      -25.16724446700648
H            5.06953114687564      -14.97385858369042      -26.82725354672611
C            7.64710689048378      -14.94265988081027      -27.86307437223970
H            6.74633471912802      -14.66331219791290      -28.39840121256039
C            8.54705169712182      -15.70819871735385      -28.46933694106041
H            9.43302336290456      -16.05841861047625      -27.96694861930972
H            8.41613300454789      -16.03255081851121      -29.48814503624064
C           12.73904551965505      -13.27391199698708      -27.91800045426240
H           12.04445707638298      -12.68661369525980      -28.51842739683066
H           12.58713898553007      -14.32617507076615      -28.15974380806875
H           13.75282231877961      -13.00081594457752      -28.19968339677425
C           14.77868033182086      -12.10843893936603      -25.66850433640132
H           15.11283240362295      -12.21141287760792      -26.69776481942337
H           15.42947913468401      -12.71086322646655      -25.03414574684014
H           14.89032775235049      -11.06508500837115      -25.37365961936382
O           10.40830243412878      -15.15822530655240      -22.75750141817514
H            9.69259873734506      -15.59384164449114      -23.23482239899563
H           11.20049348467325      -15.23770460628501      -23.30139875235898
C            9.30756194114751       -9.78712456580723      -22.17798961304973
H            8.75908083997504       -8.86798669728293      -22.35981237846945
H           10.35008399585058       -9.56742722833300      -21.97284168155921
H            8.88074291359651      -10.34641761574827      -21.35243030149494
S            9.27917304847797      -10.81055989169086      -23.69146029387019
H            7.95197379014176      -10.98179743161704      -23.69607859250603
