72
 energy: -105.897027883725 gnorm: 0.277270458245 xtb: 6.7.1 (edcfbbe)
Fe          -6.11400000000000       24.88900000000000      271.39200000000000
N           -4.41200000000000       23.78700000000000      271.21899999999999
N           -5.79100000000000       24.93000000000000      273.48899999999998
N           -7.98300000000000       25.78100000000000      271.75500000000000
N           -6.56300000000000       24.57600000000000      269.52699999999999
C           -3.84000000000000       23.46500000000000      270.02100000000002
C           -2.58600000000000       22.85500000000000      270.24099999999999
C           -2.39900000000000       22.84100000000000      271.57699999999994
C           -3.51800000000000       23.43800000000000      272.18200000000002
C           -4.76700000000000       24.38300000000000      274.09899999999999
C           -4.88200000000000       24.66300000000000      275.47399999999999
C           -5.99800000000000       25.43100000000000      275.63499999999999
C           -6.57000000000000       25.59100000000000      274.31000000000000
C           -8.36800000000000       26.41900000000000      272.86500000000001
C           -9.50800000000000       27.16100000000000      272.56700000000001
C           -9.80800000000000       26.88500000000000      271.26900000000001
C           -8.85100000000000       26.00800000000000      270.75700000000001
C           -7.70300000000000       24.87100000000000      268.93900000000002
C           -7.64000000000000       24.48300000000000      267.52499999999998
C           -6.42300000000000       23.96300000000000      267.35199999999998
C           -5.74000000000000       24.04300000000000      268.64600000000002
C           -4.42700000000000       23.61300000000000      268.79000000000002
H           -3.84500000000000       23.38600000000000      267.89699999999999
C           -3.71700000000000       23.63400000000000      273.53300000000002
H           -3.00500000000000       23.17200000000000      274.21699999999993
C           -7.70900000000000       26.34200000000000      274.05700000000002
H           -8.11400000000000       26.92300000000000      274.88599999999997
C           -8.81800000000000       25.49700000000000      269.47199999999998
H           -9.70900000000000       25.59100000000000      268.85100000000000
C           -1.18300000000000       22.30600000000000      272.26699999999994
H           -0.29700000000000       22.43200000000000      271.60800000000000
H           -1.32000000000000       21.22500000000000      272.48500000000001
H           -1.01100000000000       22.86500000000000      273.21199999999999
C           -1.58000000000000       22.34600000000000      269.21800000000002
H           -0.77100000000000       23.09600000000000      269.08800000000002
H           -2.08500000000000       22.18800000000000      268.24099999999999
H           -1.13400000000000       21.39300000000000      269.57299999999998
C           -3.92500000000000       24.20800000000000      276.52999999999997
H           -3.12700000000000       24.97000000000000      276.66100000000000
H           -3.45900000000000       23.24700000000000      276.22499999999997
H           -4.46200000000000       24.08000000000000      277.49399999999997
C           -6.60300000000000       25.99400000000000      276.84099999999995
H           -7.69100000000000       26.14900000000000      276.88999999999993
C           -5.89600000000000       26.32300000000000      277.87200000000001
H           -4.80500000000000       26.18500000000000      277.86799999999999
H           -6.37700000000000       26.74500000000000      278.76700000000000
C          -10.21100000000000       28.04400000000000      273.55599999999993
H           -9.51800000000000       28.29400000000000      274.38799999999998
H          -11.09500000000000       27.51400000000000      273.97100000000000
H          -10.53100000000000       28.98400000000000      273.05799999999999
C          -10.89700000000000       27.38800000000000      270.44400000000002
H          -10.90100000000000       27.15900000000000      269.36799999999999
C          -11.87300000000000       28.09500000000000      270.89400000000001
H          -11.92600000000000       28.35800000000000      271.96099999999996
H          -12.66700000000000       28.44500000000000      270.21800000000002
C           -8.75000000000000       24.59900000000000      266.53399999999999
H           -9.05600000000000       25.66300000000000      266.44200000000001
H           -9.62200000000000       24.00200000000000      266.87599999999998
H           -8.40700000000000       24.23600000000000      265.54199999999997
C           -5.84700000000000       23.40300000000000      266.08499999999998
H           -5.33500000000000       24.21200000000000      265.52100000000002
H           -6.66100000000000       22.98400000000000      265.45600000000002
H           -5.10800000000000       22.61000000000000      266.32700000000000
O           -7.07200000000000       22.68500000000000      271.74700000000001
H           -6.34300000000000       22.06800000000000      271.68599999999998
H           -7.92300000000000       22.48000000000000      271.90199999999999
C           -3.53400000000000       26.97100000000000      270.72500000000002
H           -2.82800000000000       27.10200000000000      271.57299999999998
H           -3.31500000000000       27.75800000000000      269.97199999999998
H           -3.34700000000000       25.97400000000000      270.27300000000002
S           -5.25100000000000       27.09400000000000      271.27600000000001
H           -5.06000000000000       26.42000000000000      272.40100000000001
72
 energy: -105.947855353903 gnorm: 0.104879216620 xtb: 6.7.1 (edcfbbe)
Fe          -6.16396750651754       24.79577716871981      271.42677379328683
N           -4.40422986201458       23.81458425618011      271.20647203647098
N           -5.79153293876447       24.93263129139962      273.45107974552138
N           -7.94849341107916       25.75932738959841      271.73717766714526
N           -6.55244990239324       24.58812837733537      269.52921328045414
C           -3.83435247574445       23.46835524617742      270.01676388733586
C           -2.56388081739122       22.85564654053489      270.23682480656100
C           -2.37999577824003       22.83491720724408      271.58297345839799
C           -3.52569509868943       23.43869853050641      272.18068615044689
C           -4.76607270670143       24.36815380956813      274.09992887303071
C           -4.88174401282470       24.66091234781523      275.49437222566269
C           -6.00679379232269       25.42784473388881      275.64711096361754
C           -6.56876776606259       25.58827711428949      274.31877721651773
C           -8.34598497342854       26.42100998721292      272.84873276120766
C           -9.52214288461485       27.16817518988150      272.56702786943583
C           -9.83400752389920       26.89240983630233      271.26185843376300
C           -8.84289256475095       26.00288502469692      270.75866733093818
C           -7.71325764627795       24.86951477048526      268.92604747175875
C           -7.65052614035520       24.47375645714459      267.52114654919421
C           -6.41670269680626       23.96333450128976      267.33523325189714
C           -5.73045229639737       24.05263259627352      268.61886166963802
C           -4.42917827850402       23.61791819349435      268.78249378435572
H           -3.85530622665792       23.37204035528586      267.90077402710398
C           -3.72483013680687       23.63246067806729      273.53439383252413
H           -3.00453406523713       23.19047628354155      274.21135762421130
C           -7.69819330262355       26.34128115682905      274.06143858781132
H           -8.11154102111802       26.90595655752938      274.88780766188000
C           -8.81392716855062       25.49103515779021      269.47252393146698
H           -9.69257802461360       25.60372260977089      268.85190180958159
C           -1.17519186150899       22.30435794782832      272.27715336015928
H           -0.30097383299709       22.42522968108341      271.62924333802266
H           -1.30634406599670       21.23756367100378      272.49389261782437
H           -1.00276830256578       22.84790532649852      273.21006276846026
C           -1.58548988747057       22.34942117087863      269.21696226099306
H           -0.78068939273905       23.08265500897552      269.08398986776677
H           -2.07261721559933       22.18630453100199      268.25181496519338
H           -1.14310216487933       21.40848727109461      269.55956517897209
C           -3.92448784821065       24.20523612491521      276.53904039280019
H           -3.13062193999057       24.95223839983618      276.66867321957585
H           -3.46228822656658       23.25786588028645      276.24440270499662
H           -4.44712553186992       24.07270048004433      277.49046771848657
C           -6.60310038337340       25.98618004659613      276.84441044918731
H           -7.68085380627669       26.14004067489138      276.86921205571275
C           -5.88752455130007       26.32851787797648      277.89931208128399
H           -4.81242112159552       26.21149879230604      277.89639327729833
H           -6.35804854938056       26.74693636237969      278.77954597548137
C          -10.20890220808612       28.04714644256667      273.55827949471728
H           -9.53202782087650       28.29442133808347      274.38131706376646
H          -11.08691179021538       27.53344602972807      273.97061383348108
H          -10.51976592355140       28.98229792373976      273.08352025171803
C          -10.90874635612480       27.39293713169818      270.43818299099496
H          -10.88774463257921       27.15532306620363      269.37653131640280
C          -11.91284467053196       28.11498689760297      270.89250021394946
H          -11.98165004070857       28.36530010421473      271.93863173883591
H          -12.68911736026790       28.46239677701924      270.22734293447490
C           -8.75565959438107       24.60179042236737      266.53512513347425
H           -9.06093022999072       25.64969565110741      266.43841908860253
H           -9.61942060030351       24.01221663866251      266.86221730305675
H           -8.42481385978411       24.24448360811775      265.55531162500620
C           -5.84107109751476       23.40285454673311      266.08040938610333
H           -5.33551866214120       24.19626552793120      265.51719072337545
H           -6.63843518756181       22.98465055562167      265.45847981741400
H           -5.11736693376950       22.61570790429775      266.30989325652934
O           -7.04765831491275       22.71083059048969      271.73918677634072
H           -6.34678622504071       22.06429323446821      271.68936936199844
H           -7.94098884738392       22.47269773771492      271.90750284743461
C           -3.51312567871486       26.96689773863153      270.71811870858517
H           -2.83650590981397       27.10676923055281      271.56701891252709
H           -3.32188300153068       27.74779254539251      269.97669430405506
H           -3.34290236393518       25.98341566890328      270.27125219835307
S           -5.24076190991950       27.08736547816368      271.25634616003987
H           -5.05278107865148       26.44401459353800      272.40798162533054
72
 energy: -105.961616022640 gnorm: 0.030879670699 xtb: 6.7.1 (edcfbbe)
Fe          -6.17610992072793       24.77314536110914      271.44377393477191
N           -4.40836267737307       23.82792553850339      271.19810887075471
N           -5.80911586072916       24.90939662898905      273.42120696332734
N           -7.92264069619140       25.73333773748569      271.72034681471234
N           -6.54986999049470       24.57843222240705      269.53578675237895
C           -3.83314746542812       23.47459387952073      270.01638124776906
C           -2.55084214615589       22.86149315676346      270.23807096383956
C           -2.37103648434071       22.83476379731365      271.58926374665833
C           -3.53827244286084       23.44087335753424      272.17788199701505
C           -4.77623572584286       24.34617642478255      274.10147893237325
C           -4.88321843673857       24.65305422328806      275.50606850030937
C           -6.00943527323404       25.42229988002792      275.65394013717241
C           -6.57399001620567       25.56813889497666      274.32731113789947
C           -8.32554161986390       26.41248892091577      272.83158962803930
C           -9.52303520737666       27.16545246819501      272.56628655595733
C           -9.85559492483277       26.89192652666815      271.25999515336082
C           -8.83873858052293       25.99418447223158      270.76147306953374
C           -7.72244810649458       24.85406432749890      268.91609155994945
C           -7.65874896537101       24.46220700751740      267.51953049261067
C           -6.41214537387169       23.96688107961854      267.32021166501835
C           -5.72860689169746       24.05367624740029      268.59596441065611
C           -4.43258288963333       23.62190190395210      268.77954172177061
H           -3.86565034312349       23.34506241036787      267.90618737329265
C           -3.73359665774049       23.63382798089439      273.53337459128346
H           -2.99539735178769       23.21747445963111      274.20219707981897
C           -7.69249653324790       26.32965514699769      274.05995274761722
H           -8.11527349501866       26.88265972178367      274.88372068806132
C           -8.80925529498833       25.48573673386052      269.47361643847933
H           -9.67428729471606       25.62756157381889      268.84640796102616
C           -1.17212771122109       22.30464623299099      272.29212098732233
H           -0.29909618196682       22.41877806920641      271.65534445771499
H           -1.29533126685514       21.24477459075995      272.51172760160688
H           -0.99615154759568       22.83496397841041      273.22129311634859
C           -1.59185972671184       22.35612698782326      269.21656113160594
H           -0.78493624206591       23.07551891724121      269.07446170297897
H           -2.07200907308244       22.18971571481745      268.25877897389171
H           -1.15094619870793       21.41907309499084      269.54813805252826
C           -3.92450313844401       24.19757683529699      276.54627636854514
H           -3.13135764536120       24.93466313350220      276.67754402911385
H           -3.46424186281405       23.25588621976147      276.26220458732041
H           -4.43617111636718       24.06622230690025      277.49456770274884
C           -6.59049605369646       25.98427046979494      276.84905382778732
H           -7.66316945952197       26.12710387087965      276.85438304028889
C           -5.88096551375149       26.33767439985279      277.91873847825906
H           -4.81364942174006       26.24156988941290      277.92794468584003
H           -6.35040489953072       26.74695454958957      278.79274405492544
C          -10.19693048166865       28.04664602509234      273.55946853615126
H           -9.53093325379963       28.28749882955657      274.38151504234480
H          -11.07928008841788       27.55194501182914      273.96806579357082
H          -10.50312486798237       28.98137879361750      273.09835835620487
C          -10.92714405849184       27.39602623221682      270.44365535921565
H          -10.87940364547610       27.15973433717296      269.38995854959768
C          -11.95076963853653       28.12339782296332      270.88851863201080
H          -12.04839542768788       28.36996121503813      271.92263589225922
H          -12.71050216470359       28.47724568087714      270.22079406534505
C           -8.76409801560821       24.60180898386346      266.53592684919846
H           -9.06679416554756       25.64227146455651      266.44086147006283
H           -9.62829980491160       24.01999847415713      266.85087638702674
H           -8.44342167490335       24.25059396136395      265.56007677260357
C           -5.83507271190718       23.40527291409539      266.07032056885191
H           -5.32724882474993       24.18520982098128      265.50494325394038
H           -6.62152912056716       22.98693773752836      265.44911627867924
H           -5.12160097792078       22.61834659866465      266.29272528376862
O           -7.03014720133131       22.75087523819412      271.73342896466283
H           -6.36650147068524       22.05908646770161      271.70093601393734
H           -7.93186571831172       22.48228865053430      271.91376806046725
C           -3.48889006282457       26.96348473629133      270.70520301397096
H           -2.83693028363322       27.11378877359283      271.55797510249363
H           -3.31807625462678       27.73922618480706      269.96835389845177
H           -3.32937819997234       25.98533985538833      270.26747742873590
S           -5.22348840388052       27.10968818351227      271.24247660188934
H           -5.04907975581009       26.50303666111862      272.42491989027445
72
 energy: -105.965217464225 gnorm: 0.019476342441 xtb: 6.7.1 (edcfbbe)
Fe          -6.18188715083583       24.76312197356808      271.44833380696656
N           -4.40770730009400       23.83677685034583      271.19684758972903
N           -5.81969036710199       24.89151693736059      273.41434269608891
N           -7.91549529534719       25.72370467659634      271.71009134097602
N           -6.54990716440943       24.57133252249017      269.53274198264671
C           -3.83207897385725       23.48058530477448      270.01708178126307
C           -2.54520219843472       22.87062384680566      270.24136605689779
C           -2.36600030487383       22.84299231410171      271.59302586983949
C           -3.53888254858519       23.45051227566334      272.17614437100707
C           -4.78104839716168       24.33483933474709      274.10411189223908
C           -4.88171937442306       24.64319891288303      275.50983703376210
C           -6.00560586420675       25.41508503288240      275.65814114717944
C           -6.57777882198612       25.55059710653837      274.33429657965547
C           -8.31785246598151       26.40031364323914      272.82458362075977
C           -9.51802428213355       27.15797013430234      272.56749273345270
C           -9.86604143754516       26.88918042940884      271.26312415399553
C           -8.83967801835345       25.99222714034055      270.75946705206383
C           -7.72469380251040       24.84741964753037      268.90656349127488
C           -7.66275652215695       24.45559241388926      267.51460688575071
C           -6.41132583537191       23.96827540997050      267.30867139897441
C           -5.72981339746840       24.05034771366915      268.58234837398334
C           -4.43516530094892       23.61674808383918      268.77929944725520
H           -3.87188174148596       23.31389540939896      267.91038476464666
C           -3.73116176286247       23.64012843281176      273.53194781903471
H           -2.97679802551204       23.24328857559393      274.19491330144643
C           -7.69438563290569       26.31271203556447      274.05865643031854
H           -8.12675771496673       26.85808888747571      274.88188435672748
C           -8.80543735670071       25.49053962172658      269.46922709869955
H           -9.66092631943312       25.65660188802441      268.83355539192951
C           -1.17332181913680       22.30731717413256      272.30758489656006
H           -0.29240213369677       22.41497795550942      271.67926218117992
H           -1.29893378852672       21.24763486201678      272.53156468751467
H           -0.99795741537133       22.83426505204268      273.24015813000909
C           -1.59502762402885       22.36261311167841      269.21354624041180
H           -0.78451196273058       23.07704302457495      269.06149530068058
H           -2.08311529366782       22.19653318163550      268.25891364535897
H           -1.15469923908197       21.42288903065239      269.54086852463359
C           -3.92453838840491       24.18504300139041      276.55182402076730
H           -3.12778957859915       24.91820603235188      276.68567961889164
H           -3.46713216114273       23.23968985169425      276.27340613230962
H           -4.43587624484216       24.05849035064772      277.50242382487340
C           -6.57732384473733       25.98041601265293      276.85696233259881
H           -7.65094868231427       26.11493972519296      276.85187293348565
C           -5.87879808665666       26.34242173364206      277.93220648619888
H           -4.80736869713796       26.27351051996253      277.95366648735597
H           -6.35626575135665       26.74967901135876      278.80453878127804
C          -10.18045782517182       28.04564808209532      273.56254409660716
H           -9.51481026509966       28.27269815891082      274.38953556006993
H          -11.07527595267885       27.56704458972081      273.96530029259725
H          -10.47039053096474       28.98856034115651      273.10440746208786
C          -10.94225752735751       27.39929314077218      270.45298744739563
H          -10.87422560210904       27.17095256557291      269.39831985182042
C          -11.98181826795763       28.11949687692271      270.88072895601351
H          -12.12769822191615       28.35382863266832      271.91647810088409
H          -12.72847119909468       28.47962782042575      270.19668860849322
C           -8.77324951787637       24.60095941565862      266.53460047160019
H           -9.07185004206821       25.64364842260971      266.44458154219433
H           -9.64235568778466       24.02450258574572      266.84822774938630
H           -8.46011291464660       24.25187624394852      265.55512049448021
C           -5.83106827254203       23.40900240668587      266.05673606472362
H           -5.31446609268440       24.18415662437710      265.49148766502384
H           -6.61513709566871       22.99414228487657      265.42906980509929
H           -5.12166075873505       22.61673521844978      266.27814236677813
O           -7.03181249246607       22.76528586683281      271.73325672462516
H           -6.39580274120265       22.04261137576184      271.72472801180351
H           -7.92984676422365       22.48631096776214      271.93007775428401
C           -3.46708292712069       26.96440908504599      270.69171494244762
H           -2.82137099508179       27.12816874249785      271.54587176637534
H           -3.30125590778391       27.73046228592272      269.94373694125306
H           -3.31055056761195       25.97993623642916      270.26779982123441
S           -5.20702507646204       27.12652311939026      271.22613772435676
H           -5.04023266460431       26.57523272308123      272.44265708569304
72
 energy: -105.967226915075 gnorm: 0.016990174798 xtb: 6.7.1 (edcfbbe)
Fe          -6.17979284236923       24.76266150431911      271.44637090181931
N           -4.40641291942615       23.84201552246489      271.19747001299930
N           -5.82438374639058       24.87960152956865      273.41430966798640
N           -7.91305141099779       25.71670547457055      271.70135567274252
N           -6.55020077623055       24.56446675809893      269.52509720997784
C           -3.83273633281965       23.48216993994835      270.01743945497452
C           -2.54159065087316       22.87843530159766      270.24413025682594
C           -2.36055449203371       22.85447940283911      271.59504138719433
C           -3.53520030542324       23.46231828436730      272.17453493429707
C           -4.78164501612909       24.32846751678425      274.10672713174472
C           -4.87806728585562       24.63351378311305      275.51147628799828
C           -6.00053617964588       25.40646424551433      275.66227797072605
C           -6.57966197179939       25.53544858782318      274.34114690754450
C           -8.31389010906049       26.38471469738260      272.82088195899053
C           -9.51393027886374       27.14422119226889      272.56926091604794
C           -9.87190673482114       26.88250363062720      271.26741610583065
C           -8.84058618240300       25.99060979101725      270.75412939669644
C           -7.72446822713440       24.84360526645494      268.89609307313430
C           -7.66490176968326       24.45171201857147      267.50672105539064
C           -6.41230754323295       23.96597615548641      267.29721128532350
C           -5.73228336016528       24.04198463694747      268.57074583927988
C           -4.43963899369373       23.60343537841742      268.77960879497078
H           -3.87840745693903       23.28124121877583      267.91541672077318
C           -3.72303209348230       23.65032404658743      273.53043864802186
H           -2.95595853764899       23.27051728987615      274.18861488671655
C           -7.69918816025013       26.29179432284335      274.05849094498524
H           -8.14303081085645       26.82853419237358      274.88173915299001
C           -8.79970500732466       25.49968994540038      269.46090301565533
H           -9.64623584488113       25.68641676326421      268.81771033916351
C           -1.17638262118406       22.31350630341763      272.32306467508693
H           -0.28541367435813       22.41147650119984      271.70503830414316
H           -1.31161211242979       21.25466816386345      272.55273442265224
H           -1.00538492413407       22.84161872221584      273.25794617821981
C           -1.59792909270970       22.36878116336319      269.20946870382051
H           -0.78674099280028       23.08145830212542      269.04728891526071
H           -2.09671251666701       22.20311505413557      268.25867263572121
H           -1.15643011357168       21.42728527270098      269.53335607365608
C           -3.92573847901541       24.17000415835172      276.55694778324869
H           -3.12242003965760       24.89676122135686      276.69392033055340
H           -3.47526971470089       23.21817720269962      276.28396674051925
H           -4.44126796048594       24.05133030655529      277.50836836532227
C           -6.56483318655223       25.97589473821915      276.86485371049741
H           -7.64126603497188       26.09609249821427      276.85698515398906
C           -5.87734287564120       26.35162985180375      277.94062981391124
H           -4.80360321850273       26.29704484710794      277.98119206167809
H           -6.36605052448535       26.75180257978747      278.81296837799323
C          -10.17126223575768       28.04157424063798      273.55884526151749
H           -9.50675724489795       28.26229043985749      274.39033609973160
H          -11.07626133811027       27.57931220199396      273.95888537778382
H          -10.44942701963255       28.98461700121053      273.09039182958799
C          -10.95397898781152       27.40110951409417      270.46706614957503
H          -10.86890562529961       27.19439996157684      269.40747424343721
C          -12.00714096192389       28.10566547257098      270.88368952551008
H          -12.18439902467182       28.34252181047123      271.91727688515249
H          -12.74319022505509       28.47055656083544      270.18521611379725
C           -8.78153536817537       24.60206575985704      266.53191479701189
H           -9.07518023281634       25.64793927218923      266.44566249457483
H           -9.65444062378757       24.03153967594394      266.84995177906433
H           -8.47856003515895       24.25211290073783      265.54837772284247
C           -5.82864258600606       23.41307679907374      266.04174109466527
H           -5.29993991394297       24.18727259458048      265.48381786552403
H           -6.61157695111008       23.00905903776705      265.40330086939997
H           -5.12527393439038       22.61240754029081      266.26078585646843
O           -7.04725866518592       22.76892664063290      271.72069986101758
H           -6.43213040368964       22.02616196631281      271.76464157662895
H           -7.93352340979569       22.48306472825399      271.96481652738731
C           -3.44306441176759       26.96773718540157      270.67746436823791
H           -2.79480302404073       27.14950804231747      271.52626409502233
H           -3.27739706981582       27.71624182090173      269.90980228766045
H           -3.28970770152578       25.97220283662604      270.27491880639735
S           -5.18464505228927       27.15157429140075      271.21413819009928
H           -5.01529483103866       26.66738642004133      272.46235814483123
72
 energy: -105.968336883992 gnorm: 0.021457585301 xtb: 6.7.1 (edcfbbe)
Fe          -6.17909308698103       24.75964820393923      271.44387933016583
N           -4.40562920151245       23.84437153104986      271.19810430674130
N           -5.82292895401032       24.87611412668605      273.41891788547792
N           -7.91308361431057       25.71584461983620      271.69559394696876
N           -6.54999403884714       24.56279516782276      269.51575868932838
C           -3.83495875668934       23.48025476422473      270.01672274224308
C           -2.54083980437383       22.88217320834198      270.24463861296556
C           -2.35601939789349       22.86578750524663      271.59436033869264
C           -3.52989399008949       23.47323969279298      272.17287717879344
C           -4.77798828294571       24.32861299180725      274.10831422167968
C           -4.87403406087869       24.62678295117663      275.51184834671562
C           -5.99743290097870       25.39762515395163      275.66617123966586
C           -6.57923888996041       25.52702179673540      274.34633571774214
C           -8.31364446844559       26.37180399065138      272.82068514561308
C           -9.51179007483398       27.13168096004900      272.57150160022087
C           -9.87103461117952       26.87945471972376      271.26987162281085
C           -8.83960844133252       25.99317430331878      270.74744921855063
C           -7.72186280632594       24.84679239927542      268.88720655810283
C           -7.66469569290311       24.45329836775422      267.49832950484546