72
 energy: -105.980495951247 gnorm: 0.000041099566 xtb: 6.7.1 (edcfbbe)
Fe          -6.06833935354765       24.82749821383180      271.49025185014665
N           -4.36009617873430       23.81798732336636      271.25867550806510
N           -5.77405815254778       24.86165488060443      273.48317830091059
N           -7.81145413090539       25.79505454395840      271.73692168496638
N           -6.40715673259006       24.71224980847940      269.53004506035256
C           -3.85820208606374       23.31757924975434      270.10019182208970
C           -2.59862123598966       22.64643877532629      270.33504487796802
C           -2.35166329479997       22.75369793404655      271.66746449677260
C           -3.46977980690716       23.47941802922733      272.22975728239084
C           -4.68840806493358       24.38882461742062      274.15751574063887
C           -4.82230863433858       24.62364643243385      275.57086951344502
C           -6.02419442404380       25.25849023544174      275.74400233675760
C           -6.59807731185034       25.39868428953762      274.42172342556478
C           -8.34166671657854       26.24046094276323      272.90990541989947
C           -9.57455320042428       26.94817888133762      272.67757902299576
C           -9.77944327558873       26.92917428261207      271.32373022807792
C           -8.65591105385975       26.20958289781214      270.75860670692919
C           -7.46403212562180       25.23049223056787      268.85276943664923
C           -7.36075152122033       24.93567824108605      267.43956573391540
C           -6.21751053430537       24.21769488626134      267.28331558113990
C           -5.63599705131338       24.08972192926042      268.60191136101139
C           -4.44717710655956       23.43413852935003      268.85549050998412
H           -3.93933499019971       22.97952112092536      268.01925130587585
C           -3.60298707900002       23.75685083432970      273.57546913298046
H           -2.80526135128746       23.43804946289400      274.22792695171950
C           -7.79212623110751       26.04270616085066      274.16361997455965
H           -8.33026894113053       26.44412140454384      275.00776534608445
C           -8.50811608877950       25.94127128012439      269.41130768816771
H           -9.27400607164740       26.30356106446613      268.74357016654471
C           -1.19733749210573       22.24374168923655      272.45915881127280
H           -0.47078918141516       21.75771438587449      271.81293865148211
H           -1.53288334944581       21.51991886244894      273.20223691940942
H           -0.69923252011727       23.06003012450213      272.98285877305852
C           -1.78860160414214       21.98729411709710      269.27276895374098
H           -1.49880758941264       22.70692240927152      268.50643765731115
H           -2.36300872069656       21.19512712704779      268.79260654700084
H           -0.88542623128923       21.54990025636141      269.69076929468343
C           -3.85409977333265       24.17655990549381      276.60909501729708
H           -3.02622474667110       24.88182593869321      276.69808270342190
H           -3.44036505864759       23.20128757202354      276.35705583540641
H           -4.34983332919362       24.10579811788466      277.57504604733435
C           -6.65833714482911       25.70020266357865      276.96688453292722
H           -7.74031896967182       25.63681185186197      276.98267233068907
C           -6.02411514043970       26.17084198146828      278.03531004435177
H           -4.95626059027706       26.30090690332797      278.05654883229374
H           -6.55935008134658       26.47080989876683      278.92075849736261
C          -10.38848277991281       27.61719105294800      273.72862423231390
H           -9.74557083784868       28.08974082757130      274.46956674005503
H          -11.02789596050892       26.89837153694078      274.24407605477165
H          -11.02142207231303       28.37968249873121      273.27978682148574
C          -10.85718397428877       27.50889519044521      270.55209195249694
H          -10.58128544794743       27.88928149258167      269.57562009321259
C          -12.12342430101575       27.59529585506841      270.94513135241482
H          -12.46074201579236       27.19238439354200      271.88425955757162
H          -12.87590949969198       28.05259025561033      270.32454112966212
C           -8.35529036596808       25.36565283671326      266.41732060012345
H           -8.44191167649610       26.45236397804408      266.39954199250099
H           -9.33840450679864       24.95185970580721      266.64215958331192
H           -8.06065974732166       25.02961236504847      265.42632540287622
C           -5.61997599808921       23.64754522349025      266.04354913626048
H           -4.62776177525832       24.06433523549635      265.86797565067974
H           -6.24120817664051       23.86708408175053      265.17892612122432
H           -5.52210103645467       22.56545020387010      266.13005422751399
O           -7.20742123577061       22.92355328732479      271.83803050505884
H           -6.98679107132162       22.75400517381859      272.76123776398163
H           -8.11746210459340       23.24131332117244      271.81723488867686
C           -4.01563876172595       26.91604800813256      269.76036392522775
H           -3.27449546088404       27.70838729399602      269.80077134323147
H           -4.74211604741486       27.12179804339028      268.98119381878342
H           -3.55437564876988       25.94981556830925      269.58647782646733
S           -4.93917042572964       26.87929959876445      271.33650410037552
H           -3.87880480254643       26.56532068387176      272.08997926403526
