78
 energy: -116.058077742215 gnorm: 0.000047788113 xtb: 6.7.1 (edcfbbe)
Fe          12.25580662217924        1.97230411206852        0.69563967991296
N           12.85141127237384        0.21698238076625       -0.09065383315239
N           10.56177539290339        1.86878825056095       -0.39362831804456
N           11.62938260059880        3.67852857172551        1.51376953105749
N           13.90775428673106        2.02921096496907        1.80617537529997
C           14.02360442329263       -0.42862670303122        0.15006317046687
C           14.11254054974419       -1.63751220074740       -0.63658610928243
C           12.96475645510390       -1.70715422064199       -1.36412491038195
C           12.19174996438157       -0.53697221696255       -1.01466401248806
C           10.20889420893647        0.89151976495605       -1.27698127463784
C            8.95092682734364        1.19800223981254       -1.90438950175251
C            8.54774528935777        2.40367880256724       -1.39090432317485
C            9.56979629461211        2.79674363681959       -0.44211344676227
C           10.48566311958231        4.35490347164197        1.22045014221302
C           10.39012877658604        5.56453427939365        1.99933239229040
C           11.51491524098191        5.60872805118433        2.77823547248971
C           12.26997817015434        4.41217879417778        2.45639989452299
C           14.24970005976233        2.98762217140015        2.70478216726223
C           15.53471003086871        2.69493829982471        3.30403756336761
C           15.96134482341743        1.53464910834525        2.74020006866605
C           14.93002654574627        1.13471737913885        1.80609521843568
C           14.99964980407754       -0.00878553370932        1.03436426193020
H           15.88085287189630       -0.62419465387417        1.13117611853487
C           10.95980501121748       -0.23743357587847       -1.56354334906869
H           10.56274743811875       -0.92655270930117       -2.29320985983592
C            9.53203502493393        3.96173775522864        0.29893391114524
H            8.69112712885066        4.62041750518534        0.14554201250337
C           13.49617893173800        4.10302052727438        3.01514649651845
H           13.90004401264270        4.78713292532775        3.74588528718888
C           12.52560756083199       -2.74511199568953       -2.33975876627065
H           13.27056932775603       -3.53192457799048       -2.42818270742541
H           12.37219018241961       -2.30635877015253       -3.32625860144180
H           11.58570882738325       -3.19778633976102       -2.02247950695532
C           15.26671426013166       -2.57945387303534       -0.60235671622453
H           15.40504208538485       -2.97954932508257        0.40236465058267
H           16.18570725665009       -2.06933726589450       -0.89161826702618
H           15.10799954096894       -3.41211053017222       -1.28331853697406
C            8.23175397886951        0.31337808319021       -2.86264245445044
H            8.35650400291561       -0.73368382939420       -2.59017577334460
H            8.61114702954976        0.44506210737039       -3.87759038464518
H            7.16940743284215        0.54891623540607       -2.86133241444298
C            7.34639888048174        3.15852054864396       -1.66927735258839
H            6.94657718965913        3.72555364391863       -0.83664123127201
C            6.72142208436558        3.21144251058837       -2.84114508180417
H            7.09709892594600        2.70887512197230       -3.71528835638706
H            5.81963153500761        3.78611898421895       -2.97259073585918
C            9.23737928514738        6.50665904760726        1.98284168296560
H            8.29680511100382        5.96331257387231        1.90500440840254
H            9.30404304541835        7.18933311116521        1.13397734016549
H            9.22383002217939        7.09541008771407        2.89772526122002
C           11.91196945369874        6.59520434748029        3.75848361009116
H           12.45235140013293        6.21119358618189        4.61594974878121
C           11.67361047034792        7.90032641605929        3.67884292162710
H           11.18342898547712        8.34210401047584        2.82877773714288
H           11.98603195242379        8.57889390779090        4.45530784117674
C           16.19434911711736        3.54486496374468        4.33508205488004
H           15.56663648166208        3.62391715651112        5.22281340401311
H           16.36590666432806        4.55108862357463        3.95171435866236
H           17.15202012729445        3.12286976762651        4.62985460698566
C           17.21664803690582        0.76973376033576        2.98537938457200
H           17.83760742120627        1.27198039530004        3.72304460998559
H           17.79107702462218        0.66951583160684        2.06410268652020
H           16.98965671972538       -0.23125787343169        3.35296109085421
O           11.15121168107206        0.72892086956510        2.27606091064676
H           11.49758204165337       -0.14346376198087        2.05877961873561
H           10.25568406883451        0.77365643497831        1.92369073260289
C           15.21507731551355        5.60392926240838       -2.32483790416199
H           14.66960910258561        6.25941878075054       -3.00365055601465
H           16.10430140291024        5.24246636945510       -2.84116134871552
H           15.52505208258250        6.18042651104681       -1.45899059926856
N           13.83042890964062        3.56482616264807       -2.76766697262406
H           13.95646595203273        3.57165768260242       -3.76647601953696
C           14.36153832956245        4.47059706120634       -1.88719062908633
C           13.11023904069083        2.67198609342509       -2.05222095847103
H           12.58047200743752        1.84692839830154       -2.48139768246964
N           13.15324008354441        2.95690730913646       -0.77349058276769
C           13.92821564193088        4.07324727642072       -0.65476644018754
H           14.11999974202334        4.51268793006833        0.30231809455835
