87
 energy: -128.466790084219 gnorm: 0.000050722082 xtb: 6.7.1 (edcfbbe)
Fe         -15.56131645539721       -0.70692230224818       18.88141261826673
N          -14.12065131923213        0.56166140126883       19.45659612026739
N          -14.20319583269693       -2.16799355055537       18.69818745597111
N          -16.99369521098311       -1.95120611774745       18.25143011755672
N          -16.92260815137262        0.73777651833254       19.12263050878056
C          -14.27663293824724        1.85186906314466       19.84929654728062
C          -12.99467615814861        2.45769306205652       20.13530597687192
C          -12.05850631914934        1.49976184965876       19.89882736275131
C          -12.78334639917391        0.31807437047960       19.48538378115628
C          -12.86029169834585       -2.05846377199077       18.87676603370124
C          -12.21753698406369       -3.33410371659528       18.70276201654211
C          -13.21412894269376       -4.23915497135512       18.44979240921869
C          -14.44644065904972       -3.47464916115674       18.41964968985642
C          -16.84023287221182       -3.26059793055500       17.91882636740291
C          -18.07827191470991       -3.81057476872877       17.43225452864168
C          -18.99039029488056       -2.78918957213221       17.45277015507782
C          -18.28965918052986       -1.64179903398413       17.99779939675863
C          -18.25668641844188        0.64501410769635       18.88455922162622
C          -18.92960677984406        1.86799190208974       19.26511871680489
C          -17.96458723186643        2.70427506459327       19.73287177746694
C          -16.71602842351778        1.98056660539875       19.62965377277567
C          -15.48533541757355        2.51511741335393       19.96450145417367
H          -15.46443379244620        3.53136804341493       20.32899599842443
C          -12.18411636178125       -0.89529525814912       19.20908953110308
H          -11.10821468783204       -0.95014923816315       19.28401576667086
C          -15.66678944692440       -3.98811064381114       18.02382901613115
H          -15.69922401846427       -5.02824678407144       17.73809984312325
C          -18.90116572803695       -0.44714801866519       18.33442451277219
H          -19.96669356803501       -0.37386030790069       18.18028479239446
C          -10.57495702169983        1.57632272712319       20.02680810896619
H          -10.26182375618711        2.57699701384725       20.31513726282606
H          -10.09542072695161        1.32585195559839       19.08028010171929
H          -10.21659794782517        0.87514753309112       20.78149653570694
C          -12.81122254211502        3.86538779957113       20.59135740759826
H          -13.33625533573667        4.03486567085944       21.53184115615144
H          -13.20811919790942        4.56397923234292       19.85397621952723
H          -11.75802811185933        4.08984546475240       20.74276298558660
C          -10.75490946474723       -3.58288319365032       18.84443051083279
H          -10.42821707424515       -3.39524499271056       19.86833082659168
H          -10.18824857349145       -2.92459203935645       18.18534337682931
H          -10.51547239537541       -4.61401655693555       18.59634457702847
C          -13.06243966800282       -5.66569644166221       18.25755999232609
H          -12.16437234768927       -5.97009388184116       17.72976812831906
C          -13.89313860667493       -6.60181366005614       18.70377117556166
H          -14.77007927358023       -6.35911072380618       19.27960433542161
H          -13.71078840343001       -7.64906028247915       18.52657712930979
C          -18.26413543444874       -5.21101838795063       16.95865301500194
H          -17.97480854750591       -5.92042515969218       17.73450273126078
H          -17.64702968952679       -5.40534106140102       16.08052808375825
H          -19.30242990870543       -5.39135363387260       16.69115581344973
C          -20.36837387837878       -2.84739648624245       17.01342314785240
H          -20.87842173790617       -3.78479758078004       17.21055081477742
C          -21.02042218884443       -1.88513640016025       16.36983092577898
H          -20.54661713423373       -0.95666671362401       16.09995734140091
H          -22.04829525736969       -2.00412585072868       16.06847313359069
C          -20.39735023774820        2.09489058001371       19.13728375334715
H          -20.95176587710782        1.35142818464485       19.71047304779655
H          -20.70852774726730        2.01546413550529       18.09526421258818
H          -20.67059657694484        3.08249247931560       19.50138575585278
C          -18.09153980966706        4.09437306208071       20.25699961176827
H          -17.70115699129853        4.15768222842170       21.27295302047794
H          -19.13208812656087        4.40982039775920       20.26958291364029
H          -17.52982174467640        4.79345155985483       19.63609923701152
C          -14.57149556391388       -0.56885862990012       13.38363747486434
H          -13.60980759712950       -0.17453925632320       13.05491025816339
H          -15.34524856793905       -0.17169302956883       12.72649849610919
H          -14.55533883339407       -1.65002943248908       13.28793139658539
N          -14.90813571635294        1.10303495118673       15.21800912819820
H          -14.79263881003858        1.91644717363847       14.63621273054034
C          -14.83793585741403       -0.19971853934051       14.79713770836400
C          -15.15892410078992        1.09009757017119       16.54705441288511
H          -15.26537719826823        1.96981537871626       17.14740491365890
N          -15.25096983711283       -0.13849035650181       16.99172928642747
C          -15.05467033152163       -0.95215996668067       15.91550739430597
H          -15.08202458645440       -2.01719454010891       16.01756475465459
C          -17.78165196119872       -2.22098118094475       23.78145562609410
H          -17.65864593284458       -1.54692701953093       24.62932258773445
H          -17.60778831685153       -3.23972744226572       24.12817383121032
H          -18.80320334241265       -2.14526543624479       23.42220242836494
N          -15.48204071785343       -1.87850855351893       22.84984220112172
H          -14.99279276256548       -2.11857996362952       23.69628463825005
C          -16.84300416157656       -1.86849861691189       22.68600591682692
C          -14.92619119052204       -1.51257333052637       21.67242072217745
H          -13.87199515264953       -1.43264756923506       21.50504450546643
N          -15.85026683367424       -1.27204834416370       20.77577272329141
C          -17.04762262546584       -1.48898328409672       21.39059410505819
H          -17.96929546080473       -1.35790181328057       20.86264088041386
