87
 energy: -128.352668911262 gnorm: 0.311970009421 xtb: 6.7.1 (edcfbbe)
Fe          71.16000000000000       42.34199999999999       10.43600000000000
N           71.73000000000000       43.91400000000000        9.39900000000000
N           73.00700000000001       42.09300000000000       11.04700000000000
N           70.65100000000000       40.72799999999999       11.38200000000000
N           69.30099999999999       42.67500000000000        9.88100000000000
C           70.95300000000000       44.74800000000000        8.61400000000000
C           71.79900000000001       45.69100000000000        7.86800000000000
C           73.07700000000000       45.53000000000000        8.33400000000000
C           73.01800000000000       44.41500000000000        9.25600000000000
C           74.12100000000000       42.83600000000000       10.72700000000000
C           75.32800000000000       42.29300000000000       11.31600000000000
C           74.94600000000000       41.20200000000000       12.03300000000000
C           73.50099999999999       41.09600000000000       11.85300000000000
C           71.44000000000000       39.91299999999999       12.15200000000000
C           70.71500000000000       38.79500000000000       12.67300000000000
C           69.44900000000000       38.91199999999999       12.22500000000000
C           69.41600000000000       40.12400000000000       11.40400000000000
C           68.22100000000000       41.84700000000000       10.08900000000000
C           67.02400000000000       42.39200000000000        9.49700000000000
C           67.36700000000000       43.59799999999999        8.97500000000000
C           68.78700000000001       43.74800000000000        9.18000000000000
C           69.57200000000000       44.69800000000000        8.57000000000000
H           69.06200000000000       45.47800000000000        8.00400000000000
C           74.11600000000000       43.90600000000000        9.89100000000000
H           75.06999999999999       44.40200000000000        9.71100000000000
C           72.75500000000000       40.09400000000000       12.37600000000000
H           73.25800000000000       39.38000000000000       13.02800000000000
C           68.29200000000000       40.64899999999999       10.78100000000000
H           67.37600000000000       40.06100000000000       10.84200000000000
C           74.32700000000000       46.32600000000000        7.98000000000000
H           74.06699999999999       47.11500000000000        7.24300000000000
H           75.08799999999999       45.65100000000000        7.53200000000000
H           74.73699999999999       46.80700000000000        8.89400000000000
C           71.35899999999999       46.44000000000000        6.61100000000000
H           71.06600000000000       47.47700000000000        6.88100000000000
H           70.48599999999999       45.92600000000000        6.15400000000000
H           72.19900000000000       46.47999999999999        5.88500000000000
C           76.75999999999999       42.79699999999999       11.13700000000000
H           76.93000000000001       43.67399999999999       11.79800000000000
H           76.92000000000000       43.10500000000000       10.08200000000000
H           77.47699999999999       41.99400000000000       11.41100000000000
C           75.77400000000000       40.39999999999999       12.82900000000000
H           76.28000000000000       40.85600000000000       13.69200000000000
C           76.02400000000000       38.97100000000000       12.59600000000000
H           75.55000000000000       38.45200000000000       11.75000000000000
H           76.68800000000000       38.40400000000000       13.26500000000000
C           71.28700000000001       37.71500000000000       13.57600000000000
H           71.82400000000000       38.18800000000000       14.42600000000000
H           72.00200000000000       37.08700000000000       13.00300000000000
H           70.46400000000000       37.08500000000000       13.97600000000000
C           68.39700000000001       38.07300000000000       12.54600000000000
H           68.16700000000000       37.20800000000000       11.90600000000000
C           67.56999999999999       38.29500000000000       13.71700000000000
H           67.76499999999999       39.14800000000000       14.38400000000000
H           66.73900000000000       37.61300000000000       13.95100000000000
C           65.68899999999999       41.66100000000000        9.37400000000000
H           65.32100000000000       41.38799999999999       10.38600000000000
H           65.82200000000000       40.73400000000000        8.77700000000000
H           64.94199999999999       42.32300000000000        8.88600000000000
C           66.44799999999999       44.53900000000000        8.22000000000000
H           65.44799999999999       44.54900000000000        8.70500000000000
H           66.33600000000000       44.19199999999999        7.17000000000000
H           66.86700000000000       45.56799999999999        8.23800000000000
C           71.26100000000000       45.60900000000000       15.16800000000000
H           70.55599999999998       45.45700000000000       16.01300000000000
H           71.40300000000001       46.69899999999999       15.00800000000000
H           72.23200000000000       45.13199999999999       15.42000000000000
N           69.38800000000001       45.18300000000000       13.42400000000000
H           68.65300000000001       45.72699999999999       13.82600000000000
C           70.69000000000000       44.97699999999999       13.91200000000000
C           69.40500000000000       44.45600000000000       12.28400000000000
H           68.53900000000000       44.39500000000000       11.62500000000000
N           70.55299999999998       43.84799999999999       12.06500000000000
C           71.45699999999999       44.13800000000000       13.08500000000000
H           72.46699999999998       43.75800000000000       13.12700000000000
C           73.14999999999999       40.45800000000000        5.54500000000000
H           72.55999999999999       40.27800000000000        4.62100000000000
H           73.85700000000000       39.61400000000000        5.69100000000000
H           73.71299999999999       41.40900000000000        5.43400000000000
N           71.07899999999999       39.76900000000000        6.97800000000000
H           70.69000000000000       39.07000000000000        6.37800000000000
C           72.21299999999998       40.55300000000000        6.73300000000000
C           70.64599999999999       40.17000000000000        8.18700000000000
H           69.76599999999999       39.75000000000000        8.67500000000000
N           71.41000000000000       41.10599999999999        8.67400000000000
C           72.43299999999999       41.43800000000000        7.77900000000000
H           73.16300000000000       42.21400000000000        7.96100000000000
87
 energy: -128.427973480498 gnorm: 0.130596776490 xtb: 6.7.1 (edcfbbe)
Fe          71.15704913098521       42.35710425323829       10.43561039032605
N           71.73571818700462       43.93865685808854        9.39428386911671
N           73.02962311623044       42.09018655922108       11.04859762453585
N           70.64055505478744       40.72609050815493       11.39521783847801
N           69.28908171960165       42.66507041137193        9.86466046054660
C           70.96012407689136       44.74455963318435        8.60095346121179
C           71.79505831896255       45.67948131074265        7.85436031746690
C           73.06769249386176       45.52815415320749        8.32371386307066
C           73.01364164237235       44.43034482838693        9.25886787699452
C           74.13416908776423       42.83091086988706       10.72150827989338
C           75.33504774263918       42.29494040550395       11.31859081117335
C           74.95235970811095       41.19364163415620       12.02870631814171
C           73.51654977700530       41.09453200545490       11.84593916757359
C           71.43528174424414       39.91183303245593       12.15439848924686
C           70.71052155983490       38.79550769767580       12.68121841358246
C           69.43627212852653       38.92485989851029       12.23233329004184
C           69.41019026580612       40.13108680845190       11.41065347995880
C           68.22129496526090       41.83748906046436       10.08401764100987
C           67.02322169978424       42.38200516872662        9.49167601294854
C           67.36664655769476       43.59157112766830        8.96592089111214
C           68.78991721252237       43.73700401245789        9.16700504847931
C           69.57697914831478       44.70097377678965        8.56370532871628
H           69.06800438539670       45.47497971829667        7.99888271854267
C           74.12471121593862       43.92027217179891        9.88855304776699
H           75.07280784028772       44.41022777129059        9.70692036491814
C           72.76807762520006       40.08812853761567       12.38557591091962
H           73.26899400890376       39.37464157270940       13.02748042178529
C           68.28694715409257       40.64241016815486       10.78244705253108
H           67.37472673435850       40.05938418396491       10.84973003672144
C           74.30906459300159       46.31432810021165        7.97793059618251
H           74.06941143712177       47.10095827046748        7.25367769363373
H           75.07731868339734       45.66217500390349        7.54134593500571
H           74.72671682432771       46.79251232184111        8.87495846777380
C           71.35624321937023       46.44373398086733        6.62923509569204
H           71.06485213938076       47.47183130805730        6.87619571022618
H           70.50229516568196       45.93817186433724        6.16332950288714
H           72.17902738216260       46.48134992174764        5.90341776142193
C           76.74541746109776       42.79805321070268       11.13871879516812
H           76.92855099757638       43.66490996049242       11.78739527699069
H           76.91994800347497       43.09998727046461       10.09932937796499
H           77.45914322595054       42.00898708317212       11.40493127381946
C           75.78611841347734       40.34550331357094       12.82862870849073
H           76.29069584266037       40.82042020913232       13.67383995684824
C           76.01011419283171       39.01377536313810       12.60983345537857
H           75.55569180468397       38.48901355315399       11.77325465764647
H           76.66922209585883       38.43758550455264       13.25367812740182
C           71.28129258013955       37.72456873405447       13.57116144621580
H           71.81653339464246       38.17836020625684       14.41452373981162
H           71.98892200366777       37.09631383189477       13.01392809403164
H           70.47618638083564       37.09476872224129       13.96674032848776
C           68.34168442645760       38.07648565260202       12.57574484266125
H           68.13954625607852       37.21481476745692       11.93533319729863
C           67.58187237329946       38.28228818763212       13.68345071158099
H           67.77089026387763       39.12195469341325       14.34873949252886
H           66.76152590967148       37.61957979161357       13.93705011654406
C           65.69919500188034       41.66813498248339        9.38374713687799
H           65.32367554303016       41.38886245466691       10.37539142487683
H           65.81804526902525       40.75250571398384        8.78976141766681
H           64.95677086584261       42.30937900667715        8.89505142532451
C           66.45712656959036       44.53544968624354        8.22690440603950
H           65.46498879573993       44.55118372669666        8.69593213170759
H           66.33796370774522       44.20455373477372        7.18622505810375
H           66.85924037001352       45.55432543252919        8.23373718047277
C           71.25197331452843       45.61443998501689       15.17642646511313
H           70.56328124051240       45.46616593541768       16.01505130435649
H           71.40272012148847       46.68915004653714       15.02014255256771
H           72.21174077605886       45.14668810036184       15.41684346660511
N           69.43793184978360       45.16648112683117       13.42223086889686
H           68.69272160320445       45.71495251914745       13.82449324400451
C           70.71386058207057       44.98173280324618       13.93162178825788
C           69.41901424355193       44.43903182352760       12.27767384809450
H           68.55529016047568       44.38822308884676       11.63188944768459
N           70.55038335839131       43.82717748005647       12.05552999938401
C           71.41164621125310       44.15290481595832       13.08285948458714
H           72.41992119763749       43.77431409533406       13.12440668003270
C           73.13811776116097       40.45021704217370        5.53663958517148
H           72.56877402960524       40.27524228805113        4.61829218882285
H           73.84698282865811       39.62521013582703        5.68109021725812
H           73.70017780289911       41.38485076243600        5.43619899281394
N           71.10951248310985       39.78865678053887        6.97987203070454
H           70.71321021622039       39.08440560989992        6.37797829750454
C           72.22878304873663       40.56050912369847        6.72202065869049
C           70.65856438883993       40.18483378019331        8.19466197652099
H           69.78501324379644       39.76290204265249        8.67164790453493
N           71.40395538284118       41.13030790681929        8.69191591590564
C           72.40887528193477       41.40755247035984        7.78319779064842
H           73.13699337726386       42.18017653440545        7.96066432226646
87
 energy: -128.444018714821 gnorm: 0.053071977044 xtb: 6.7.1 (edcfbbe)
Fe          71.15328076007189       42.36742708728323       10.43192236507763
N           71.74153036989988       43.96265147807982        9.39403269503061
N           73.05426892385023       42.08841925395674       11.04833404129731
N           70.63028871593649       40.72408855705320       11.41388982417929
N           69.28050781439306       42.65101204279812        9.84144173136809
C           70.96609674036124       44.73861650114427        8.58747633172620
C           71.78994197004850       45.67073517747102        7.84152135361206
C           73.05962689915800       45.52703982221043        8.31424530433990
C           73.01111978860351       44.44451693070250        9.26563249197707
C           74.14773908832869       42.83188862246581       10.71739368282251
C           75.34453449496868       42.29726136481366       11.31670278285074
C           74.95822716611353       41.19645123913953       12.02589171048265
C           73.53055148660309       41.09156196186206       11.83883383344491
C           71.43170459958067       39.91284739407393       12.16076436975711
C           70.70078821338275       38.79751271361344       12.69096240126393
C           69.42521590793177       38.93450078202551       12.23632838254907
C           69.40150566316157       40.14051323040709       11.42796960732165
C           68.22298747102860       41.82514718888295       10.07267804758453
C           67.02395359805850       42.37190366919512        9.48296298514199
C           67.36904776071727       43.57995588017791        8.94964237133902
C           68.79556496558037       43.71748949981676        9.14199322296824
C           69.58178872083191       44.69360980436183        8.54737692060409
H           69.07420085347268       45.46346374422112        7.98281204043148
C           74.13285712591765       43.93755276752261        9.89072768135602
H           75.07650938621565       44.42562188946982        9.70473762392138
C           72.77759288063548       40.08301668910761       12.39304929124624
H           73.27965902462547       39.36691865982861       13.02401707794035
C           68.27881749385332       40.63725806216828       10.78731582395440
H           67.36831776781261       40.05872313105984       10.86387035275979
C           74.29122908370569       46.30353823514717        7.96982273216644
H           74.06144538083453       47.08877408035406        7.25336003439325
H           75.06206149701417       45.66008795524254        7.54364128208249
H           74.70750097433255       46.77397744676356        8.86276528123299
C           71.34916076998094       46.45115747681963        6.64494443473956
H           71.05989198752131       47.47225680024541        6.88899419244985
H           70.50424484755338       45.95378813685257        6.17298579774753
H           72.16333709992945       46.49280672223220        5.92090074305018
C           76.73756875134320       42.80155324517656       11.13992581725472
H           76.92377306883159       43.66511031239450       11.78008781599921
H           76.91781740848585       43.09790077655734       10.10825769638101
H           77.44757183403053       42.01980447003189       11.40438484760443
C           75.79798618033871       40.31503577048441       12.82702010793227
H           76.29908832641506       40.80550558210690       13.66007186798034
C           76.00515229429401       39.04572042878014       12.61208913290691
H           75.54784753125648       38.51470937969520       11.79108215750972
H           76.64887547833298       38.45589971246135       13.24742843507252
C           71.27004353741920       37.73239238918026       13.56864159630615
H           71.80539600009392       38.17479277516656       14.40819391007038
H           71.97435064180661       37.10834718377377       13.01607428594523
H           70.47556324511551       37.09995473342398       13.95799670625960
C           68.30021281624057       38.07914724344120       12.59080964308120
H           68.11554855392467       37.22737619844405       11.94027091871656
C           67.57621146388556       38.27421112243235       13.65924313707047
H           67.76422992598030       39.10447931017327       14.32369098410016
H           66.76596961136752       37.61957965361793       13.93577457527593
C           65.70688954178445       41.67322274438757        9.39481365241348
H           65.33154850604842       41.39309136579224       10.37772050319375
H           65.81457717807712       40.76211883638506        8.80373631552776
H           64.96904171823932       42.30569948126330        8.90683194039907
C           66.46707356182387       44.53071669743294        8.22904527562319
H           65.48167917451035       44.54940457686594        8.69399530190531
H           66.34108256226378       44.21619127793823        7.19137433839599
H           66.86465350828406       45.54200327832845        8.23506737088100
C           71.24595732628836       45.61957663108137       15.18125231339347
H           70.56141237115172       45.47527323393545       16.01352605473288
H           71.39707997218353       46.68773776575843       15.03261024880827
H           72.20060051494698       45.16472686496486       15.42711501728185
N           69.48381691667235       45.15061601314294       13.41705213237153
H           68.73603910378610       45.70225468604298       13.81497030597029
C           70.74029576241506       44.98092815920003       13.94101643970744
C           69.43319861310214       44.41687900936096       12.27708383260736
H           68.56825296602486       44.37552288926323       11.64490597282384
N           70.55933428559455       43.79867508531474       12.05566674013236
C           71.38917471863255       44.14802711377529       13.08182053743798
H           72.39393997627722       43.77524763842157       13.12405402048956
C           73.12840707417939       40.44328284141146        5.53029258311094
H           72.56372538115063       40.26843449179545        4.61920832582866
H           73.83556273888861       39.62517069316107        5.66768541970659
H           73.69360610361271       41.36553651698578        5.42695220829115
N           71.13884896063813       39.80702413824224        6.98787210023246
H           70.73858107363992       39.10036068028101        6.38837074209583
C           72.24709762772979       40.56974433010656        6.71982323979260
C           70.67079216178979       40.20153906087186        8.20021865277059
H           69.80281496282687       39.77704160259194        8.66734977849120
N           71.40798909193234       41.15385724437559        8.70537356705181
C           72.39473948977056       41.39610366117926        7.79173022728588
H           73.12788309455749       42.15737910443030        7.96648035956867
87
 energy: -128.448452741668 gnorm: 0.014616481353 xtb: 6.7.1 (edcfbbe)
Fe          71.15282258171352       42.37072341627795       10.43103520895775
N           71.74184364040204       43.96932063920087        9.39385644123928
N           73.06435024523387       42.09207504728496       11.04663387713793
N           70.62294936664689       40.72962735254239       11.42760896100323
N           69.28322772926423       42.63288265602131        9.81614869193116
C           70.96674545438140       44.72837344099179        8.57301535718689
C           71.78376368230674       45.66679464789468        7.83312033930094
C           73.05256578102501       45.52501981371437        8.30479429540310
C           73.00867485553093       44.45244420438838        9.26809878907607
C           74.15313892335070       42.84026821655831       10.71544242832086
C           75.34903012075117       42.30571881149519       11.31522790827580
C           74.96193754585526       41.20917785319166       12.02826938302773
C           73.53558698025719       41.09352974602726       11.83671657326461
C           71.42712103578558       39.91882891731094       12.16949480047107
C           70.68766028345156       38.80440426610014       12.69897651774087
C           69.41318702083983       38.94186131034738       12.23985932106702
C           69.39299814662851       40.15007526402524       11.44188042483286
C           68.22503215991983       41.81297023509696       10.05803207456614
C           67.02675456870558       42.36058176864420        9.46957045446919
C           67.37489260705109       43.56155925710136        8.92456746044874
C           68.80189385189425       43.69299737561558        9.10905988989450
C           69.58453185190736       44.67261520500507        8.51807018383201
H           69.07830649303560       45.43637597434394        7.94480460538841
C           74.13413853473658       43.95200040368108        9.89375857554740
H           75.07534792789271       44.44612218454301        9.70718013625842
C           72.77862499469408       40.08494819817723       12.39431584693545
H           73.28526502567829       39.36311505344892       13.01643628805959
C           68.27181562413763       40.63710061316406       10.79227457930909
H           67.35914784047638       40.06349141628336       10.88295078598859
C           74.27987446426305       46.29674091768564        7.95520706766506
H           74.05044465270365       47.08033078732267        7.23830273924763
H           75.04921561033038       45.65061891594182        7.53273288156333
H           74.69358252525255       46.76428265307117        8.84926647828309
C           71.33486122854912       46.47042682635803        6.65715421797137
H           71.04503401503509       47.48590323933133        6.92247565387222
H           70.48929682659441       45.98161784441734        6.17898191945557
H           72.14502817331089       46.52757594964478        5.93117608895913
C           76.73834907912784       42.81319670872691       11.14069415217478
H           76.92114311159838       43.68055821889921       11.77581086094820
H           76.92078885537241       43.10375965060334       10.10831984004859
H           77.44795445931314       42.03413758158517       11.41040733723449
C           75.80464408606352       40.32891443006854       12.83221055742609
H           76.31932954437113       40.81884736253022       13.65530030134935
C           75.98941759998421       39.03409672210037       12.61832305395710
H           75.52816118395015       38.51642240602137       11.79326216631849
H           76.63988975731030       38.44118647598827       13.24215104328531
C           71.25428752203752       37.73531259111865       13.56889265349078
H           71.78901689025001       38.17145150356630       14.41154825696444
H           71.95903847939817       37.11621168265363       13.01272808127443
H           70.46025729021395       37.09918422067081       13.95145902562388
C           68.27983350119990       38.08099230082297       12.57887590548963
H           68.09077823454471       37.23939958373860       11.91845465803287
C           67.55185737608993       38.26529607044513       13.66644505522496
H           67.74145260525545       39.09587012550648       14.32704334209862
H           66.74060206098646       37.61262309643715       13.94191899487942
C           65.70504315772089       41.67293261465058        9.40819246808669
H           65.34054601809817       41.40203176586895       10.39726731395538
H           65.79898876242576       40.75730238029064        8.82266045346309
H           64.96764419984959       42.30714086879945        8.92390315526958
C           66.47647650103364       44.52561093931364        8.22124813570044
H           65.49543979478683       44.54673330910121        8.69335598062106
H           66.34093260316830       44.22832966814549        7.17998463571774
H           66.88176325853667       45.53331322970278        8.23717309983568
C           71.24766336285271       45.62610893301392       15.18682731600478
H           70.55164726250344       45.48297362972449       16.01064686680145
H           71.38920548624267       46.69573379309239       15.03891594382688
H           72.20321756845310       45.18604227035254       15.45391130024101
N           69.51485259186070       45.13835234053332       13.41189655483049
H           68.77199241964693       45.69790859161235       13.80179871539608
C           70.76648667439504       44.97221941731326       13.94345349724040
C           69.45300031622126       44.38789441174125       12.28464855522277
H           68.58539208591988       44.34372028685090       11.65859272955570
N           70.57813631205293       43.76074831574626       12.07105508297983
C           71.40625324900074       44.12301207481279       13.09002193793617
H           72.40717264451403       43.74975412204375       13.13533641144483
C           73.12500598167283       40.43652466090699        5.52219731373884
H           72.54359777372458       40.26092880669984        4.62103010696186
H           73.82603578051693       39.61172526311897        5.64787022205942
H           73.69813469615437       41.35097211345323        5.40256979515974
N           71.15947801429226       39.81918277215055        7.00076863474790
H           70.75977050080724       39.11168384985849        6.40437881071361
C           72.26644226296995       40.57766259122386        6.72641667955987
C           70.68681439029267       40.21844429566529        8.20836282812949
H           69.81867905292776       39.79654949418551        8.67319151091529
N           71.42529771020783       41.17260253677363        8.71186499610771
C           72.41394607939797       41.40151074639466        7.80172614431594
H           73.15344948109359       42.15338875312510        7.97639027168709
87
 energy: -128.451770130767 gnorm: 0.014947871283 xtb: 6.7.1 (edcfbbe)
Fe          71.15076683325860       42.37186404556866       10.42801968588816
N           71.73935491726549       43.97420493202983        9.39177591275047
N           73.07303111544960       42.09616090095876       11.04653844010092
N           70.61475360995566       40.73071392574170       11.43667247698654
N           69.28366489911983       42.61710847536762        9.79693465974307
C           70.96497945342638       44.71899113159242        8.55984409100470
C           71.77610168545120       45.66185618197702        7.82282627932056
C           73.04409130933894       45.52457185160751        8.29552685091815
C           73.00426940757508       44.45761567628363        9.26726089019232
C           74.15623973541615       42.85000063535795       10.71587359873550
C           75.35232374519610       42.31651209002447       11.31734149226027
C           74.96617446765470       41.21767085498658       12.02688817770452
C           73.53891468156820       41.09368137282868       11.83356594941547
C           71.41984216263168       39.92432297514409       12.17900164986949
C           70.67075700426038       38.81289401263279       12.71270272985488
C           69.39685355889084       38.95360655785670       12.25296933295023
C           69.38232094420255       40.15891605852055       11.45604405033756
C           68.22450144159984       41.80241090779589       10.04692711031109
C           67.02676563218827       42.34793414159524        9.45575983946382
C           67.37917323406045       43.53819696924788        8.89242318773909
C           68.80627427038969       43.66519104431718        9.07282271221463
C           69.58507603496962       44.64545339794894        8.48178490219080
H           69.08108904616043       45.39398082024998        7.88664065955503
C           74.13222506899358       43.96634766424259        9.89787397144656
H           75.06987301147984       44.46987283627083        9.71381466041509
C           72.77633560701986       40.08662311198616       12.39325880862874
H           73.28740867241901       39.36106198518638       13.00849289904043
C           68.26201151191295       40.63890538974471       10.80024777188199
H           67.34721045980126       40.07127754833788       10.90658504601563
C           74.26893903993023       46.29192022900536        7.93701110971783
H           74.03868483141386       47.07215685336099        7.21674043871070