87
 energy: -128.467285641325 gnorm: 0.000043939846 xtb: 6.7.1 (edcfbbe)
Fe          70.73711851011352       42.65314588177188        9.67307000281401
N           70.87593023325746       44.38287117662723        8.67518209589990
N           72.72164202875440       42.65801854697511        9.96510370778483
N           70.58179270372314       40.94086724797786       10.70936278238754
N           68.76142728527796       42.62361681854174        9.34122789691096
C           69.86173686129220       45.07936440504128        8.10327046404983
C           70.35321998032849       46.30493670543468        7.51021019876717
C           71.69346673728148       46.32761558464907        7.73577906636234
C           72.00187106534297       45.11332238345281        8.46081309719231
C           73.60805188601685       43.59562007170805        9.53536039592013
C           74.95368739937184       43.23862451584449        9.90602780893705
C           74.86313562288899       42.05052066097223       10.58204498335299
C           73.45269882602246       41.70866426527670       10.60097357721932
C           71.59990885463658       40.25189842800769       11.29053890353585
C           71.10022388096178       39.09902677731290       11.99029403826439
C           69.73766269353462       39.11558753187418       11.84367077010932
C           69.44300036157689       40.26668639519162       11.01343095659463
C           67.88353673044138       41.65974117594755        9.72659711802611
C           66.55626567305231       41.94875166888104        9.22970942982422
C           66.65347519231412       43.12004476216219        8.54504623367090
C           68.03968228151032       43.52479823120893        8.62682147901620
C           68.53838935298171       44.68281438321392        8.06023098141545
H           67.84164248770367       45.32453713781472        7.54224203466143
C           73.27860037831628       44.75456887289537        8.84929654385698
H           74.08216580112845       45.43103874929333        8.59831114747154
C           72.94061028806642       40.59249140294078       11.23189581805274
H           73.63692801416049       39.93557556635636       11.73114424539574
C           68.18577999970776       40.56396661025018       10.51483988156012
H           67.38390346046425       39.88117088243031       10.75075745438375
C           72.70173454338860       47.35346645595227        7.34324894315829
H           72.22736580458374       48.18444798556197        6.82676367452482
H           73.45146458688757       46.92167272357609        6.67918626416855
H           73.21495394906579       47.74429741003754        8.22234009228391
C           69.49743440109053       47.30075881984528        6.80455561949500
H           68.71539981673185       47.67183895122313        7.46740180549822
H           69.01722268047628       46.84694191247458        5.93706613048796
H           70.08816936264668       48.14782083481525        6.46383832350407
C           76.17794927907099       44.00267688129995        9.53661811018513
H           76.35519914825760       44.82005549656336       10.23806757660203
H           76.08057407159239       44.43014367148253        8.53963649545985
H           77.04566980517738       43.34599617789976        9.55021409513158
C           75.91528519888212       41.24069480655048       11.15306430490022
H           75.74361701803483       40.17041204657905       11.13325319449960
C           77.04088139850614       41.69948605270751       11.69188742658904
H           77.24525505910758       42.75179939339939       11.78419860435064
H           77.78947120912339       41.03231218698062       12.08662759669984
C           71.93609834923764       38.13550518171441       12.76049533014094
H           72.43645884361580       38.63804359297632       13.58907186716638
H           72.70340939887863       37.69690688677920       12.12168066382387
H           71.32337252809840       37.33509907793616       13.16813384563225
C           68.79354343157648       38.17859886713798       12.41446801252181
H           69.13575837442693       37.14994398113896       12.46384907957238
C           67.59627067555544       38.47738413250392       12.90762078647272
H           67.22405343444929       39.48743625253604       12.93677270359230
H           66.95222553538828       37.71959853179292       13.32255349294955
C           65.36199412619652       41.08868451789828        9.46958822481008
H           65.14611621269951       41.01776792473411       10.53627112413868
H           65.53306234666391       40.07912950519139        9.09483696260381
H           64.48551131388402       41.49528031882416        8.97075640700419
C           65.59281355501233       43.88628269388668        7.83074094490550
H           65.48256992534894       44.88159095092611        8.26219351293022
H           64.63439545701716       43.37676857645770        7.89759757149969
H           65.84757908844230       44.00224937970491        6.77699027881791
C           71.14028353321149       46.19246344068141       13.99597505900203
H           71.41899762133006       45.77537565180073       14.96378005315397
H           70.33598348193021       46.91125099296269       14.15348310853364
H           71.99753735364570       46.71456088230680       13.58259480173595
N           69.65411850021070       44.29140914189534       13.32470894929609
H           69.07479490587072       44.31990359271692       14.14757076172611
C           70.71466591710690       45.11924664814110       13.06199201607281
C           69.53687710417849       43.43496320843966       12.28513616148967
H           68.79055822457401       42.67068018532964       12.21869060223082
N           70.45651103361392       43.66905645564488       11.38225095336347
C           71.19622339614574       44.71432160032652       11.85036632564414
H           72.01997227334343       45.10231978293520       11.28821432893253
C           72.53021923349624       40.76578190151537        4.71600072807941
H           71.84052920370344       40.80113417839388        3.87254465359318
H           73.04580192676947       39.80558307617851        4.69450010101603
H           73.26403188733910       41.55706474599803        4.59882850946735
N           70.81877301376616       40.09058437882679        6.41539628760161
H           70.49357576653313       39.27966441657045        5.91520957101828
C           71.80511693336260       40.94678204687729        5.99924568179995
C           70.37037748090238       40.53395707417267        7.61156965713533
H           69.59521855894521       40.05773312567033        8.17571360869161
N           71.01098578669330       41.61642635891587        7.97715051533774
C           71.90638244404856       41.88596101830774        6.98492181067615
H           72.55902989991883       42.73179707629931        7.04631357485325
