78
 energy: -116.058077518033 gnorm: 0.000169579498 xtb: 6.7.1 (edcfbbe)
Fe          11.49567934593198       -2.56372451767369        1.31416165638762
N           12.10742651876978       -0.91568307098101        2.29546165224277
N            9.81136315825979       -2.58120894364020        2.42336618203449
N           10.85334404498296       -4.16043876197842        0.30802501115822
N           13.13695200366078       -2.49666449329103        0.18868337502074
C           13.28067399120435       -0.25106401081076        2.12082861730442
C           13.38402920273985        0.85548886624882        3.04439412247132
C           12.24370863692084        0.84344583564409        3.78674992364995
C           11.46071087377068       -0.27345428485641        3.30872623018290
C            9.47147811669308       -1.71291435501336        3.41857678638390
C            8.21634504646216       -2.08425951233464        4.01589376840750
C            7.80151422094120       -3.21880343451847        3.36732258740988
C            8.81408486645345       -3.50327535271373        2.37077239030448
C            9.70889980627078       -4.86199494021526        0.53108460639795
C            9.60169501570797       -5.97338683561509       -0.38116788405457
C           10.71996693766666       -5.93144635998699       -1.16956442712162
C           11.48286894227013       -4.78258229111104       -0.71852491962541
C           13.46579022970202       -3.34440444560686       -0.81935206211832
C           14.74539138255325       -2.98673972227885       -1.39454947492428
C           15.18204281805364       -1.90100331302561       -0.70413004476241
C           14.16244322065639       -1.61080411480097        0.28196252531475
C           14.24535081005369       -0.56658168274171        1.18233812596265
H           15.12824854625254        0.05310117920140        1.14912128307742
C           10.23179584681502       -0.62971730479742        3.82983641109149
H            9.84521092037964       -0.02968625276970        4.63944563210307
C            8.76429834787026       -4.57396824097423        1.49957935840187
H            7.92107583206476       -5.24227982652544        1.58239168272670
C           12.70514697193257       -4.41430901225265       -1.24937980516060
H           13.09949603033618       -5.01014650858186       -2.05842927109962
C           11.81993143286822        1.76041612929766        4.88295707562698
H           12.57156456182027        2.52604710042810        5.05823268651849
H           11.67070134413342        1.20813366524383        5.81135197931430
H           10.88114029475765        2.25405068415540        4.62993629385052
C           14.54347095523102        1.78922638014957        3.11060210651731
H           14.67474240020651        2.30520227678395        2.15918067297008
H           15.46200487342998        1.24376682768005        3.32791638844478
H           14.39629417205137        2.53583232874483        3.88721501466435
C            7.51018618881536       -1.31464093578504        5.07752640872960
H            7.63997461324133       -0.24349514593655        4.92938045495086
H            7.89614561847241       -1.56729917422058        6.06677700779860
H            6.44629895069128       -1.54220245401488        5.05706093116797
C            6.59706176233490       -3.99409161811892        3.56396946367389
H            6.18817904839052       -4.45710145337105        2.67340006728933
C            5.97897011718992       -4.18046201231285        4.72583509541616
H            6.36322138593422       -3.78616144376456        5.65033406041174
H            5.07405183138148       -4.76107199296158        4.79503670735804
C            8.44496925301863       -6.90711958743974       -0.46370326634002
H            7.50741406933158       -6.37303732975104       -0.31634466356491
H            8.51504064114957       -7.68309238205487        0.30049965595039
H            8.42186793874900       -7.38672615319049       -1.44005884262927
C           11.10464288326302       -6.79965097804702       -2.26038264854081
H           11.64005799093751       -6.32119212589469       -3.07225199758088
C           10.86093196214195       -8.10436178820699       -2.33021514026768
H           10.37540604336412       -8.63989603807525       -1.53302370439912
H           11.16417428059983       -8.68952682296282       -3.18262776137339
C           15.39110531337630       -3.71204537953506       -2.52481816033802
H           14.75393936419312       -3.68541328439068       -3.40892724434541
H           15.56300219410275       -4.75653923712562       -2.26334606514820
H           16.34721295996895       -3.26082941617296       -2.77853553444165
C           16.43703510316785       -1.11512040888031       -0.87260836256463
H           17.04589333245566       -1.52605634199334       -1.67411391610542
H           17.02430462799346       -1.12833912359380        0.04594683682794
H           16.20917012438917       -0.07652306667592       -1.11339816135937
O           10.38189686990940       -1.14167330511013       -0.09982793041259
H           10.72104153940736       -0.30050634526076        0.22491912124777
H            9.48647828603652       -1.23677638348074        0.24245609073174
C           14.44870924441028       -6.54752121760300        3.85994024371593
H           13.91059047732630       -7.26448996158742        4.47977717695886
H           15.35567402458016       -6.25346111899660        4.38816647533622
H           14.72912595649989       -7.03256937846756        2.93032193762760
N           13.08403840281624       -4.56519833455158        4.55247288446353
H           13.21609453692033       -4.69192165645746        5.54245804251451
C           13.60143975027850       -5.36404233764481        3.56663612104918
C           12.36717058908896       -3.58784151957018        3.95361008773557
H           11.84726836989384       -2.81569177684710        4.48186289674175
N           12.39953686936808       -3.71890124760621        2.64978182252522
C           13.16396783901961       -4.81926157733743        2.39344729663272
H           13.34582792590692       -5.14331782948253        1.38955025549219
