78
 energy: -115.983448397847 gnorm: 0.253337353740 xtb: 6.7.1 (edcfbbe)
Fe          11.47000000000000       -2.55400000000000        1.34100000000000
N           12.06500000000000       -0.87200000000000        2.31000000000000
N            9.77200000000000       -2.55400000000000        2.44100000000000
N           10.84000000000000       -4.17100000000000        0.29300000000000
N           13.12600000000000       -2.45000000000000        0.12500000000000
C           13.24600000000000       -0.19100000000000        2.08800000000000
C           13.25100000000000        0.98500000000000        2.92800000000000
C           12.11800000000000        0.98500000000000        3.64400000000000
C           11.36000000000000       -0.19500000000000        3.28400000000000
C            9.44500000000000       -1.67600000000000        3.45900000000000
C            8.25000000000000       -2.14700000000000        4.10200000000000
C            7.88100000000000       -3.28300000000000        3.50300000000000
C            8.83500000000000       -3.56600000000000        2.44000000000000
C            9.68000000000000       -4.86700000000000        0.54300000000000
C            9.51000000000000       -5.85700000000000       -0.49700000000000
C           10.58400000000000       -5.79400000000000       -1.30500000000000
C           11.43400000000000       -4.73300000000000       -0.81800000000000
C           13.46800000000000       -3.38700000000000       -0.84100000000000
C           14.82100000000000       -3.18200000000000       -1.26100000000000
C           15.32000000000000       -2.01200000000000       -0.47700000000000
C           14.21700000000000       -1.60800000000000        0.35700000000000
C           14.24600000000000       -0.54500000000000        1.22300000000000
H           15.14400000000000        0.07200000000000        1.22200000000000
C           10.13700000000000       -0.53700000000000        3.79500000000000
H            9.68100000000000        0.14000000000000        4.51700000000000
C            8.79700000000000       -4.63200000000000        1.57300000000000
H            7.99500000000000       -5.35700000000000        1.71400000000000
C           12.64400000000000       -4.36200000000000       -1.34400000000000
H           12.98000000000000       -4.88600000000000       -2.23800000000000
C           11.66900000000000        2.02200000000000        4.68900000000000
H           12.44300000000000        2.81400000000000        4.78200000000000
H           11.53900000000000        1.52800000000000        5.67600000000000
H           10.71300000000000        2.48800000000000        4.36900000000000
C           14.39600000000000        2.01600000000000        2.94200000000000
H           14.75500000000000        2.18500000000000        1.90400000000000
H           15.23800000000000        1.63300000000000        3.55700000000000
H           14.02900000000000        2.97900000000000        3.35800000000000
C            7.58000000000000       -1.41100000000000        5.27400000000000
H            7.77100000000000       -0.32000000000000        5.18500000000000
H            8.00200000000000       -1.77300000000000        6.23500000000000
H            6.48300000000000       -1.58800000000000        5.25000000000000
C            6.68100000000000       -4.17500000000000        3.81700000000000
H            6.20700000000000       -4.76000000000000        3.01400000000000
C            6.17400000000000       -4.27700000000000        5.04500000000000
H            6.61400000000000       -3.71100000000000        5.88000000000000
H            5.30900000000000       -4.92800000000000        5.24000000000000
C            8.29400000000000       -6.79300000000000       -0.58300000000000
H            7.37300000000000       -6.22900000000000       -0.32100000000000
H            8.41700000000000       -7.63500000000000        0.13200000000000
H            8.19500000000000       -7.18500000000000       -1.61800000000000
C           10.90600000000000       -6.58400000000000       -2.57200000000000
H           11.40300000000000       -6.07400000000000       -3.41000000000000
C           10.62100000000000       -7.86600000000000       -2.72900000000000
H           10.12500000000000       -8.43000000000000       -1.92600000000000
H           10.87700000000000       -8.38400000000000       -3.66500000000000
C           15.60000000000000       -4.00900000000000       -2.27300000000000
H           15.19000000000000       -3.83200000000000       -3.29000000000000
H           15.50400000000000       -5.08900000000000       -2.02900000000000
H           16.67000000000000       -3.71000000000000       -2.25800000000000
C           16.71800000000000       -1.38500000000000       -0.56000000000000
H           17.12400000000000       -1.51900000000000       -1.58500000000000
H           17.39700000000000       -1.88400000000000        0.16500000000000
H           16.65600000000000       -0.29900000000000       -0.33700000000000
O           10.42300000000000       -1.28800000000000        0.10000000000000
H           10.59300000000000       -0.40300000000000        0.42200000000000
H            9.91400000000000       -1.50600000000000       -0.59500000000000
C           14.78100000000000       -6.29600000000000        3.83000000000000
H           14.34200000000000       -7.24600000000000        4.20300000000000
H           15.44800000000000       -5.87600000000000        4.61300000000000
H           15.36300000000000       -6.50500000000000        2.90700000000000
N           12.79400000000000       -4.88900000000000        4.48000000000000
H           12.78700000000000       -5.19500000000000        5.43200000000000
C           13.68400000000000       -5.32500000000000        3.52600000000000
C           11.96600000000000       -4.01500000000000        3.93700000000000
H           11.15300000000000       -3.52300000000000        4.47000000000000
N           12.29700000000000       -3.85300000000000        2.66600000000000
C           13.35400000000000       -4.67600000000000        2.38200000000000
H           13.77700000000000       -4.72400000000000        1.38600000000000
78
 energy: -116.031527267254 gnorm: 0.099314763300 xtb: 6.7.1 (edcfbbe)
Fe          11.46332314112427       -2.57790667631833        1.34619390447259
N           12.06944799641738       -0.88598621008621        2.31187487227370
N            9.77371012189843       -2.55548552105884        2.44924943125817
N           10.83394035811519       -4.16673766949393        0.28694190121804
N           13.13305483225319       -2.46701543254304        0.15305184386920
C           13.23544114854876       -0.19453152571513        2.09000698142677
C           13.26266163072344        0.99175502067688        2.92605209145071
C           12.11994406271059        0.99193503596308        3.65136416528727
C           11.37112918113367       -0.18880908073799        3.26525505668442
C            9.43617717122520       -1.68412315366781        3.45065284085809
C            8.23736810942737       -2.14235046528393        4.11002058793473
C            7.86243068981938       -3.29993268832602        3.50369759497772
C            8.83541740509385       -3.55503489017878        2.44819869973137
C            9.68339389838909       -4.86166491489546        0.52655227605407
C            9.50873690885499       -5.87457630045472       -0.49611447005576
C           10.58464109350544       -5.79436766565136       -1.32744271014800
C           11.42182451173638       -4.72171659102246       -0.81974752026350
C           13.48409070996287       -3.36367469377240       -0.82500886340727
C           14.83946073569582       -3.14671116173509       -1.24595813799886
C           15.31041138243456       -2.04008345166436       -0.50354712521112
C           14.21700548023845       -1.63932893800367        0.34438277643325
C           14.24028402007509       -0.55969789837229        1.21649875340545
H           15.13318346059855        0.05747125346563        1.21715720408011
C           10.14124592523633       -0.54052063213938        3.78388829809676
H            9.69978302273568        0.12533395222011        4.51792373470028
C            8.80066301356615       -4.62391284215648        1.57053725302753
H            7.99838644114367       -5.34211574066833        1.70585647286756
C           12.64679094694913       -4.34921022861635       -1.33715946472460
H           12.99061836992746       -4.88534242073840       -2.21647128637175
C           11.67286210683873        2.00943352358120        4.67776849028661
H           12.42595995622407        2.79668136081308        4.78215384030495
H           11.53686266194798        1.53448721795041        5.65567261418550
H           10.72746793057256        2.47464034635784        4.37656355674544
C           14.38480237253166        2.00534308407849        2.93863596585228
H           14.74757626419911        2.18353225075483        1.92131764101510
H           15.22100265924632        1.64022675449764        3.54599149804194
H           14.03884614117502        2.95803220481829        3.35147489993810
C            7.58276685743662       -1.41442891865974        5.26052092947473
H            7.76471026687668       -0.33784841967739        5.18645990439422
H            7.99194179152356       -1.76423805387185        6.21621509853250
H            6.50196423902245       -1.58557388387157        5.25083152377763
C            6.69703862634812       -4.16376037131040        3.82079732389718
H            6.24293168142652       -4.73752654917979        3.01363681240407
C            6.17936899562507       -4.27359071967664        5.04015314198388
H            6.60413323915660       -3.73689619057655        5.87838447905342
H            5.32535618642388       -4.91411886456625        5.23671412894480
C            8.30615184116262       -6.78426351107906       -0.58292175375441
H            7.39209977635120       -6.23782168318569       -0.32504208511334
H            8.41453981321637       -7.62193035440787        0.11630819814405
H            8.19999472781718       -7.17809596927180       -1.59838250035647
C           10.89511229329283       -6.57480441638771       -2.55467525506890
H           11.39476255046036       -6.05545489198650       -3.37221763036448
C           10.61542322085803       -7.86087215905695       -2.72028188635279
H           10.13701001587532       -8.43602544636549       -1.93773118319149
H           10.86772280328037       -8.37720932448152       -3.64199967430997
C           15.59044972708418       -3.98200663647293       -2.25280064480133
H           15.19518112153864       -3.82886554798674       -3.26642627869937
H           15.50477903485612       -5.05358022580466       -2.02620077772076
H           16.65123251837724       -3.71443841086490       -2.25690356596029
C           16.68467258659563       -1.40641493378552       -0.56753762230176
H           17.11309225940811       -1.52017465472053       -1.56896407118377
H           17.37243563549179       -1.87603921460031        0.14937926590220
H           16.64502265576559       -0.33383429095987       -0.34144588514740
O           10.44135119921703       -1.27374131651773        0.09172947532586
H           10.57703808709853       -0.37948757254239        0.40362191367928
H            9.88605114436126       -1.48986420413407       -0.63509250583479
C           14.77849575546718       -6.30114978352166        3.83383245273412
H           14.35695058612289       -7.24322379054935        4.20145999261829
H           15.44585661064375       -5.89201373119227        4.60078092811438
H           15.35410267577965       -6.50096567206419        2.92671134715116
N           12.80645657821058       -4.90142315713555        4.48788565247871
H           12.79380332183563       -5.20894051483122        5.44419594182505
C           13.69187759320556       -5.33156699596397        3.53320352748707
C           11.97916352512088       -4.00968935509379        3.92805071842172
H           11.17238624482033       -3.52324420467908        4.45058066327930
N           12.29973693298407       -3.84042496469081        2.66318058630048
C           13.35222841600666       -4.66688685386915        2.39352915512027
H           13.77066100157903       -4.71659945228325        1.40497449082008
78
 energy: -116.045187446054 gnorm: 0.034453641580 xtb: 6.7.1 (edcfbbe)
Fe          11.46299307381443       -2.57207482920667        1.34690586588003
N           12.07667353899965       -0.89175945326084        2.31436512111822
N            9.79303579505410       -2.59417288952784        2.47067046155351
N           10.82543305630796       -4.14969937192479        0.28661119278966
N           13.14341190237305       -2.48700028072865        0.18085584008931
C           13.23215905679480       -0.20358055254508        2.09443591851456
C           13.27150762831706        0.98943502681570        2.92148622386981
C           12.11879614964263        0.99563443116167        3.64831954151958
C           11.38281065523438       -0.19059159248244        3.25336335880081
C            9.44226355519278       -1.70755943296913        3.44389043441259
C            8.23770664952359       -2.14318389496648        4.11280883097227
C            7.85718427150547       -3.31618576412531        3.50654185911466
C            8.83913502629132       -3.56227333358567        2.45849480626126
C            9.68553371150518       -4.85246006639856        0.51782727217206
C            9.50933543247160       -5.87934352105455       -0.48964233409577
C           10.58589982532665       -5.78527616334275       -1.33530874618496
C           11.40891691007570       -4.70074404856812       -0.81464333859232
C           13.49207939018181       -3.35860942997457       -0.80178106291992
C           14.84979981528944       -3.12095633978608       -1.23365678981181
C           15.30018777349099       -2.06385173297169       -0.52222856420663
C           14.21641795884417       -1.66831629813718        0.35033769658080
C           14.23924594922091       -0.57956724269977        1.21893428448295
H           15.12553721719451        0.04014095148940        1.21180913908400
C           10.15203198494376       -0.55719955170106        3.77458683750562
H            9.72064401740581        0.10012058705431        4.51719935798404
C            8.80013426218282       -4.62203508382734        1.56715397705229
H            7.99177997050082       -5.32922160915232        1.68816782984710
C           12.64866672849315       -4.34173769806315       -1.32080555058703
H           13.00264914699489       -4.88983190589999       -2.18471455502064
C           11.67417108763531        1.99519740032278        4.66370224413463
H           12.41675645709288        2.78014402316909        4.77547302079805
H           11.53376992744999        1.52660155642730        5.63612382954442
H           10.73203422504487        2.45747449984052        4.37314738646122
C           14.37696984023314        1.99024375073979        2.93380730067229
H           14.74233166639621        2.17522021238571        1.92717861132571
H           15.21164254525576        1.63615282345426        3.53800230604823
H           14.03901624532755        2.93626499983875        3.34796904526824
C            7.58673191452902       -1.41718547618033        5.24137731349725
H            7.76388176151931       -0.34754699880095        5.17405139335804
H            7.98564104678391       -1.75801119124745        6.19806405226332
H            6.51370311511333       -1.58844239703100        5.24056122352572
C            6.71890134804472       -4.15055665998592        3.82136192942044
H            6.28606792806737       -4.71661855190016        3.00547365183883
C            6.18589221590880       -4.27153056107294        5.03421915017433
H            6.59777284307335       -3.76255066774062        5.88483438270379
H            5.33396041734052       -4.90180140831377        5.22346332483111
C            8.32132263600943       -6.77543991798528       -0.58156828770026
H            7.41159931063094       -6.23622671483908       -0.32633337433084
H            8.41699249569071       -7.61428513967389        0.10770752553957
H            8.21480543698058       -7.16930315670389       -1.58841824101271
C           10.88828651013415       -6.55944094946182       -2.52527714818166
H           11.39046629361401       -6.02924052524849       -3.32663648026034
C           10.60893046716471       -7.84784643945065       -2.70386642923560
H           10.14397865621489       -8.43979008241205       -1.93752770884689
H           10.85669987388707       -8.35963653566058       -3.61935844359409
C           15.58114088357554       -3.95650194004423       -2.23738851543593
H           15.18438466905860       -3.81114549504810       -3.24371917923752
H           15.49295589915018       -5.01894112040969       -2.00599646094301
H           16.63760103001736       -3.70421304237370       -2.25037590193838
C           16.65411936686257       -1.42584586416874       -0.57553709023730
H           17.09300071840387       -1.53264660798069       -1.56510754212231
H           17.33638600174543       -1.88547317963725        0.14281926761889
H           16.61099997582859       -0.36267945949475       -0.34497512363614
O           10.48082325633913       -1.24792273351671        0.03778557297616
H           10.52477740878225       -0.34113813240689        0.36034316747460
H            9.85087556811594       -1.45572592109079       -0.65867543678823
C           14.77548405395159       -6.30644429533010        3.83451723113251
H           14.36364675791548       -7.24438406143609        4.20021463334834
H           15.44466348118950       -5.90644785445572        4.59424126465981
H           15.34810527880269       -6.50155475850369        2.93586369617133
N           12.81360197135149       -4.90657682508746        4.49176014618859
H           12.79377867024625       -5.21574492665841        5.45014420387806
C           13.69587054753103       -5.33377906300667        3.53644481934999
C           11.99237361258958       -3.99795624951525        3.91934483547116
H           11.19269389568131       -3.51209128058626        4.43669132507184
N           12.30504453024946       -3.82139992731795        2.65792735881275
C           13.35392145908081       -4.65431515732438        2.40171233382600
H           13.77545424521531       -4.70801690669677        1.42044890792994
78
 energy: -116.049102979490 gnorm: 0.044627625615 xtb: 6.7.1 (edcfbbe)
Fe          11.46369717717149       -2.57142660820901        1.34497345388312
N           12.08049759199728       -0.90107087821155        2.31261669013896
N            9.79221257537655       -2.59012544728388        2.45846989603588
N           10.81581271333154       -4.13631708855230        0.28659459555080
N           13.14930365085339       -2.50511136034397        0.20510575642107
C           13.23343286849025       -0.21469636301325        2.09744992265743
C           13.27396680655314        0.97982318968475        2.91756534257855
C           12.12003252139029        0.98728804376856        3.64261765250101
C           11.38851697732797       -0.19859887590298        3.24798369448305
C            9.45087605859798       -1.71210733198176        3.43935860041580
C            8.24862056159550       -2.14104129631942        4.11135173062120
C            7.86749647628877       -3.31674450637868        3.50810860186121
C            8.84237817476104       -3.55818864708322        2.45648078500020
C            9.67868168614931       -4.84112880203504        0.51648603731948
C            9.50787998711185       -5.87418976377415       -0.47999546025790
C           10.58463031331995       -5.77736052459947       -1.32525177853245
C           11.40052308182510       -4.68907852987052       -0.80763055235547
C           13.48678834558762       -3.36915564760397       -0.78499340951873
C           14.84195658530435       -3.12467375763085       -1.23092725127215
C           15.29543745982434       -2.06626641609942       -0.51625573324688
C           14.21513849375861       -1.68101986291009        0.36853968204021
C           14.24241299971134       -0.59233924029104        1.22774103343249
H           15.12697133270743        0.02736680068363        1.21478376509955
C           10.16331084814410       -0.56782954718877        3.77491627578601
H            9.74247149656698        0.07991885288290        4.53037636222245
C            8.79378265746051       -4.61426929116320        1.56326687035108
H            7.97864331169359       -5.31400965061012        1.67494363052559
C           12.64641707004214       -4.34530380910218       -1.30647606894269
H           13.01144390137825       -4.90562867734256       -2.15666683313642
C           11.66965517396279        1.98215919371398        4.65493224712404
H           12.40838541696368        2.77017719450279        4.77118692436162
H           11.52728320070133        1.50970802345932        5.62546075556295
H           10.72503694888410        2.43980138285987        4.36413595999185
C           14.37707710733560        1.97909940492475        2.92936824160641
H           14.74115580684091        2.16802584749007        1.92272228882747
H           15.21374641114878        1.62479122726294        3.53120093037488
H           14.03871697597026        2.92304462898029        3.34841777897025
C            7.58899208523958       -1.41441906126759        5.22936011694745
H            7.76016465917921       -0.34395961042176        5.15701306227228
H            7.98346820077345       -1.74903372972290        6.19038587971643
H            6.51703232808312       -1.59475629162966        5.22346463422515
C            6.73499206507027       -4.14985950487151        3.81942354200928
H            6.31410846509074       -4.71064088370640        2.99386444990028
C            6.18946994977200       -4.27963627537963        5.02688551046733
H            6.59726458913125       -3.78980310802975        5.89228838382318
H            5.33068876170328       -4.90387396570314        5.20080186679573
C            8.32661795307910       -6.77192096212762       -0.57806463023478
H            7.41540233938138       -6.23383340881908       -0.32602408591282
H            8.41950318939269       -7.61409813475847        0.10789176768310
H            8.22959056959688       -7.16284661593284       -1.58723349144882
C           10.88781327040232       -6.54844031221748       -2.50681028498518
H           11.39664032206032       -6.01089226522407       -3.29867801089305
C           10.60540715638145       -7.83547071531791       -2.69193694327974
H           10.14847596246323       -8.43797607695112       -1.92797915279914
H           10.85054550054971       -8.34230344708295       -3.60945552840248
C           15.56933830837513       -3.94884772680322       -2.23848254297732
H           15.16454550443227       -3.79738762089637       -3.23881420771346
H           15.48053423650864       -5.00755729159562       -1.99909171992404
H           16.62472633747898       -3.69277327892339       -2.25238709529232
C           16.64131135923948       -1.42778447996820       -0.57545656637240
H           17.07780654883162       -1.53997374435901       -1.56477677547327
H           17.31635754479641       -1.88919618265860        0.14672159313814
H           16.58582477942199       -0.36686285665237       -0.34707860226605
O           10.54861563550769       -1.22044404975193       -0.04497019207798
H           10.44928092437232       -0.31505596453859        0.34205499660347
H            9.80705093141706       -1.43039124530478       -0.65853403276981
C           14.77521753311938       -6.31448250223093        3.83472274545917
H           14.36115076561669       -7.25256366148454        4.19799720687244
H           15.44911157074765       -5.92218326262042        4.59477242007109
H           15.34622420368070       -6.50855556698637        2.93464373781727
N           12.82120443253811       -4.90306022161999        4.49635698625674
H           12.79391655423526       -5.21640004141081        5.45349575588492
C           13.70217895192567       -5.33282455120342        3.54064347297445
C           12.00987557963554       -3.98327211695139        3.92204386210669
H           11.21433558974241       -3.49095456771478        4.43815912944818
N           12.32301147138292       -3.80561261609519        2.66182740737467
C           13.36824611993338       -4.64428544451842        2.40906295220615
H           13.79556698358252       -4.70028850325999        1.43093396428715
78
 energy: -116.051484078367 gnorm: 0.024018071180 xtb: 6.7.1 (edcfbbe)
Fe          11.46289119852939       -2.56694685182443        1.34091213345140
N           12.08282176367310       -0.91099832616302        2.30914705462062
N            9.79051017777227       -2.58189838389789        2.44375856621232
N           10.80627677673900       -4.12231177039610        0.29054732682988
N           13.14875760528571       -2.52142528266494        0.23006403722913
C           13.23572702786747       -0.22680339291000        2.09997093779732
C           13.27520834038077        0.96744987642405        2.91434709694017
C           12.12176174761683        0.97566042636969        3.63651757541914
C           11.39242882961245       -0.20854166290002        3.24478907192713
C            9.46033618151389       -1.71406830504989        3.43765115668116
C            8.26403011357273       -2.14143480465249        4.11269138614961
C            7.88228889830426       -3.31608815086221        3.51238844046925
C            8.84457320341540       -3.55368463325242        2.45343829901536
C            9.66861627872717       -4.82858340142933        0.51847471085710
C            9.50594172000484       -5.86597509267830       -0.46788428488574
C           10.58395800121925       -5.76945918544151       -1.30788483509004
C           11.39395017067669       -4.67968085999872       -0.79579072743687
C           13.47673914886315       -3.38225413763581       -0.76585046265854
C           14.82699609345486       -3.13221070095952       -1.22716328463938
C           15.28638876378718       -2.06636795188067       -0.50566883828974
C           14.21045751094948       -1.69205803784954        0.39012165036837
C           14.24726121635613       -0.60550165631879        1.23884733684022
H           15.13252645358343        0.01171375389390        1.22077542272728
C           10.17493564966026       -0.57810695806246        3.77979576246246
H            9.76627162181901        0.05795511265709        4.55121328461673
C            8.78259256452617       -4.60508929994902        1.55884310465283
H            7.96167059694777       -5.29888415327027        1.66232958446279
C           12.64472422894970       -4.35338887851080       -1.28758861280399
H           13.02028220908219       -4.92531365424880       -2.12445427624341
C           11.66169950507603        1.96800459146176        4.64755630992835
H           12.39654566380927        2.76109623433814        4.76797229709882
H           11.51790609451676        1.48911578740203        5.61671270580027
H           10.71324744843473        2.41884377533836        4.35239778936235
C           14.37961378239551        1.96724894096774        2.92447070153336
H           14.73872408954419        2.16022076755183        1.91484522907814
H           15.22015604335874        1.60899668895050        3.52149053315257
H           14.03992650054921        2.90954733801795        3.35056552741764
C            7.59113356955348       -1.41147174149197        5.22056208273722
H            7.75299680199001       -0.33832841072072        5.13746455492553
H            7.98113180721749       -1.73577686157529        6.18848709398585
H            6.51950026101464       -1.60551594331848        5.20455903216991
C            6.74910070193390       -4.15341417309009        3.81750574589196
H            6.33765806840592       -4.70706911603342        2.98107036108750
C            6.19291976032762       -4.29455299356356        5.01910299218758
H            6.59331046338201       -3.81825916690164        5.89871451651595
H            5.32794128586245       -4.91739558059508        5.17440588505881
C            8.32977851200167       -6.76983024828678       -0.57336591800048
H            7.41432530499871       -6.23419694606886       -0.32501837178873
H            8.42248781448268       -7.61595999082417        0.11008309338592
H            8.24504178373375       -7.15675170474119       -1.58725631269813
C           10.89158957855754       -6.53856034757315       -2.48841311908247
H           11.40423245173282       -5.99314271825325       -3.27335520733136
C           10.60506592106877       -7.82312283099364       -2.67877205831449
H           10.14840054056590       -8.43231934484516       -1.91717031661611
H           10.84628615847313       -8.32415219111635       -3.60119887686915
C           15.55254381986942       -3.94177466908120       -2.24315980323511
H           15.13741227956824       -3.78217886614684       -3.23778522295751
H           15.46727583571370       -4.99974349390444       -2.00057851330644
H           16.60734386138015       -3.67729436854469       -2.26002778770986
C           16.62762630810382       -1.42681880290778       -0.57493685427122
H           17.06080253961662       -1.54741138704313       -1.56562607592733
H           17.29875863583971       -1.88705084710099        0.15212942577332
H           16.56022731838313       -0.36555152785614       -0.35355554677805
O           10.53274938047200       -1.19039278137456       -0.07445264326122
H           10.46743996706090       -0.29659981329325        0.25824741794084
H            9.79786931866097       -1.38700793426549       -0.67629932197640
C           14.77539797500490       -6.32221464458455        3.83326335075140