72
 energy: -105.755229825527 gnorm: 0.389379372114 xtb: 6.7.1 (edcfbbe)
Fe          16.16300000000000       23.34100000000000      -10.67900000000000
N           16.43100000000000       21.71000000000000      -11.78300000000000
N           16.92000000000000       24.36600000000000      -12.35700000000000
N           16.85700000000000       24.66200000000000       -9.47500000000000
N           15.94800000000000       22.00200000000000       -9.04200000000000
C           16.04000000000000       20.32900000000000      -11.46000000000000
C           16.03100000000000       19.37900000000000      -12.61700000000000
C           16.31300000000000       20.22000000000000      -13.78100000000000
C           16.45400000000000       21.59500000000000      -13.22900000000000
C           17.00200000000000       24.01700000000000      -13.65900000000000
C           17.48400000000000       25.01200000000000      -14.63400000000000
C           17.66700000000000       26.15800000000000      -13.74700000000000
C           17.26400000000000       25.66200000000000      -12.40500000000000
C           16.81700000000000       26.06900000000000       -9.88600000000000
C           16.49300000000000       27.06200000000000       -8.82500000000000
C           16.11900000000000       26.20700000000000       -7.69200000000000
C           16.26800000000000       24.80400000000000       -8.14500000000000
C           15.85400000000000       22.32800000000000       -7.72100000000000
C           15.65000000000000       21.23500000000000       -6.73000000000000
C           15.57600000000000       20.06700000000000       -7.59800000000000
C           15.73400000000000       20.66900000000000       -8.95600000000000
C           15.77300000000000       19.81900000000000      -10.12400000000000
H           15.59500000000000       18.75100000000000       -9.99900000000000
C           16.73600000000000       22.67700000000000      -14.13600000000000
H           16.74900000000000       22.48200000000000      -15.20800000000000
C           17.29500000000000       26.50100000000000      -11.19900000000000
H           17.70000000000000       27.50900000000000      -11.28900000000000
C           16.00200000000000       23.69000000000000       -7.23900000000000
H           15.91200000000000       23.88600000000000       -6.17100000000000
C           16.38100000000000       19.76100000000000      -15.22100000000000
H           15.50900000000000       20.16400000000000      -15.78000000000000
H           16.35400000000000       18.65100000000000      -15.26300000000000
H           17.31500000000000       20.13600000000000      -15.69100000000000
C           15.77300000000000       17.89200000000000      -12.61800000000000
H           15.08000000000000       17.63500000000000      -11.78800000000000
H           16.72900000000000       17.34500000000000      -12.47200000000000
H           15.30800000000000       17.59200000000000      -13.58100000000000
C           17.70300000000000       24.82200000000000      -16.11400000000000
H           16.74400000000000       24.53500000000000      -16.59700000000000
H           18.44700000000000       24.01400000000000      -16.28300000000000
H           18.06400000000000       25.77100000000000      -16.56500000000000
C           18.15200000000000       27.51599999999999      -14.11600000000000
H           19.01800000000000       27.96100000000000      -13.60400000000000
C           17.55300000000000       28.20900000000000      -15.06300000000000
H           16.68500000000000       27.79300000000000      -15.59500000000000
H           17.91400000000000       29.21200000000000      -15.33400000000000
C           16.51000000000000       28.56500000000000       -8.90900000000000
H           16.27300000000000       28.88100000000000       -9.94700000000000
H           17.51800000000000       28.94500000000000       -8.63800000000000
H           15.74700000000000       28.98800000000000       -8.22100000000000
C           15.64500000000000       26.61800000000000       -6.33600000000000
H           14.80600000000000       26.09300000000000       -5.85700000000000
C           16.21400000000000       27.60900000000000       -5.68700000000000
H           17.05600000000000       28.15800000000000       -6.13300000000000
H           15.85500000000000       27.90200000000000       -4.68900000000000
C           15.55000000000000       21.34000000000000       -5.23700000000000
H           14.69100000000000       21.99100000000000       -4.96800000000000
H           16.48200000000000       21.78600000000000       -4.82900000000000
H           15.38900000000000       20.33200000000000       -4.80000000000000
C           15.35100000000000       18.62900000000000       -7.22400000000000
H           15.05900000000000       18.56500000000000       -6.15400000000000
H           16.28700000000000       18.05100000000000       -7.37700000000000
H           14.53500000000000       18.20300000000000       -7.84600000000000
O           18.59500000000000       22.86000000000000      -10.38800000000000
H           18.96400000000000       23.62300000000000       -9.94300000000000
H           19.04000000000000       22.13300000000000      -10.64100000000000
C           13.21400000000000       22.54500000000000      -11.79000000000000
H           12.43400000000000       22.93900000000000      -12.47600000000000
H           12.70600000000000       21.97800000000000      -10.98100000000000
H           13.86100000000000       21.85200000000000      -12.36900000000000
S           14.20000000000000       23.87500000000000      -11.09000000000000
H           14.81100000000000       24.17600000000000      -12.22600000000000
72
 energy: -105.892743617739 gnorm: 0.182693809199 xtb: 6.7.1 (edcfbbe)
Fe          16.28475267964676       23.26878481694769      -10.67555310291287
N           16.36712081359105       21.63926709081892      -11.83671769098882
N           16.90835373597760       24.38667901740627      -12.37981798105530
N           16.75460717822498       24.73617562747841       -9.45427012516978
N           15.92586550769355       21.98731980704537       -9.00562887914063
C           16.04761784079586       20.30650441344666      -11.45460284529626
C           16.03437245370273       19.41119702478436      -12.62250367287547
C           16.30211534677924       20.21778133287954      -13.74874087954590
C           16.46586379974373       21.58392563106817      -13.24415138888715
C           17.00357740209811       23.99030808492306      -13.67548881696054
C           17.47448954200742       25.02590771375079      -14.59335800544362
C           17.66984871849971       26.14310665507132      -13.73783802290999
C           17.28980599021927       25.68555908948899      -12.38561421481607
C           16.84536296388225       26.08816387639117       -9.89121093559032
C           16.49710279714780       27.02123431597006       -8.81613932345241
C           16.12306188457866       26.20223311388164       -7.70839297038514
C           16.27244451577982       24.81119175538404       -8.12312146153215
C           15.86772959297701       22.35699137479991       -7.69640410323048
C           15.65128848402257       21.23228828556257       -6.76688943198563
C           15.57424151779968       20.10148990832489       -7.60463143236809
C           15.74278383857606       20.64322129851579       -8.97022642405227
C           15.78199215597726       19.83723081580154      -10.13723622812051
H           15.59895902377630       18.77267144460374      -10.00747404178543
C           16.73574686064216       22.66753775123688      -14.11224942504874
H           16.75145719968796       22.47975925121180      -15.18321039426696
C           17.29474201581439       26.48604245095592      -11.19487261780560
H           17.67759004586946       27.49905580117851      -11.29225264102829
C           16.01360454062290       23.70056967410688       -7.26152691237098
H           15.90646767498609       23.89078669295648       -6.19586764816105
C           16.37839518819985       19.77119134689135      -15.19401820117710
H           15.52222702882970       20.16022345636722      -15.77021386774503
H           16.35642438679876       18.67302809473705      -15.25899711537934
H           17.30003856149433       20.12979789500604      -15.67964819307456
C           15.77620580973150       17.92063317311571      -12.61532413418607
H           15.09092270394392       17.64060764868258      -11.80101479673840
H           16.71379517520985       17.35675476341317      -12.47511138912248
H           15.31821612887070       17.60014267678734      -13.56388277241681
C           17.69748690950632       24.83159818570743      -16.07971192359772
H           16.75931551920695       24.54166308760647      -16.58439454658323
H           18.43334427264588       24.03154861828328      -16.27405497551426
H           18.05967013343807       25.75752362675356      -16.55091972917026
C           18.14344982520533       27.49674137689679      -14.11113580135624
H           19.00306821696898       27.93962713272403      -13.59809933934472
C           17.55220994677543       28.20351561241611      -15.06516879035445
H           16.69142607319947       27.80422015556410      -15.59374643344226
H           17.90624477088231       29.19759532368457      -15.33481773246144
C           16.50711783309571       28.53173864535581       -8.90910932922366
H           16.27695664385820       28.87095097362648       -9.93135699346562
H           17.49935903514776       28.93494020029275       -8.64149950500862
H           15.76164060371890       28.97467128782286       -8.22965728241137
C           15.65252377534107       26.61593288055287       -6.36205333819143
H           14.82204785650395       26.08658596501173       -5.88316742830255
C           16.21553579431385       27.61361900089773       -5.69348375866238
H           17.05093000071080       28.15854273699836       -6.12040444297772
H           15.86343838552923       27.90184635245702       -4.70349332041918
C           15.55098469999730       21.33766705481307       -5.26611278877095
H           14.70464620344221       21.98153393084741       -4.97470102034596
H           16.46699647882482       21.77672400421904       -4.83769537132660
H           15.39354479209592       20.34832895373228       -4.81103102420948
C           15.35430776193306       18.65620995710909       -7.23055726307640
H           15.06453310137938       18.56968668977855       -6.17222853080584
H           16.27144396465401       18.06183185173412       -7.37736589871019
H           14.55007537236196       18.21035612343619       -7.83755571610121
O           18.57074751619312       22.87547828251211      -10.38577516047281
H           18.97091602882863       23.62041905898534       -9.94193661847752
H           19.05629517414578       22.11753839944712      -10.64520420129402
C           13.20758342591450       22.53464595967732      -11.79744567445045
H           12.43911479885046       22.93944567090502      -12.46853224192608
H           12.71420313232045       21.98443528704534      -10.98734223385835
H           13.85499940113581       21.85338362512918      -12.36200003119799
S           14.19943611767703       23.87827422175124      -11.08968909586285
H           14.78421532999827       24.19081659523377      -12.24135037159993
72
 energy: -105.942837113340 gnorm: 0.050926856117 xtb: 6.7.1 (edcfbbe)
Fe          16.38595691812413       23.21221619506725      -10.67418090807782
N           16.33023021202604       21.58649144299472      -11.86898664047835
N           16.92148264139836       24.38949886392892      -12.38594869184684
N           16.68073750619790       24.78258368601014       -9.44670450444009
N           15.93846236927501       21.97796532085190       -8.98678015985065
C           16.04171595967703       20.30564541483285      -11.46431501189699
C           16.03614675746579       19.43260143142869      -12.63083571536433
C           16.29105953203497       20.20962573280764      -13.72049639309879
C           16.45726509250770       21.57046551689415      -13.23850381573090
C           17.00679496806944       23.96302309912732      -13.67605363878886
C           17.46388202726945       25.03415570443794      -14.54887703144139
C           17.66886152222695       26.12156699531356      -13.72235192353741
C           17.31157912154154       25.69265944787572      -12.35792581292533
C           16.83596217017367       26.07935836428581       -9.89246038701629
C           16.50829748256092       26.98813646128144       -8.80595262270826
C           16.13896222599485       26.20649237693413       -7.72712240615122
C           16.25283915789162       24.82172780342523       -8.14363785504548
C           15.88384280328394       22.38487515749266       -7.69210260095739
C           15.65607110571083       21.23609458699708       -6.80654644645152
C           15.57511275276252       20.13880652616275       -7.61772417840865
C           15.75721712152943       20.63228229729049       -8.99074205845880
C           15.78926264488026       19.86591366163727      -10.15876262694349
H           15.60814078002153       18.80255932358228      -10.02382353118551
C           16.73004883492509       22.65476280410777      -14.07547343338773
H           16.75937818696368       22.46877084267695      -15.14544525846311
C           17.28079813755767       26.45862436290727      -11.18123940711530
H           17.63835570693206       27.48160320603655      -11.28566344736991
C           16.01442384590107       23.71806984232886       -7.30545138004483
H           15.90236312703223       23.90750481750360       -6.23935419219053
C           16.37464861718970       19.77826777089675      -15.16643962891443
H           15.53059884773920       20.16300104985891      -15.74866411349774
H           16.35856468288593       18.69048497811857      -15.24700207940273
H           17.28829334279039       20.13129662604740      -15.65243873899560
C           15.77858094784488       17.94484472354578      -12.61414839463400
H           15.09965634552693       17.65901684163410      -11.80956856733903
H           16.70558292911017       17.37812461818397      -12.47624871180651
H           15.32810408597056       17.61559078596724      -13.55283332256944
C           17.69049863937467       24.84569120132301      -16.03769021480195
H           16.76718187837758       24.55333072902451      -16.55289204100396
H           18.41988588990130       24.05174414702245      -16.24261763403221
H           18.05526045947597       25.75485233072172      -16.51895022542861
C           18.12861845019894       27.46955029163567      -14.10443676885708
H           18.98001595466865       27.90604107290295      -13.58395566053880
C           17.55140319630812       28.18957817371827      -15.06242960462003
H           16.69534600859706       27.81140200997945      -15.59497422772387
H           17.90137450555979       29.17613101728078      -15.33036123331962
C           16.50836344332214       28.49870963040458       -8.90660908423810
H           16.27796560862506       28.84227273380846       -9.91824220819747
H           17.48842395380894       28.91456276623628       -8.64347149243596
H           15.77434978636664       28.94629276070763       -8.23163727058802
C           15.67066802437816       26.61941547229342       -6.39377437957590
H           14.84748156102486       26.07797164904194       -5.92667220809703
C           16.21950099726140       27.61633034133342       -5.70404197421009
H           17.05020090874542       28.16549557409650       -6.10870319772735
H           15.86855107800333       27.89831217397335       -4.72220703965113
C           15.55209528798697       21.33546197858338       -5.30139833155504
H           14.71553152648142       21.97383647108742       -4.99826349171936
H           16.45701128888581       21.76824022698608       -4.86254302016137
H           15.39853923420431       20.35910638309729       -4.83700808580276
C           15.35738160658050       18.69086315873697       -7.23929020893317
H           15.07094661414528       18.58987042145087       -6.19009745400464
H           16.26140914196031       18.08901868241421       -7.38456826772922
H           14.56392615054247       18.23265069303460       -7.83696943457944
O           18.53555948761917       22.88098609057376      -10.38607930173224
H           18.97921257200874       23.60721586896998       -9.94569850033815
H           19.06172088315707       22.12321584211296      -10.64162328539906
C           13.20147862711735       22.52163396594379      -11.80318894430520
H           12.44484834162872       22.94426668696677      -12.46019151466385
H           12.72182015942111       21.98857969890604      -10.98892165479814
H           13.85065707964023       21.85146861238027      -12.35522071244092
S           14.20869894588740       23.86586502639636      -11.08373131992678
H           14.76379219774159       24.21032743638118      -12.24773437032812
72
 energy: -105.958187350911 gnorm: 0.035291793523 xtb: 6.7.1 (edcfbbe)
Fe          16.40229133631354       23.18219511213134      -10.68276026258031
N           16.30118091260705       21.57270126271269      -11.87464288441747
N           16.94631315644053       24.36668525373151      -12.35983530845632
N           16.61971531931783       24.78518467045835       -9.47274497509444
N           15.97589790171188       21.98359144003013       -9.00381368259720
C           16.04610850145546       20.29863802841925      -11.47117386227703
C           16.02738618717595       19.42436536424465      -12.63140692171269
C           16.27955699619163       20.20158192790677      -13.71751156676423
C           16.45447941370673       21.55542436441951      -13.22974280954065
C           17.01785572537687       23.93959061634433      -13.64790535043316
C           17.45317450439682       25.02426290119220      -14.50902422338369
C           17.66028875713555       26.10405288768057      -13.69195039648717
C           17.32367644010627       25.67254014649641      -12.32838055462202
C           16.83187937392968       26.07079681314754       -9.89445061251223
C           16.52533880178516       26.98199179540872       -8.80855092363327
C           16.15585766734738       26.21238697110955       -7.73656018261215
C           16.24249830881684       24.82959311868114       -8.16650429667645
C           15.90660276359284       22.40262233063024       -7.71595388967885
C           15.66600140264670       21.25698248903614       -6.83789186907163
C           15.58230522209660       20.16315456060531       -7.64341463037375
C           15.78339885375067       20.64235313904952       -9.01234852185916
C           15.80346011637282       19.87338880183380      -10.16865110487718
H           15.61615195100778       18.81502454585255      -10.03408107469697
C           16.73846625459784       22.63970999310926      -14.04975181360121
H           16.77804203511326       22.45074285829851      -15.11535119638936
C           17.27048016894370       26.44841479924560      -11.17280824098527
H           17.58131699331165       27.48522683035967      -11.28603268661720
C           16.01190029067752       23.73301190544665       -7.33536363159234
H           15.88407688413575       23.93441270518941       -6.27659046610452
C           16.37061244869915       19.78175022418216      -15.15330112724214
H           15.52966642488215       20.17505714909747      -15.72744100796183
H           16.35822792023593       18.69728920466547      -15.23296774760758
H           17.28804694335082       20.14246972633183      -15.61766866787077
C           15.77636436898307       17.94846463201720      -12.61105131134264
H           15.09918680885365       17.67490781270624      -11.80582912853856
H           16.70819830105291       17.39744681303438      -12.47208795566241
H           15.33160070127206       17.62638045967905      -13.55065669390391
C           17.68083826708103       24.85938745730181      -15.98910240450108
H           16.75848470663419       24.57156324700580      -16.49976928007667
H           18.41130556019202       24.06994075856562      -16.18503538182368
H           18.04838271413742       25.77269939410237      -16.45268459402367
C           18.10822584455713       27.44385747539559      -14.08246331221865
H           18.95281612970230       27.86730296874860      -13.54742889042529
C           17.54828795116507       28.16420979702401      -15.04925482949647
H           16.69411946801304       27.80125962035639      -15.59545614208440
H           17.90546004901897       29.14559193561237      -15.31774464880786
C           16.51817788617462       28.47896401241114       -8.90664101008270
H           16.27733253000639       28.80625935382792       -9.91695305397395
H           17.49533543364470       28.89144461213157       -8.64557904333946
H           15.78415612149830       28.90576620899275       -8.22400004801797
C           15.69459472516684       26.62443670835850       -6.41641442985943
H           14.87574258801903       26.06359302134387       -5.97440564258836
C           16.22584311730266       27.62321516224546       -5.71812195780904
H           17.06009636548668       28.18293789557207       -6.10200646306194
H           15.86626124775600       27.89665418952126       -4.74013476428048
C           15.55472692508343       21.34292978222712       -5.34062271656129
H           14.71828359183989       21.97792072272009       -5.04327554905548
H           16.45972463414892       21.76935309601925       -4.90462995486043
H           15.40241751234647       20.36344462553213       -4.88960342976201
C           15.36031535835770       18.72656626584952       -7.25746390754718
H           15.07673472993135       18.63538249467281       -6.20976831111866
H           16.26486156288171       18.13225985079591       -7.40449123137721
H           14.56939888337644       18.27226704969806       -7.85500067296492
O           18.52872525451195       22.86865732874510      -10.37679994004003
H           19.00039442815320       23.58863609317416       -9.95162402982482
H           19.07714983310742       22.12548997990482      -10.63996257925598
C           13.19304556217971       22.50925991384973      -11.80687946022366
H           12.43886478426127       22.94296149459004      -12.45606693008022
H           12.72258592465654       21.98331844375868      -10.98465246328409
H           13.84454519060945       21.84069921054803      -12.35560351196025
S           14.19294586597124       23.86071589952551      -11.08460911897014
H           14.71121309563492       24.25166027538673      -12.25654871686464
72
 energy: -105.967103345797 gnorm: 0.023458926162 xtb: 6.7.1 (edcfbbe)
Fe          16.42438416727759       23.16762708301586      -10.68321375264949
N           16.29605320460751       21.57143371778691      -11.86523994274148
N           16.96143909427393       24.33812249385814      -12.32334650026119
N           16.58122630734873       24.78447117879083       -9.49779736236789
N           16.00098666807962       21.99880201404169       -9.03752070151259
C           16.03431118829032       20.29810126557236      -11.47438358554149
C           16.02041078030691       19.41837642323074      -12.62625051052592
C           16.27305695094226       20.19967074661105      -13.71268023251517
C           16.44413571452235       21.54823934176887      -13.21679830900022
C           17.02648020935841       23.91785548735811      -13.61152748329112
C           17.44309987748625       25.00584486881402      -14.46934670767804
C           17.64666974958350       26.08619898985843      -13.65499776394652
C           17.32115328368171       25.64663869501040      -12.30055444751364
C           16.80774617117693       26.06191302489533       -9.90648023772846
C           16.54488516402263       26.97714769608753       -8.81575944806649
C           16.17361677172546       26.21100860111082       -7.74361112937240
C           16.22181267492692       24.83130491707487       -8.19261932510211
C           15.91961239731136       22.41817566050714       -7.75184563092559
C           15.67785804700886       21.28323994625480       -6.87257241698864
C           15.59540049233847       20.18628838757429       -7.67568722472425
C           15.80404866559826       20.65987043711804       -9.03653965212729
C           15.80714200681284       19.87343475966893      -10.17477860041205
H           15.62626241677746       18.81760202537123      -10.03646215908271
C           16.74585885195145       22.62729836370948      -14.02962072922712
H           16.80199225625897       22.43491603075494      -15.09141788976617
C           17.24371228690893       26.44795402488867      -11.17080915140307
H           17.52655066557487       27.48741970979534      -11.29056477321381
C           15.99745213335382       23.74420863619704       -7.36139884672919
H           15.86102236055954       23.95485381768688       -6.30935906346318
C           16.36832821696559       19.78829745311588      -15.14118169176732
H           15.53119910993623       20.18744731444740      -15.71451544569015
H           16.35778229262615       18.70518748267047      -15.22609764479722
H           17.28967710914445       20.15485226826214      -15.59017886219894
C           15.77483016913161       17.95049886777276      -12.60479782547704
H           15.09512469435779       17.68056490411609      -11.80178505160119
H           16.70898450682941       17.40739057497957      -12.45994278454427
H           15.33689058966694       17.62752025759112      -13.54612838834101
C           17.67071418280755       24.86734189973496      -15.93977263804450
H           16.74814687103023       24.59083465117978      -16.45120651369943
H           18.40258876990285       24.08200658202977      -16.13464939561132
H           18.04063881803594       25.79230835831197      -16.37544019445148
C           18.08483992452012       27.41967291905366      -14.04810193899336
H           18.91828074301515       27.83444342925641      -13.49111929125352
C           17.54625801848575       28.13339752348639      -15.02984417271379
H           16.69711036399224       27.78035323022462      -15.59284801468444
H           17.91403119966887       29.11036996558819      -15.29912824425154
C           16.53679102201928       28.46248936441323       -8.90964800380455
H           16.27936784421750       28.78353595645669       -9.91637787108303
H           17.51211055624928       28.87792814497653       -8.65618738392909
H           15.80534858857256       28.87140872394975       -8.21458093277438
C           15.72362250611747       26.62343095323491       -6.43086849603255
H           14.90652836346342       26.04658413976605       -6.01189327345348
C           16.23576023594845       27.62907450278968       -5.73112020064162
H           17.06806913050556       28.20463905040140       -6.09973406759020
H           15.85961257841937       27.90045516242233       -4.75924839417302
C           15.55947283744561       21.35940268235660       -5.38463725564624
H           14.72048022440219       21.98978858842926       -5.09095412761998
H           16.46413465597526       21.78172069856181       -4.94787830588327
H           15.40757804283565       20.37380855827590       -4.94941664745321
C           15.36664871385569       18.76221099300866       -7.28397993731918
H           15.08462662019513       18.68405214846223       -6.23616668425444
H           16.27145490629196       18.17127757983788       -7.43175515583966
H           14.57360783756529       18.31298256377596       -7.87971154717575
O           18.53605709143731       22.83575618483035      -10.34428742556497
H           19.03502603444119       23.56767099596129       -9.96861905137778
H           19.11249119825651       22.12659330117912      -10.64541291946952
C           13.18481496811518       22.49746896880673      -11.80931515866479
H           12.42720945098963       22.93405716265209      -12.45153942909899
H           12.72209987139086       21.97328756509422      -10.98120756381241
H           13.83359418802024       21.82744877040262      -12.35991773744606
S           14.18589708675333       23.84713606149923      -11.08446091603717
H           14.64278930833365       24.30028515222152      -12.26815983785669
72
 energy: -105.971047670808 gnorm: 0.032117368397 xtb: 6.7.1 (edcfbbe)
Fe          16.41953375386397       23.16438881705281      -10.68646230880548
N           16.29091465989080       21.57271637134973      -11.85530126188738
N           16.97326812616025       24.30914815551887      -12.28593022066741
N           16.54729899737438       24.77551313902887       -9.52043418792870
N           16.01183065923496       22.01709211077350       -9.07315334706927
C           16.03902796541221       20.29130226918715      -11.47331371763190
C           16.00905977846132       19.41551433079557      -12.62408727212749
C           16.26601702999189       20.19769545754511      -13.70813725341644
C           16.45038943178891       21.54050811586034      -13.20751473617948
C           17.03792048064083       23.89826708165727      -13.57766652500961
C           17.43564540771505       24.98741412571189      -14.43543732780957
C           17.62851546637289       26.06936241508261      -13.62127693717562
C           17.31452243217702       25.62232536491263      -12.27577504089853
C           16.80580078575187       26.05666394694709       -9.90963651906551
C           16.55674708895738       26.97388898318798       -8.82158968160331
C           16.18592312793582       26.20854620531636       -7.74977947852282
C           16.21435906532226       24.83225578790329       -8.20689940443387
C           15.92241456652937       22.43199157208543       -7.78615992039291
C           15.68412388177901       21.30654145961564       -6.90501440242866