72
 energy: -105.980504838795 gnorm: 0.000031680969 xtb: 6.7.1 (edcfbbe)
Fe          16.36118324773442       23.18616185917610      -10.75840800378080
N           16.32842620668653       21.56781261494362      -11.92924944253198
N           16.95605815571585       24.30410410989013      -12.32547326192242
N           16.44677668028775       24.80838589001771       -9.57659394071952
N           15.86711752021526       22.06465125207547       -9.18738079685929
C           16.06932068824353       20.29003970194281      -11.54903996622824
C           16.13520658497947       19.39459428118964      -12.68306050307722
C           16.44304540911781       20.16476390134116      -13.76005696955601
C           16.57124032147148       21.51871977516459      -13.26673853438299
C           17.11266378434784       23.88828793187957      -13.61366626217679
C           17.52047780593551       24.98021878901006      -14.45744546018148
C           17.60629454392692       26.08210113868826      -13.64745427108449
C           17.24427167544609       25.63272312884164      -12.31909605968412
C           16.76284667322268       26.07904334663992       -9.95200363299581
C           16.64764577137092       26.98486994948512       -8.83797475511656
C           16.24402731554229       26.23012927956667       -7.76898769893834
C           16.11705360142438       24.87341716003230       -8.26164994523690
C           15.66581695899186       22.48879677221146       -7.91307079579750
C           15.32922009167623       21.37644478712110       -7.05046680093649
C           15.34061217602337       20.26816790101180       -7.83691730802116
C           15.67806353351137       20.72017234735585       -9.16922187226688
C           15.77045345674627       19.88195846183438      -10.26297296840112
H           15.59567352317679       18.82963127839375      -10.10190085307261
C           16.91809469903375       22.59290677192795      -14.06134263042562
H           17.06775904424164       22.40299523264529      -15.11263861133306
C           17.15401176171907       26.46544217551990      -11.22109900567758
H           17.38719209707181       27.50790134362168      -11.37018791814183
C           15.76384738123950       23.79453619596144       -7.47403513757475
H           15.56063769044266       23.98331294737105       -6.43153975234696
C           16.63752472732959       19.76698481688524      -15.18246353247822
H           15.95326564190475       20.31352583052733      -15.83190314968264
H           16.45785570511853       18.70294530440986      -15.31371961022578
H           17.65612015090926       19.98445734172964      -15.50473402342612
C           15.90101798494495       17.92546867282051      -12.60658173857093
H           14.90063923114346       17.71369491222901      -12.22784123574345
H           16.62225985764435       17.45942433730600      -11.93524587733101
H           16.00013265070740       17.46670272888956      -13.58713217925520
C           17.84847097999262       24.86781120362472      -15.90486502698104
H           16.94295843314276       24.90347886813381      -16.51270183421373
H           18.35769940732360       23.92813882612227      -16.11356779985266
H           18.49579895442051       25.68917189960464      -16.20512131991888
C           17.99629450452760       27.43475819332475      -13.98029302278120
H           18.53293782432303       27.97126277574975      -13.20626805502350
C           17.74212753767774       28.04710944923556      -15.13171279006282
H           17.17170643117843       27.58000139379035      -15.91534791090256
H           18.07449690797872       29.05460484660693      -15.31867402366601
C           16.86128199291142       28.45611796768750       -8.90536384347833
H           16.47362438641212       28.85823180565929       -9.84003979575862
H           17.92356576615646       28.69970967645781       -8.84648355196273
H           16.35081796505947       28.94426920401828       -8.07793791048208
C           15.95974028335570       26.64246073600119       -6.41174147191255
H           15.16069676108370       26.10309464355342       -5.91684037870625
C           16.59791523547331       27.60195839187018       -5.75035321956007
H           17.42850090839079       28.13715094487090       -6.17668674499557
H           16.32542698659185       27.86852608552028       -4.74279159421145
C           15.04324964843471       21.50023224962901       -5.59380402347321
H           14.19229815127972       22.16054901665197       -5.42458452977293
H           15.90340734412472       21.91616481888339       -5.06900834341706
H           14.81446804795915       20.52954475020629       -5.16111124146440
C           15.07061296004669       18.84841939366108       -7.47560520988277
H           14.84890305290130       18.75496158764636       -6.41550880413224
H           15.93645190457668       18.22608724708388       -7.70144124946307
H           14.22039246448431       18.46315036107211       -8.03929040353569
O           18.54545289149911       22.89530981641752      -10.32472147097165
H           18.68516216272773       23.53819057825351       -9.61990276142480
H           18.93400784288738       23.26392072250316      -11.12652637761960
C           13.09661406677654       22.24042982454673      -10.89761198114172
H           12.13914532904856       22.33644469651831      -11.40032587396914
H           12.95770976775402       22.25150874832584       -9.82161195496874
H           13.60997152546089       21.33144599118472      -11.19226040126207
S           14.13375915003981       23.68890494167358      -11.30353801617257
H           14.19947807477961       23.42638407424350      -12.61406255764430
