72
 energy: -105.980112077207 gnorm: 0.000090324321 xtb: 6.7.1 (edcfbbe)
Fe          60.26227446336640       20.23465991122096        8.42429706079852
N           60.56028625952639       18.80003948400721        9.79999969588519
N           58.92600236288456       19.03651729127114        7.49330964048536
N           60.01717953227656       21.61029624829279        6.99841196077871
N           61.62353779118831       21.37261408303654        9.31170638172582
C           61.36453557044156       18.87836198502953       10.89232835319193
C           61.29129669613025       17.66209903180813       11.66919748321232
C           60.42756290765507       16.84000851631631       11.01413758637479
C           59.97599734576882       17.57012166700891        9.85167720244484
C           58.55987272102183       17.77262553169275        7.85457292243464
C           57.55222231688403       17.25921636873990        6.96605961512169
C           57.30083913151217       18.25032230717790        6.05277544374107
C           58.18606572564859       19.34405151394337        6.39389173526449
C           59.14296891987329       21.56437144146495        5.95544374107636
C           59.24660094345158       22.75353077235595        5.14779649803106
C           60.21432280609708       23.52738759146636        5.72914868994638
C           60.67888349400324       22.78692615484531        6.88574921125729
C           62.05471194984513       22.59132723829183        8.90263108543188
C           63.03494099727705       23.12513193768770        9.82586973967099
C           63.17766709663700       22.19725504798139       10.80696533172860
C           62.28854368822337       21.10649711752584       10.46437657279600
C           62.16655448523560       19.95585832632629       11.21713356098247
H           62.75430064217677       19.88355353197798       12.11884817513868
C           59.05737756891138       17.07838435048081        8.94514306855981
H           58.67302183391727       16.08559375422841        9.11902534105406
C           58.26659535816531       20.52822731441595        5.68639313217426
H           57.60375403079107       20.64747876625824        4.84377577634366
C           61.62818143310243       23.25733910643742        7.77197989881554
H           62.06056865148574       24.22540749389465        7.57298661398812
C           59.98324462015222       15.46194999157941       11.36540913022889
H           60.47319394266439       15.11837541333379       12.27284004604115
H           60.22207963964980       14.76441778965787       10.56219758716535
H           58.90513349416659       15.43529224447425       11.52671809584549
C           62.04945405046939       17.42477493653079       12.92913878868975
H           61.79751493422370       18.17864607477149       13.67508995106022
H           63.12280230502496       17.47704689944106       12.74553253366106
H           61.81953258875431       16.44516754965076       13.34073065038903
C           56.97494008341170       15.88865493573171        7.02747769787757
H           56.17344059273081       15.83503840232306        7.76631965481086
H           57.73659730103577       15.16090567967834        7.30390533718740
H           56.56587153325523       15.61344281399011        6.05755514513375
C           56.38315367968580       18.25002596358976        4.93477515850960
H           56.70671643979570       18.80518615156553        4.06210840890245
C           55.20227477338788       17.64145165491239        4.91013951345942
H           54.80933816862614       17.11656227444936        5.76338194114878
H           54.57216011549993       17.67149608574619        4.03699883325821
C           58.48674293996464       23.00591974343411        3.89301688702908
H           57.48434171197866       23.37710320975373        4.11275847669056
H           58.38732859498026       22.09091759275189        3.31084090594238
H           59.00330776922161       23.74813458568547        3.28824827265014
C           60.73276607001301       24.81193520281941        5.31196666414766
H           61.78750114444117       24.97342286332248        5.50090165072712
C           60.02328637969604       25.77750630256450        4.73786800382676
H           58.96383583513470       25.68846780588327        4.57163669515963
H           60.47663586992711       26.70799598096305        4.43916803953056
C           63.70860783174412       24.44347762212950        9.66402739557035
H           62.97375547204410       25.24838755147266        9.64674018404708
H           64.26731919341535       24.47435309036960        8.72857193531421
H           64.40018919377074       24.62756725130890       10.48233968343045
C           64.05166271114747       22.22058647258783       12.01311693432292
H           63.45361820571112       22.13867809288818       12.92085417589657
H           64.61999838038346       23.14598646205689       12.05991385305097
H           64.75409081041805       21.38705982575994       11.99348306665963
O           61.82546362876515       19.21199193979707        7.18044243307036
H           61.30292892702449       18.90847634727723        6.42950380819629
H           62.02315916927122       18.43891665674888        7.72157485339940
C           57.64031337785967       19.96338730388982       10.57471722584206
H           56.68807013022693       20.35908418502386       10.91403524005186
H           58.26213579790323       19.70271916835924       11.42457487381400
H           57.50335152171117       19.09504894877949        9.93996667498770
S           58.53446403436811       21.26379158986736        9.65317494073702
H           57.64001031283417       21.34244545791182        8.66160713408160
