87
 energy: -128.467560130894 gnorm: 0.000072251338 xtb: 6.7.1 (edcfbbe)
Fe          17.19339864587064       54.27432980188825       35.36067650308591
N           16.87531228054755       56.24314255359111       35.18234972662304
N           15.33925690079423       53.91107476027444       34.69546312648994
N           17.53258904616931       52.30278836287034       35.50142406655189
N           19.03159262358015       54.63838117523251       36.06612247079536
C           17.72746435344004       57.24262193802485       35.52261484310944
C           17.15303132808039       58.53395047886902       35.21027807625829
C           15.93233080006412       58.28636734340980       34.66588047776836
C           15.77346738071183       56.84758624721709       34.66510867834489
C           14.42917286109206       54.83094058655537       34.27981356388965
C           13.19302100585666       54.19424398887848       33.90980544843250
C           13.36071417123572       52.85541677305628       34.14528087723419
C           14.72705236686668       52.70208218084111       34.60812812101194
C           16.66085738331768       51.30371884424595       35.19323494789413
C           17.28090525956115       50.01468418457342       35.35622145059938
C           18.56136169523547       50.25485118777485       35.78402126590085
C           18.69135074524924       51.69710143620845       35.86111777180836
C           19.96867956292148       53.71883842371627       36.41381891241127
C           21.15766548584686       54.36784993062675       36.92252054079920
C           20.91261686425315       55.70450725887656       36.87286919184365
C           19.58069719252655       55.85255810716770       36.32773895551104
C           18.98198229988716       57.07416416555411       36.08019823145332
H           19.54407267630443       57.96365401967572       36.32257368301665
C           14.63281824684607       56.20091861720476       34.23255296946109
H           13.82605519592940       56.80997352303649       33.85276059486686
C           15.34494260062791       51.48112946916734       34.79930293629349
H           14.75805001793871       50.59634349970560       34.60652352599348
C           19.82904817962142       52.34785042701339       36.30541634619213
H           20.67030067991924       51.73932490269910       36.60180354924476
C           14.91044072599572       59.24646271523882       34.15946811440737
H           15.26787602140788       60.27038299250196       34.23872371639559
H           13.98585270715305       59.16148197620597       34.73159030638124
H           14.67947245798414       59.04366446026489       33.11341931854173
C           17.82946742243583       59.83879472769974       35.45981051175748
H           18.76867427061922       59.89649030490463       34.90867052142215
H           18.05300364732808       59.95772501968521       36.52034564672830
H           17.19885666484747       60.66812854227724       35.14833120538955
C           11.97342123902857       54.90441341145171       33.43124713799215
H           12.20489904322769       55.52541910300167       32.56542889488881
H           11.57406918227040       55.55250888231689       34.21252283913870
H           11.19949307809661       54.19323048154855       33.15311735509113
C           12.37071477434659       51.81393387645615       33.97065576812661
H           11.70357743349721       51.94582747775021       33.12473562520009
C           12.19522239347823       50.76598520960754       34.76845768686491
H           12.79116725419345       50.61522571859735       35.65243540514989
H           11.42900502199557       50.03290741380182       34.57618536105251
C           16.64009806470009       48.70715424788449       35.04233915029222
H           15.98447020336621       48.79543042038625       34.17724401723689
H           16.04008346256509       48.35487057507107       35.88328579104249
H           17.40167849083774       47.95954815522984       34.82843388390092
C           19.61887512077115       49.31614054808517       36.08273358558796
H           20.62411040111299       49.66450239945043       35.87381127177728
C           19.45582524405997       48.09705726526610       36.58814112918169
H           18.48835125231038       47.71328541933993       36.86064255882047
H           20.29524847282261       47.44649293826105       36.77104785716396
C           22.37565505142476       53.64728394564036       37.39162325653753
H           22.80839374309440       53.05931573597697       36.58163357518963
H           22.13068908645336       52.96688089235588       38.20784953437616
H           23.12856808954919       54.34803256106127       37.74456414044729
C           21.78961791429828       56.84150753375704       37.27384334999379
H           22.72868141747167       56.48004564816058       37.68615880570654
H           21.29808833480332       57.45752588107254       38.02723706801020
H           22.01452720234634       57.47484438697302       36.41498874313302
C           19.92270917964353       55.29403468458696       30.58893072003625
H           19.34331236721088       55.61921209580275       29.72470069440115
H           20.65162202966712       54.55666144813656       30.25240684756576
H           20.45462385918892       56.14966823901911       30.99304969249253
N           18.24107529502836       53.62822923488509       31.40730292347063
H           18.17664488602999       53.11586536413434       30.54310963704307
C           19.03636376373873       54.72147395790261       31.63389331391013
C           17.56816831372219       53.36815512838356       32.55122200956995
H           16.87037866316858       52.56465934174922       32.66750475421374
N           17.88858074028097       54.22829364583896       33.48591890924703
C           18.80024652171912       55.07649665327927       32.93089302781166
H           19.22195645002461       55.87912338618628       33.49931966930974
C           14.20097717456089       55.17851979989939       39.99517812285829
H           14.66452905992323       55.73459059965046       40.81019104409503
H           13.66418647993856       54.33151871627646       40.42263986762458
H           13.48735893674181       55.82520242299145       39.49426993907993
N           16.25596552714429       53.88877362934537       39.37369575583436
H           16.42454696208677       53.51662979334887       40.29379541992434
C           15.22317184692074       54.71829039159557       39.02120219868058
C           16.99652712340124       53.66383976095681       38.26466111415505
H           17.87151853954713       53.04760226154863       38.24176298234978
N           16.49649387000847       54.29932177797782       37.23407834202446
C           15.39374224056180       54.95986220705067       37.68836762613449
H           14.80131742957210       55.56008040419444       37.02956140233614
