72
 energy: -105.980693881655 gnorm: 0.000026821934 xtb: 6.7.1 (edcfbbe)
Fe          -5.97256000687030       24.67834201620943        7.51473414946928
N           -4.26438387721398       23.67606653837572        7.30616246633894
N           -5.60019850715654       24.92754227580997        9.46441376514857
N           -7.73455333421036       25.63475226972764        7.73078947122920
N           -6.39557516251736       24.36184619035081        5.58116655077054
C           -3.75464457299900       23.15924819153878        6.15957658028791
C           -2.48043571530442       22.51920267839009        6.40797313411958
C           -2.24068935136959       22.65212749582760        7.73888634614961
C           -3.36797397958986       23.37868975180623        8.28276196072200
C           -4.53464153207252       24.44412930255972       10.15849751420956
C           -4.61644162039339       24.81467282587688       11.54810988807448
C           -5.76587109754318       25.54607839219683       11.68435891392948
C           -6.37136066916157       25.58726177921446       10.36751907113245
C           -8.19782552965929       26.24141789739921        8.86036817417530
C           -9.47185108628033       26.86506032083372        8.61904856042764
C           -9.78059642578379       26.61578328084924        7.30737386733025
C           -8.66796054285495       25.86093177365020        6.76973722372067
C           -7.51387715548764       24.74989831910985        4.91154747401841
C           -7.43089728026878       24.37240579367738        3.51805199288663
C           -6.22546675103594       23.76380402227754        3.35865486052821
C           -5.59426397141348       23.76567002452080        4.65931669037808
C           -4.35714638912170       23.20924656171421        4.91710805059032
H           -3.82845092743339       22.76506007109480        4.08829416721131
C           -3.48713430034215       23.72227657886890        9.61361055020061
H           -2.69734971308761       23.41142526977846       10.27960127990182
C           -7.56182819833969       26.23015193207606       10.08919963276802
H           -8.05108613625187       26.74287827707203       10.90241198439122
C           -8.58497376531350       25.42842497875836        5.45952374670828
H           -9.40905180653864       25.66238819649389        4.80423719916535
C           -1.08106150021982       22.17636262904024        8.54390410529987
H           -0.36091495635949       21.65852674422169        7.91545464587564
H           -1.41331708302456       21.48934338869658        9.32221422885359
H           -0.57667479940654       23.01482978733672        9.02503931342042
C           -1.65484235043237       21.85747584681889        5.35931607020915
H           -1.39974287235106       22.56390585405493        4.56912790596837
H           -2.20148430774701       21.02891261585332        4.90866879509902
H           -0.73204983740312       21.46849215430068        5.78232407146471
C           -3.65180967938622       24.39872927990277       12.60229307328105
H           -2.76855825817805       25.03998563988877       12.59926449641153
H           -3.32482619625816       23.37295785525678       12.43977949127411
H           -4.12004128156567       24.46430518221713       13.58214550016553
C           -6.33194361377214       26.14700792978572       12.87221595772821
H           -7.41443079633234       26.15596962212532       12.92353063211052
C           -5.63462133408940       26.67912872941267       13.87031138400277
H           -4.56033124260561       26.73896931234758       13.85093798972964
H           -6.12025214557395       27.09916044263012       14.73529174253775
C          -10.23511949758578       27.66604260861639        9.61441033285702
H           -9.56125486521272       28.26204199764206       10.22812110972723
H          -10.81138738799962       27.01808356321279       10.27707471577675
H          -10.92479172960391       28.33469718935179        9.10358387849987
C          -10.94217115222719       27.02496274495390        6.54840477377254
H          -10.76371517786004       27.24727080081137        5.50300887825456
C          -12.17532435709524       27.13452322178001        7.03080811138079
H          -12.41752401129326       26.88197213725446        8.04845032582420
H          -12.99525520102744       27.45835147644032        6.41172160947606
C           -8.49415517327958       24.64302762794653        2.51053101567550
H           -8.65195289012686       25.71619093319709        2.40155002785435
H           -9.43817119860119       24.19152411273759        2.81643867722453
H           -8.21894509411121       24.23754365526528        1.54021935029547
C           -5.61365763594840       23.18473304598770        2.13021843268477
H           -4.67055794556113       23.68184463335178        1.90323489846944
H           -6.27630409266311       23.30149204662892        1.27644201693136
H           -5.41191109919093       22.12194438401161        2.26612927838727
O           -7.10838033886637       22.79091489464716        7.94749996154493
H           -7.33190884953253       22.50218281406108        7.05506841095975
H           -7.91199943029117       23.15443685620869        8.33692166525710
C           -3.29283541552280       26.77329131112282        7.67742619682781
H           -2.93750658038194       27.79872479459232        7.70764640785263
H           -2.67821428344902       26.18325493816213        7.00561227117517
H           -3.29238681485718       26.32470726299479        8.66498659935618
S           -4.98671155192925       26.74719576917417        6.99270984230906
H           -5.52886656544904       27.46119915987660        7.98592654223485
