72
 energy: -105.781227199320 gnorm: 0.352224689695 xtb: 6.7.1 (edcfbbe)
Fe          -6.02400000000000       24.82999999999999        7.54300000000000
N           -4.44000000000000       23.57900000000000        7.38900000000000
N           -5.62500000000000       24.76800000000000        9.60000000000000
N           -7.90900000000000       25.38200000000000        7.86700000000000
N           -6.46200000000000       24.42100000000000        5.52600000000000
C           -3.68700000000000       23.32900000000000        6.16400000000000
C           -2.32000000000000       22.79900000000000        6.37900000000000
C           -2.12600000000000       22.79100000000000        7.83300000000000
C           -3.38900000000000       23.35700000000000        8.35900000000000
C           -4.63600000000000       24.27600000000000       10.36200000000000
C           -4.67400000000000       24.49500000000000       11.84100000000000
C           -5.88000000000000       25.28000000000000       11.88600000000000
C           -6.36200000000000       25.41300000000000       10.51700000000000
C           -8.27400000000000       26.25100000000000        8.97700000000000
C           -9.42400000000000       27.13300000000000        8.73900000000000
C           -9.73100000000000       26.81300000000000        7.33400000000000
C           -8.75600000000000       25.86000000000000        6.81700000000000
C           -7.62900000000000       24.68200000000000        4.84900000000000
C           -7.65700000000000       24.29799999999999        3.42000000000000
C           -6.31400000000000       23.74400000000000        3.22400000000000
C           -5.69100000000000       23.85600000000000        4.57800000000000
C           -4.28300000000000       23.44100000000000        4.83400000000000
H           -3.65700000000000       23.20600000000000        3.97400000000000
C           -3.57100000000000       23.49300000000000        9.78400000000000
H           -2.87600000000000       22.98400000000000       10.45100000000000
C           -7.61900000000000       26.14200000000000       10.27900000000000
H           -8.09200000000000       26.63300000000000       11.13000000000000
C           -8.81200000000000       25.28700000000000        5.46100000000000
H           -9.74900000000000       25.31400000000000        4.90600000000000
C           -0.91900000000000       22.33300000000000        8.65500000000000
H           -0.06000000000000       22.14100000000000        7.97700000000000
H           -1.16700000000000       21.39500000000000        9.19600000000000
H           -0.63600000000000       23.12600000000000        9.38000000000000
C           -1.35000000000000       22.31600000000000        5.33400000000000
H           -0.84900000000000       23.18800000000000        4.86100000000000
H           -1.89500000000000       21.74600000000000        4.55200000000000
H           -0.57900000000000       21.67100000000000        5.80700000000000
C           -3.75900000000000       24.07100000000000       12.98800000000000
H           -3.10100000000000       24.92000000000000       13.27000000000000
H           -3.12700000000000       23.21600000000000       12.66700000000000
H           -4.37100000000000       23.78100000000000       13.86900000000000
C           -6.57400000000000       25.83800000000000       13.04500000000000
H           -7.67100000000000       25.80900000000000       13.12200000000000
C           -5.87100000000000       26.38800000000000       14.02000000000000
H           -4.77300000000000       26.42700000000000       13.96300000000000
H           -6.37500000000000       26.81300000000000       14.90000000000000
C          -10.04600000000000       28.10800000000000        9.71800000000000
H           -9.25100000000000       28.74300000000000       10.16400000000000
H          -10.55900000000000       27.54900000000000       10.53000000000000
H          -10.77300000000000       28.76000000000000        9.18800000000000
C          -10.72300000000000       27.39900000000000        6.40900000000000
H          -10.40500000000000       27.67000000000000        5.39200000000000
C          -11.99700000000000       27.62800000000000        6.72100000000000
H          -12.38000000000000       27.38000000000000        7.72200000000000
H          -12.68200000000000       28.06800000000000        5.98200000000000
C           -8.77300000000000       24.40900000000000        2.40500000000000
H           -9.06800000000000       25.47400000000000        2.29300000000000
H           -9.65300000000000       23.82600000000000        2.75000000000000
H           -8.42600000000000       24.02600000000000        1.42200000000000
C           -5.73400000000000       23.18400000000000        1.95000000000000
H           -5.39800000000000       24.01800000000000        1.29800000000000
H           -6.50800000000000       22.59500000000000        1.41200000000000
H           -4.86200000000000       22.53800000000000        2.18700000000000
O           -7.11100000000000       22.51100000000000        7.85300000000000
H           -6.39900000000000       21.87500000000000        7.78800000000000
H           -7.97000000000000       22.32700000000000        7.99200000000000
C           -3.41600000000000       26.86000000000000        6.86500000000000
H           -2.75300000000000       27.51900000000000        7.46500000000000
H           -3.35000000000000       27.18200000000000        5.80400000000000
H           -3.03600000000000       25.82000000000000        6.95300000000000
S           -5.11300000000000       26.95000000000000        7.43500000000000
H           -4.84500000000000       26.52800000000000        8.66200000000000
72
 energy: -105.895577325054 gnorm: 0.165575012767 xtb: 6.7.1 (edcfbbe)
Fe          -6.05941410504781       24.70887529203740        7.55789448856710
N           -4.34460764702804       23.61548135246224        7.37020229664603
N           -5.62083142618928       24.78394922038699        9.62403706955295
N           -7.89702968783964       25.47266418264799        7.85502505438312
N           -6.47013561698625       24.42649765867824        5.50057665331324
C           -3.69405646879294       23.31469597925673        6.14721864840094
C           -2.34160239068015       22.80406246781905        6.40244529037307
C           -2.15314089057050       22.79664005320557        7.80620638680701
C           -3.38984258033189       23.32992078176883        8.36886951698834
C           -4.61448370364622       24.24514057714637       10.35956780627240
C           -4.70712919302233       24.51053806122356       11.81074869607145
C           -5.88985997941267       25.27353571507139       11.87996992260752
C           -6.40617671240478       25.41524931003141       10.52794168511867
C           -8.27066746159989       26.23981639441787        8.98699564895234
C           -9.41066057716926       27.09940336452174        8.70320789787675
C           -9.72191956328951       26.81836034909355        7.33540596528039
C           -8.77321302883912       25.84319100685093        6.82954734625977
C           -7.65589722381380       24.68491174967537        4.86100070422918
C           -7.62408528000514       24.28528686014547        3.44588769086634
C           -6.32516870726797       23.75746198727438        3.25460856148205
C           -5.66069429364318       23.86275581222844        4.57303672658616
C           -4.30103137906623       23.44262794998226        4.85930859100824
H           -3.67566784021210       23.20586922249961        3.99925264698153
C           -3.57750153844785       23.48968060966101        9.76544620551823
H           -2.87441127147655       23.00255144502216       10.43358261369782
C           -7.61674920791671       26.12969626637032       10.25155279873942
H           -8.08112590892133       26.62684292323151       11.10099236190797
C           -8.78469698298451       25.28852802645868        5.49403203328469
H           -9.71319033548402       25.33521836954503        4.92234900566605
C           -0.94887777431423       22.34477766366869        8.62847095291957
H           -0.08056326570335       22.14637196733593        7.98367191454831
H           -1.16930510820152       21.41654174386113        9.18194261939365
H           -0.64933966595457       23.11113891026508        9.36164831412077
C           -1.36813662000933       22.32723771431028        5.35291955576815
H           -0.85877213194216       23.17625647811766        4.86899299369754
H           -1.88573386123561       21.75581794202985        4.56820107150543
H           -0.59678576104850       21.68368650393024        5.80013762179945
C           -3.78533458204727       24.08081907273731       12.94961660461711
H           -3.11718243922568       24.90353479377854       13.25605038555411
H           -3.14543805978598       23.23129122777549       12.66638195419271
H           -4.36626087006841       23.78972756807450       13.84059208552896
C           -6.56333576749606       25.83112683084717       13.04612484314327
H           -7.65325108977009       25.80443229380138       13.11052453708025
C           -5.86851272321640       26.38591888056999       14.02968623167612
H           -4.78636701673531       26.43430906149305       13.97510489508458
H           -6.36346039071296       26.80985652085185       14.89770660895113
C          -10.03022540767888       28.08115973898995        9.68597040334419
H           -9.26192313127836       28.72311770990917       10.14932165536876
H          -10.54766351054342       27.55489390944543       10.50664324321576
H          -10.75799598189915       28.74101707140953        9.19069489491798
C          -10.71751546249543       27.40665331954578        6.42664602741478
H          -10.39534896558322       27.65703628863782        5.41174841843874
C          -11.99271541315970       27.63252164261816        6.72947044697398
H          -12.38341964046652       27.38417208801800        7.71101428826800
H          -12.67523200036520       28.06124969910112        5.99854347675412
C           -8.74414793639185       24.40841736721792        2.43066716537359
H           -9.05769578430331       25.45687883789116        2.30026071493760
H           -9.63223141051908       23.83724680448493        2.74650881210369
H           -8.42678242648529       24.03328608943097        1.44657116108673
C           -5.74333546913758       23.19696050691085        1.97738143807844
H           -5.40410802916398       24.00717268088707        1.31152156053493
H           -6.49325498330090       22.60785740489216        1.42668852663162
H           -4.87919896017888       22.54992865144942        2.18447676278471
O           -7.08179536954927       22.54080505908238        7.84737724208884
H           -6.40096781435408       21.87419101195393        7.78589443868954
H           -7.98388413307932       22.32467847306612        7.99209617577342
C           -3.40090443225168       26.85655076328818        6.86238009987418
H           -2.76171483684679       27.51697468749559        7.46179050264710
H           -3.35417264176236       27.17718400089706        5.81542758987672
H           -3.03677518157275       25.82663168729015        6.94667954136118
S           -5.11534049742187       26.93591187747099        7.42836544297576
H           -4.83700245065404       26.54820446645377        8.67017646746571
72
 energy: -105.940630951885 gnorm: 0.048348793023 xtb: 6.7.1 (edcfbbe)
Fe          -6.08489791928962       24.61744954941847        7.57277103139935
N           -4.29513877275997       23.62341412857581        7.35968529433840
N           -5.63757129445873       24.77300443573843        9.64038200582559
N           -7.88609155304557       25.52059896303377        7.84639390215867
N           -6.47975319229236       24.41071230044880        5.50328691213301
C           -3.70131192448562       23.33363831734654        6.15427313680024
C           -2.36145581808720       22.80453437455233        6.42168346331659
C           -2.18142711390863       22.79392212064523        7.77705905839871
C           -3.39810091566574       23.32994941802457        8.35842167412829
C           -4.60858637292672       24.21761876194425       10.35042642539323
C           -4.73955929089428       24.51889492152543       11.77606932237043
C           -5.89846326225260       25.26260938671033       11.86820617962240
C           -6.44810947171365       25.40762774573336       10.52743607215127
C           -8.24494398963485       26.23522378584892        8.96807262716073
C           -9.39947706420743       27.06700122432891        8.66752506562169
C           -9.71420034907558       26.81145459043018        7.34558856122760
C           -8.75131740865468       25.84225443534618        6.84325186474934
C           -7.66989490184439       24.68046166226141        4.88815955546073
C           -7.59151884857725       24.27291317323415        3.47936039520654
C           -6.33040568783622       23.77388952954943        3.29159981714168
C           -5.63609740345539       23.86151499312015        4.58858610965425
C           -4.31852346126395       23.45540066874115        4.89645913239474
H           -3.70047159506119       23.19404222735535        4.03721555752278
C           -3.58736587594810       23.49975999689162        9.73473738964104
H           -2.86841437255206       23.03299039489726       10.40022770143032
C           -7.61137553717517       26.11711702325710       10.21133013230894
H           -8.07535956689295       26.62039862792631       11.05660790088616
C           -8.74368828886388       25.29866669237295        5.53385547720142
H           -9.66467696083428       25.37582598847446        4.95002971743663
C           -0.98070289959717       22.35437872999341        8.59645971820731
H           -0.10878580217363       22.15431635223986        7.97254355492158
H           -1.18927559172758       21.43710124394293        9.15943406177857
H           -0.67982491613717       23.10901729122962        9.33046705904490
C           -1.38646912125206       22.33683806708273        5.36991038023174
H           -0.87680564024581       23.17487249041933        4.88479097223184
H           -1.89012716704082       21.76710823965296        4.58708699276771
H           -0.61759724104863       21.69579194416347        5.80312227711066
C           -3.81539784568582       24.09219120387002       12.90593142215006
H           -3.14225987937008       24.89930001909720       13.22124260840244
H           -3.17670440742453       23.24647964393386       12.64106743649665
H           -4.37981356779772       23.80368152802765       13.79986217867245
C           -6.54600908702105       25.82452167899031       13.04432353127341
H           -7.63044239264343       25.79831193957676       13.09286123711919
C           -5.86429932087438       26.38354670582202       14.03763206489855
H           -4.79301489632218       26.44316347840478       13.99172771687997
H           -6.35423515364350       26.80602966397799       14.89696929680297
C          -10.01494569580164       28.05072940709618        9.64973603288229
H           -9.25833855564263       28.69143995140717       10.11762679042523
H          -10.53164153387943       27.54102862346526       10.47225397728635
H          -10.74112849496104       28.71094701811016        9.17255172080260
C          -10.71170423233908       27.40383483191601        6.45093788719582
H          -10.37696279105642       27.64201546134534        5.44243880529936
C          -11.98706243031399       27.63252902500835        6.74284481928651
H          -12.38988826632131       27.38989723683985        7.70955652593010
H          -12.66531018623557       28.05558121032226        6.01755679294088
C           -8.71045441782647       24.40480223457659        2.46283686131040
H           -9.02995448316643       25.44303616238440        2.32611389172813
H           -9.60176678080224       23.84242299957001        2.76118875778421
H           -8.41025878986391       24.03587359136910        1.47974698334904
C           -5.75269774960204       23.21301861972519        2.01064087444993
H           -5.41343893885695       24.00805939890048        1.33796001141943
H           -6.48969184466418       22.62552174252885        1.45613237735935
H           -4.89679411910038       22.56440133422220        2.19978187391539
O           -7.05213942271357       22.58403039449228        7.84984218550099
H           -6.41454915404093       21.86988153776787        7.78575330076198
H           -7.96841485291206       22.33178405675704        7.98657220852039
C           -3.38362070201259       26.85071114773317        6.85681859894281
H           -2.77157691911584       27.51604926881312        7.45980944798711
H           -3.35828781604720       27.17190180303495        5.82095035978245
H           -3.03306523499398       25.82866428817407        6.94005375874981
S           -5.11452666584498       26.92793449776591        7.41924591893138
H           -4.83881677822154       26.56736449851622        8.67591524538727
72
 energy: -105.957005248512 gnorm: 0.036378732871 xtb: 6.7.1 (edcfbbe)
Fe          -6.08007483442224       24.60229052743358        7.57736422299567
N           -4.28584518062091       23.65866954601282        7.35620174017979
N           -5.67169112601732       24.74054761416524        9.63261973742199
N           -7.84974391944902       25.54417691116057        7.83151722445099
N           -6.47665497744859       24.39146504166084        5.54042001963784
C           -3.71264505272213       23.32715536617410        6.16264484476328
C           -2.37232428015730       22.80220017110671        6.41551006245206
C           -2.19636023768277       22.78942178670637        7.76581656179407
C           -3.41145989840964       23.32290779481038        8.34976368325822
C           -4.63117738437059       24.19662554905706       10.33214022492135
C           -4.76238846145773       24.51466280601327       11.74450394641278
C           -5.91229961054367       25.25606846158292       11.85444144250923
C           -6.47533195405262       25.38429263382999       10.51735356091926
C           -8.23342664399587       26.22299725192806        8.95311224232698
C           -9.39242136274978       27.04635819178780        8.65425181153988
C           -9.71085418831499       26.79848967451841        7.34603101710975
C           -8.73370673892567       25.83765333174916        6.84916521909074
C           -7.65899641268047       24.66906571732031        4.92567669057061
C           -7.57515788117071       24.26887128723848        3.52007728864990
C           -6.31730023998089       23.78165983579652        3.32842898459381
C           -5.62777036206634       23.86001761775869        4.62178386767273
C           -4.32724352910155       23.44653870803777        4.91436610963452
H           -3.71734067740448       23.16524889762540        4.06047156567209
C           -3.59791810389810       23.50204774078158        9.71743825783437
H           -2.84611219086714       23.07543503854121       10.37471752691968
C           -7.61825923871098       26.10751347640655       10.19448657632240
H           -8.08222241981998       26.62939291319702       11.02403085152175
C           -8.71867780209838       25.30958730120447        5.55234172378286
H           -9.62243712188634       25.44204098374861        4.95559768493272
C           -1.00423099669118       22.35683523007951        8.57265409328823
H           -0.14017979525384       22.16195692716582        7.94185088370229
H           -1.22221480841789       21.44520296814523        9.13387346345288
H           -0.71896778708781       23.12173674486531        9.29643455065668
C           -1.40137043815532       22.34303800955294        5.37037089372610
H           -0.90065496928134       23.18807854224337        4.89491456166664
H           -1.90686505982228       21.77257717389109        4.59350595431155
H           -0.63668680131679       21.70698440434750        5.81170721989460
C           -3.84207238939198       24.09771456017461       12.86110892444303
H           -3.17107258448866       24.90775106437141       13.15971212006314
H           -3.21684464999288       23.24923399332938       12.58835311530632
H           -4.41417956787153       23.82130394481377       13.74952439078482
C           -6.53482981023115       25.82229957725709       13.03984282991900
H           -7.61717824773782       25.79444043594676       13.07796470120325
C           -5.86016285278515       26.37740454665513       14.04069934689783
H           -4.78878550845480       26.44947472503219       14.00807786133533
H           -6.35259021086489       26.79789135046432       14.89937220767857
C          -10.00478699536104       28.02239180382259        9.62216823402957
H           -9.23896918160308       28.65339436899466       10.07830124621662
H          -10.51952180623997       27.50537963596980       10.43562867515612
H          -10.72503010094894       28.67293271179359        9.13063658382041
C          -10.70935328659604       27.39404199605675        6.46709473198773
H          -10.36112841002337       27.62821064514644        5.46576553612916
C          -11.98092581259026       27.63356234639873        6.76190541289528
H          -12.39442764598570       27.39079219947774        7.72437639492579
H          -12.65689071655823       28.05841853451705        6.03843940259880
C           -8.68004200480056       24.40313731581374        2.50358303478678
H           -8.98709206877724       25.44260910145340        2.37506772394670
H           -9.56723604481801       23.84058459131089        2.80169603949148
H           -8.36995367286615       24.03499617688082        1.52628047050590
C           -5.75127882537326       23.22880921969463        2.04776586967271
H           -5.41921700050648       24.02756798298504        1.38053124238242
H           -6.49719453523350       22.64762043447429        1.50370772409246
H           -4.90028289929171       22.57777244508818        2.23463529326860
O           -7.02452788090436       22.60864851897093        7.87435647823339
H           -6.42784112981819       21.85633520944227        7.78072306681161
H           -7.94662863306174       22.35158415460414        7.97470026109561
C           -3.37124689643680       26.84613171482147        6.85089837927082
H           -2.77177599525212       27.51842005584415        7.45625693204025
H           -3.35676766803023       27.16612792027096        5.81564349994993
H           -3.02105558323399       25.82493990003255        6.93420985521706
S           -5.10750022389254       26.93275849808318        7.41048062622967
H           -4.83959667292525       26.60850614236222        8.68190547702372
72
 energy: -105.966291897925 gnorm: 0.025237188888 xtb: 6.7.1 (edcfbbe)
Fe          -6.08140559378544       24.58104657713269        7.58185143717678
N           -4.30248576573016       23.67071514184376        7.35547177653515
N           -5.70564528111614       24.72017048160563        9.61053025190464
N           -7.81735794708659       25.54772056484166        7.81802522644101
N           -6.46552031343656       24.37815720922389        5.58541144960115
C           -3.71975989050694       23.34649227433768        6.17075342184732
C           -2.39345778357596       22.79784443637550        6.40943166219638
C           -2.21719879505067       22.78776214306765        7.76184449447744
C           -3.42375262183835       23.34187007381505        8.33977539471670
C           -4.66125715470326       24.18826497191033       10.30654852162832
C           -4.78361372174597       24.50845428492213       11.71051466129093
C           -5.92992529147947       25.25241529550708       11.83538937954666
C           -6.49533506313373       25.36751847038074       10.50158806798209
C           -8.21267170578233       26.21870925445739        8.93437198228355
C           -9.38438089032478       27.02327694021094        8.64658935554630
C           -9.70486683589965       26.77918509322716        7.33983872296778
C           -8.70653962976290       25.84043157314558        6.84448603649874
C           -7.63610171376628       24.66169875281043        4.96085626710853
C           -7.55929500321447       24.26811432148780        3.56279687715187
C           -6.29978836365695       23.78229252320555        3.36858371037385
C           -5.62315509459015       23.85663111986681        4.65855585195523
C           -4.32631224862788       23.44215437068549        4.92394366626032
H           -3.72915241809305       23.12999421677216        4.07619940670164
C           -3.60502847062286       23.52026754807536        9.70225288957284
H           -2.83392920410309       23.12104153717046       10.35033120708375
C           -7.62471018568374       26.10760162680333       10.18358524698249
H           -8.09585930997199       26.63840098884411       10.99845193957401
C           -8.69341469721870       25.33150723310463        5.55428598619607
H           -9.57775876493915       25.50566220961938        4.94945366731371
C           -1.02956606960771       22.35770624612874        8.55496141971585
H           -0.17424117028652       22.16327036847224        7.91376801999156
H           -1.24994443600836       21.44965146781851        9.11737568647486
H           -0.74615164023061       23.13088363967396        9.26822486838267
C           -1.42532508397030       22.34748476674709        5.36891643117916
H           -0.93045795681742       23.19943947244495        4.90100427201095
H           -1.92722446203071       21.77732019970247        4.59075416062177
H           -0.65933810637648       21.71552543111762        5.81307483852565
C           -3.86536322082735       24.09692779457392       12.81363834427388
H           -3.19125280011518       24.90889429826490       13.09221317396373
H           -3.25531900286502       23.24124398498846       12.53468871516982
H           -4.44271959997477       23.83764230539450       13.70179299709987
C           -6.52878401482369       25.82205559654920       13.02856758649594
H           -7.61107817621496       25.79581313545414       13.06070916911332
C           -5.85809863420902       26.36733928879326       14.03708259148044
H           -4.78472792841710       26.44682875338315       14.02309722968192
H           -6.35538999029037       26.78010767941189       14.89876537914138
C           -9.99685121756501       27.99107898905008        9.60011212224304
H           -9.22661571037578       28.61900516565557       10.04797008490309
H          -10.51361260054949       27.47189206313073       10.40769792634788
H          -10.71158126367227       28.63265093081515        9.09082648934241
C          -10.70819600307592       27.37666447642807        6.47743586839169
H          -10.35274835074586       27.61392308520329        5.48131892724765
C          -11.97414487970116       27.62883285842766        6.78376776085504
H          -12.39177084767319       27.38938760655254        7.74680695214345
H          -12.64729131884280       28.07156396205188        6.06799739072131
C           -8.65220869441635       24.40533561555194        2.55104361698479
H           -8.94617799221528       25.44784540226831        2.42911541697960
H           -9.53766630863968       23.84378451226474        2.85002042271160
H           -8.32990848335036       24.03636129281117        1.57930326548558
C           -5.74220211991699       23.24280179043837        2.08944644367854
H           -5.41695525629961       24.04949906776604        1.43042770186994
H           -6.49883928026620       22.66896318504081        1.55397047372610
H           -4.89311694451297       22.58966110629682        2.27145619939048
O           -7.00027972895153       22.62112104331880        7.93075679272889
H           -6.44417743382406       21.84420596946123        7.76534609833317
H           -7.93074883843499       22.35673356096467        7.94628466884054
C           -3.36108905271199       26.84062304381131        6.84509953868082
H           -2.76816875197523       27.52098016285873        7.44797488800956
H           -3.35260799956673       27.15623123127174        5.80765755314721
H           -3.00347984876953       25.82144409217622        6.93074112567803
S           -5.10058871671357       26.92114502572050        7.40202430380917
H           -4.83131030472126       26.66772909729335        8.69404452551271
72
 energy: -105.969678307504 gnorm: 0.021194600433 xtb: 6.7.1 (edcfbbe)
Fe          -6.07046590640186       24.60415682083338        7.58122043831026
N           -4.31646807631576       23.69848244539710        7.35389082888939
N           -5.72956801562285       24.71811901724799        9.58558874069231
N           -7.79331396126582       25.54636328988268        7.80956303369396
N           -6.45523019985333       24.36165811441996        5.62494439954471
C           -3.73285014293121       23.33457794393806        6.17596638827438
C           -2.40837487453762       22.79976028662675        6.41054984223629
C           -2.23176066551340       22.79574799384864        7.76108571819288
C           -3.43824959281313       23.34773209724817        8.33656141283983
C           -4.68581960288657       24.19008887958259       10.28215949963755
C           -4.80076790278275       24.50732344502416       11.68214326251749
C           -5.94467293454381       25.25267530390065       11.81547373858132
C           -6.50972631556798       25.36338965130576       10.48590317733803
C           -8.20749563343070       26.20804835110155        8.92499124842089
C           -9.37905486285672       27.00602356315443        8.63865744732924
C           -9.69740754626474       26.76470615657163        7.33248497173255
C           -8.69107719270807       25.83790385331883        6.83996887879682
C           -7.61556193321158       24.65587225557471        4.98749334054534
C           -7.54203489437080       24.26981338489237        3.59620717994039