72
 energy: -105.980111645540 gnorm: 0.000102683826 xtb: 6.7.1 (edcfbbe)
Fe          16.16293183889078       25.46132316985799       30.69817847880183
N           17.25027083410802       25.62840208762777       32.38035231017157
N           17.17715156911063       27.02284732723555       29.91103867360982
N           15.03468784809533       25.36941004760396       29.05387768625943
N           15.13236862380411       23.97250858378557       31.50904958232818
C           17.18417563510509       24.82242372642945       33.47230173457331
C           18.14754699801170       25.23165522024043       34.46854754142044
C           18.79392020839256       26.31336453775518       33.95554990198120
C           18.22448424475065       26.54294272842391       32.64741021907126
C           18.16293508090110       27.75202574319631       30.50984933186652
C           18.66935934705263       28.75770491378268       29.61510041663885
C           17.97278978579697       28.61805845897438       28.44258358655509
C           17.03318260254323       27.53828721594567       28.66029315712819
C           15.16713205742208       26.11898428412409       27.92492208112082
C           14.17587756755559       25.74973409793076       26.94595836863637
C           13.43089049925410       24.75187263093919       27.51387771071564
C           13.99130104633020       24.53422178416901       28.83315437490288
C           14.09009965440256       23.30838248157872       30.95130236149384
C           13.61433644972740       22.26479441101310       31.83599549397471
C           14.40379259505884       22.31319536369923       32.93978082687608
C           15.34472596138243       23.39144496246904       32.71697342873204
C           16.30565918533150       23.76792932396425       33.63371483985078
H           16.36504310670071       23.20848417706344       34.55418940541581
C           18.64464901624779       27.54218661279133       31.79154585188625
H           19.43417117137344       28.19070579588401       32.13748906184465
C           16.11425748279582       27.10696671878393       27.72283193534755
H           16.12386188931649       27.59336302216123       26.76007052975123
C           13.54494578818514       23.56478189935048       29.70994738936459
H           12.71509477925637       22.95134603207021       29.39568611071063
C           19.88047236328566       27.13781873845498       34.55514765401833
H           20.12926139431566       26.78208187563420       35.55168162723903
H           19.57417133777011       28.18148023520129       34.63068784644517
H           20.78017490712522       27.09330122968078       33.94066539306297
C           18.33418219195350       24.55532444168392       35.78245935826380
H           18.59617095932175       23.50693249953068       35.63938113524073
H           17.41562297283435       24.59683605994613       36.36817048980073
H           19.12682346797606       25.03172534077162       36.35400279944670
C           19.70207937185874       29.77146297289756       29.96332066669419
H           20.70637658350131       29.35532441981277       29.86651901261193
H           19.57698679070744       30.11319220921713       30.98984068260224
H           19.62084608930613       30.62881622865167       29.29836026078898
C           18.08056817602225       29.38382437147336       27.22021794157006
H           17.15593996975079       29.52770415078632       26.67359342128007
C           19.20439371169672       29.89849457252509       26.73285777933963
H           20.15807184490483       29.74673748975338       27.20765009255698
H           19.21164848908028       30.47076624624738       25.82029701849671
C           13.98917104512386       26.40912550383133       25.62464664303985
H           14.69619923788169       26.01819636733273       24.89104505031529
H           14.14513010867193       27.48403550659223       25.70368362852804
H           12.98030326953736       26.23034058020633       25.25899129796959
C           12.29164058772617       24.04039658390814       26.97648691172527
H           11.53431447755148       23.75864075498541       27.69851496542766
C           12.12106908832872       23.71433099056497       25.69982650729523
H           12.86312024873149       23.92699716854230       24.95007922110252
H           11.23924907243350       23.19426727790907       25.36441651629485
C           12.47731411639050       21.35487473626657       31.52410110810338
H           12.68124781100020       20.78566747282169       30.61712438077255
H           11.56278285151224       21.92682196080059       31.36695848228169
H           12.30775065991239       20.65452244392505       32.33807880083915
C           14.36726003515350       21.47126808327162       34.16821231427849
H           15.31883970176164       20.95848510730821       34.30922669424353
H           13.58192052043383       20.72286795599735       34.09974206487072
H           14.17962684307303       22.08607022870793       35.04876634454957
O           14.77711867539052       26.99239017235968       31.57695616787712
H           14.92084935614404       27.73947346144776       30.98516549879544
H           15.22247760820483       27.19652117722465       32.40727981191561
C           19.34998264589917       24.35078376664335       30.27472060502507
H           20.07312791381696       23.86468396208432       29.62722941076117
H           19.43516828864396       23.96756240894483       31.28603305129467
H           19.48313321731829       25.42685930618880       30.27744317981797
S           17.66353630569880       23.94144685251827       29.70177967566577
H           17.78423282533774       24.56419972849752       28.52406609669832
