78
 energy: -116.058073619790 gnorm: 0.000045052479 xtb: 6.7.1 (edcfbbe)
Fe          35.37944380196343        4.23883893373460       10.31708694800060
N           37.24628311978545        3.91872908561994        9.69983770006341
N           35.06626536412185        5.47731089311347        8.78662171758577
N           33.51695665787865        4.60092862585019       10.99691030708933
N           35.70192685802505        3.02962405343318       11.89518232258259
C           38.18744748077575        3.13721925483450       10.29073601352022
C           39.42482328076031        3.16729334090298        9.54041508394587
C           39.20436382730697        3.98393173961027        8.47686183435209
C           37.83626110915274        4.44243842208571        8.59392436265262
C           35.94214625690323        5.77762886970394        7.79222454418092
C           35.35702264468544        6.70035349387163        6.85180127994857
C           34.09328156488274        6.96392008150773        7.30709249836688
C           33.93385825087322        6.17572787534994        8.51577634713428
C           32.58773691202912        5.41877856380208       10.42672149708218
C           31.36339080344725        5.40855546916093       11.18315637139758
C           31.56655840340189        4.55138169727642       12.23333493836011
C           32.91806584770462        4.05010966328605       12.08520423589637
C           34.80588964033697        2.68548860000226       12.86041997394974
C           35.39369830057402        1.75017238869704       13.79218174794459
C           36.66727030825077        1.53294430326879       13.36443840414967
C           36.83965200289271        2.33793054905619       12.17726751408596
C           38.00911564858779        2.39143222292528       11.44145037989228
H           38.84415146166694        1.80303888757145       11.79021906194595
C           37.23632083718230        5.29830993045821        7.69362475244727
H           37.83079851980809        5.63616551938875        6.85860274784800
C           32.78227307911052        6.16789452841579        9.27858184438225
H           31.96545083806289        6.79438292898650        8.95428881214246
C           33.51261121025974        3.16188556082903       12.96249672616862
H           32.92101112307407        2.80945904344408       13.79323577345126
C           40.13278818765107        4.37878950984740        7.38025790984821
H           41.10435763953401        3.90723258172967        7.50638365317765
H           40.27449826757348        5.45952484190508        7.37137416403862
H           39.73049296090761        4.08252322185529        6.41114933596032
C           40.65939035445825        2.42512651428181        9.92382635989538
H           40.47060497464761        1.35143019060042        9.95425270672062
H           41.00138731656202        2.73579863831690       10.91121927009849
H           41.45900283286921        2.61114522613123        9.21115743649722
C           36.01363942295812        7.18829055676237        5.60801351156930
H           36.59994979172765        6.39566113778905        5.14556745674527
H           36.68363647856465        8.02198326641236        5.82400367720348
H           35.26248104729867        7.52673971850713        4.89709734013238
C           33.07150908693535        7.81098413241224        6.73294376203625
H           32.05008024703696        7.47567547837090        6.87331722720674
C           33.28959769778447        8.94290650770638        6.07123261581858
H           34.27708311528018        9.35029068675385        5.94353830834104
H           32.47837886001373        9.51835230912550        5.65677699915966
C           30.12191971799346        6.14385196557827       10.81594259881095
H           29.97238402393489        6.13406457774579        9.73727390301296
H           30.17539240234467        7.18500462920199       11.13871502864233
H           29.25955202453996        5.68065551976288       11.29102581800516
C           30.65512457292299        4.16583031177221       13.28787838100470
H           30.75302862541006        3.14594583310386       13.64176602255479
C           29.74075702929964        4.95469422167782       13.84290771338522
H           29.63113399614977        5.98855732139917       13.56538983535624
H           29.08358270680228        4.59682490820297       14.61808183014713
C           34.68277918085430        1.17658731245185       14.96966247784710
H           33.79881422869382        0.62345388584001       14.65121273965906
H           34.35955569347969        1.96801959464733       15.64641291704334
H           35.33045555235050        0.49898235721353       15.52058380917083
C           37.72476132678300        0.66037262169301       13.94925400573581
H           38.03828628873249       -0.09825203273907       13.23144335305533
H           37.36125334435885        0.15699844522881       14.84169241536228
H           38.60100106484914        1.24955399415493       14.22084642567266
O           36.05247751442133        5.96136079329811       11.67296686916084
H           35.19785205046286        6.32487765144506       11.92918772903221
H           36.38128229223003        5.45473142946667       12.42354350969143
C           32.42353152080185        0.81972682105383        7.05460706547449
H           31.92541296430914       -0.02254098667087        7.53471846926500
H           32.87210010463100        0.46633725160681        6.12628136414164
H           31.67991539145213        1.57382033319758        6.81692954887427
N           34.52719936830123        0.68315724501036        8.40651501780389
H           34.72358847767033       -0.28048147150016        8.19106742874407
C           33.45423722343030        1.40300995404982        7.95010109711316
C           35.26428684534851        1.49990507532963        9.19261650845147
H           36.16588744094413        1.20418420646959        9.68818232587840
N           34.72337484854292        2.69207020527578        9.26172739761676
C           33.59717441263972        2.64745267705664        8.49344027065152
H           32.96894432997635        3.50691430326246        8.38421864860149
