78
 energy: -115.987149134109 gnorm: 0.251134609644 xtb: 6.7.1 (edcfbbe)
Fe          35.30600000000000        4.17400000000000       10.27000000000000
N           37.19400000000000        3.91800000000000        9.71100000000000
N           35.04700000000000        5.54300000000000        8.81800000000000
N           33.41600000000000        4.50600000000000       10.89100000000000
N           35.58600000000000        2.93800000000000       11.82400000000000
C           38.14200000000000        3.09100000000000       10.29300000000000
C           39.36100000000000        3.11700000000000        9.52300000000000
C           39.15700000000000        3.94900000000000        8.47500000000000
C           37.82800000000000        4.50300000000000        8.62800000000000
C           35.96300000000000        5.89000000000000        7.84300000000000
C           35.38300000000000        6.83300000000000        6.91800000000000
C           34.11000000000000        7.07600000000000        7.33800000000000
C           33.89400000000000        6.24100000000000        8.50400000000000
C           32.52800000000000        5.43200000000000       10.38100000000000
C           31.35500000000000        5.51100000000000       11.22400000000000
C           31.52000000000000        4.61500000000000       12.23000000000000
C           32.82100000000000        4.00200000000000       12.02800000000000
C           34.67400000000000        2.59500000000000       12.80700000000000
C           35.28600000000000        1.72800000000000       13.77700000000000
C           36.58600000000000        1.58200000000000       13.40900000000000
C           36.76100000000000        2.30000000000000       12.16800000000000
C           37.93700000000000        2.33200000000000       11.43600000000000
H           38.76400000000000        1.71400000000000       11.78500000000000
C           37.27500000000000        5.44700000000000        7.78800000000000
H           37.92000000000000        5.87800000000000        7.02200000000000
C           32.71800000000000        6.17400000000000        9.22700000000000
H           31.87100000000000        6.75200000000000        8.85900000000000
C           33.36700000000000        3.05700000000000       12.88000000000000
H           32.72700000000000        2.64800000000000       13.66200000000000
C           40.09100000000000        4.25700000000000        7.30100000000000
H           40.94700000000000        3.54900000000000        7.31200000000000
H           40.47999999999999        5.29300000000000        7.39300000000000
H           39.54000000000000        4.14200000000000        6.34300000000000
C           40.60800000000000        2.25700000000000        9.79200000000000
H           40.45100000000000        1.23700000000000        9.38100000000000
H           40.78300000000000        2.18200000000000       10.88600000000000
H           41.49200000000000        2.71200000000000        9.29700000000000
C           36.10599999999999        7.39400000000000        5.69300000000000
H           36.83200000000000        6.64300000000000        5.31500000000000
H           36.65599999999999        8.31800000000000        5.97200000000000
H           35.36899999999999        7.61800000000000        4.89200000000000
C           33.05500000000000        7.90900000000000        6.84400000000000
H           32.00100000000000        7.62400000000000        6.97200000000000
C           33.37000000000000        9.15000000000000        6.16300000000000
H           34.41599999999999        9.45900000000000        6.02200000000000
H           32.56600000000000        9.79600000000000        5.78000000000000
C           30.18700000000000        6.47000000000000       11.00800000000000
H           30.07700000000000        6.68200000000000        9.92300000000000
H           30.38000000000000        7.42400000000000       11.54400000000000
H           29.24800000000000        6.00800000000000       11.38200000000000
C           30.75000000000000        4.20000000000000       13.37000000000000
H           30.98400000000000        3.24800000000000       13.86900000000000
C           29.68200000000000        4.97500000000000       13.89300000000000
H           29.40900000000000        5.93500000000000       13.43000000000000
H           29.11400000000000        4.62500000000000       14.76800000000000
C           34.60199999999999        1.17000000000000       15.02100000000000
H           33.72200000000000        0.56200000000000       14.71900000000000
H           34.25800000000000        2.00600000000000       15.66700000000000
H           35.31100000000000        0.52400000000000       15.58100000000000
C           37.71500000000000        0.91900000000000       14.21100000000000
H           37.75900000000000       -0.16300000000000       13.96400000000000
H           37.51900000000000        1.03200000000000       15.29900000000000
H           38.68700000000000        1.38800000000000       13.94900000000000
O           35.81300000000000        5.75800000000000       11.62300000000000
H           34.98200000000000        6.14400000000000       11.90000000000000
H           36.62400000000000        6.01400000000000       11.88200000000000
C           32.50300000000000        0.07200000000000        7.40400000000000
H           32.74800000000000       -0.96100000000000        7.73200000000000
H           32.51800000000000        0.11100000000000        6.29400000000000
H           31.49200000000000        0.33900000000000        7.78000000000000
N           34.85100000000000        0.91200000000000        7.65600000000000
H           35.22000000000000        0.20800000000000        7.05000000000000
C           33.52600000000000        1.03400000000000        7.96200000000000
C           35.56700000000000        1.85200000000000        8.27300000000000
H           36.64700000000000        1.96700000000000        8.18900000000000
N           34.74000000000000        2.58900000000000        8.98000000000000
C           33.44800000000000        2.08700000000000        8.79400000000000
H           32.59700000000000        2.54300000000000        9.28400000000000
78
 energy: -116.034711771686 gnorm: 0.091055043915 xtb: 6.7.1 (edcfbbe)
Fe          35.30185311931323        4.16666606608866       10.26369566076970
N           37.20733799831154        3.92587625159138        9.71730298898559
N           35.04112791776549        5.53263987823636        8.80139248780866
N           33.41782639545359        4.51834718264665       10.90541208137905
N           35.58956410112833        2.92732610752562       11.82310274895103
C           38.13857778854193        3.08997133723211       10.28583101498253
C           39.36246480205705        3.10321756966022        9.51571514361882
C           39.16084364593032        3.95182630416447        8.47261282893897
C           37.82606322860011        4.49165018421986        8.62895500496315
C           35.95888366064897        5.89455518917856        7.84872281415705
C           35.38832416354055        6.83870402792863        6.91967548051916
C           34.10387235888253        7.07565092376598        7.33336215549897
C           33.89765027949956        6.22808164431976        8.50138609636557
C           32.52677301475036        5.42609399970498       10.38918310997613
C           31.34977836058477        5.51032760535904       11.22272063587804
C           31.51730587870257        4.60812829888459       12.24047883273387
C           32.81972458906065        3.99231086004165       12.01785359392151
C           34.68199852120658        2.58555362745369       12.79296010459239
C           35.29290154984380        1.73260536938356       13.78328192295728
C           36.59566889372086        1.58691351186110       13.41630567909466
C           36.75930018112089        2.30379768302569       12.17022443323564
C           37.93182960053621        2.33807442508770       11.43240058788002
H           38.75626981890088        1.72625478780462       11.78161759584910
C           37.26782482556403        5.43797282220953        7.78985434931056
H           37.90957525004761        5.86215584630687        7.02520258978417
C           32.72467239701591        6.16742709185621        9.23231521451339
H           31.88730016461315        6.75614837426296        8.87539100899340
C           33.37866343863638        3.04730592730667       12.86156300243046
H           32.75925225606647        2.65414353107927       13.65850928997379
C           40.08285923634926        4.25678266590413        7.31721204037666
H           40.93042377785794        3.56389197788332        7.31291451668492
H           40.47145204509174        5.27874975856757        7.38903371047497
H           39.54966875109408        4.14928532543281        6.36573718098434
C           40.59070398263567        2.26427230020861        9.79093998693507
H           40.45257438199125        1.25236990796155        9.39072356706598
H           40.77952395096131        2.18606823031608       10.86584172694515
H           41.47087563050583        2.70494348400875        9.31209738269082
C           36.09966125130774        7.38671938739223        5.70815413900779
H           36.81863609077720        6.65631757281006        5.32196319140281
H           36.64629013820741        8.30225383692851        5.96486550267207
H           35.38013656815425        7.61657288718279        4.91439364891961
C           33.07969894442981        7.94365350256482        6.81389065632551
H           32.03842555489521        7.65982299413689        6.95812298946787
C           33.35878626273361        9.11225365087899        6.17241746195360
H           34.38163462929152        9.44083692630132        6.04016333616573
H           32.57502600447475        9.76197783076398        5.79886187158501
C           30.19859081330432        6.45677934712212       11.00120665740136
H           30.07699676645187        6.68115455425032        9.93718001278132
H           30.37454383886739        7.40172080435697       11.53174996801443
H           29.26682566477920        6.01471900253691       11.36834659341731
C           30.71165734856265        4.22929654621511       13.37261458233403
H           30.94978430850773        3.28819977288769       13.86330313472630
C           29.69489513877800        4.96139817163629       13.88199275680403
H           29.42366110574951        5.91532811467260       13.45241021570210
H           29.13353173231983        4.62324004678822       14.74541762364366
C           34.60745758692054        1.17748351297140       15.00560971455968
H           33.73705673145677        0.57378993913313       14.72187373822443
H           34.26334038164853        1.99039856321800       15.65581221999732
H           35.29513533136422        0.54002083612521       15.56971501936545
C           37.70312496530192        0.91897803402314       14.19723883718164
H           37.75961435032048       -0.15110970652189       13.96561142266389
H           37.52368686672394        1.02928848667472       15.27217152167005
H           38.66673119520503        1.37781833011935       13.95689629359613
O           35.80047251235901        5.76207707734508       11.61433953525553
H           34.98785682909904        6.16447160181463       11.91837787656022
H           36.65057981483162        6.03902603139811       11.90371673726272
C           32.50929469277124        0.07692794611595        7.40777859612769
H           32.74052376752648       -0.94672703105957        7.72479703316943
H           32.51181240709172        0.10917231166215        6.31245406371030
H           31.51273576331861        0.33830823957772        7.77197601194587
N           34.85082168632707        0.89617978368572        7.64354791353008
H           35.22672869522805        0.19107128752557        7.03509860383742
C           33.52672418303197        1.02560982167497        7.95778497741831
C           35.54875223733858        1.85362704170161        8.27757201860130
H           36.61691612285229        1.97163118859054        8.19728492800555
N           34.73252147078338        2.59639981834766        8.98901073258480
C           33.46101007217864        2.09234915534200        8.79777280384172
H           32.61701021819730        2.54487270263979        9.28297648834531
78
 energy: -116.044154442267 gnorm: 0.034091227585 xtb: 6.7.1 (edcfbbe)
Fe          35.29791873301343        4.16210757203187       10.26154080256711
N           37.21368031593398        3.92314202692775        9.71575372071524
N           35.03547383764455        5.51499956690282        8.78569457655330
N           33.41322366413950        4.51484636671775       10.90696211913710
N           35.59312915194244        2.91237079634799       11.81581599393753
C           38.13333760115489        3.08802446341319       10.27825825731947
C           39.35939031472334        3.09110623327345        9.50840824580512
C           39.15954157619510        3.95125190011151        8.47075815243660
C           37.82203044675341        4.48044609496462        8.63009370274982
C           35.95292507856716        5.88402945029471        7.84922191121248
C           35.39073768147451        6.83807836010564        6.92566902545004
C           34.10056093849241        7.06211153899902        7.33570299492158
C           33.90073857084413        6.20839592202977        8.50009723476630
C           32.52787507123577        5.41890573929243       10.39395794395973
C           31.34760590671748        5.50228310561435       11.21813709249922
C           31.51944722728012        4.59570606736232       12.23862848934723
C           32.82063246761533        3.98374385800379       12.00806449521063
C           34.68943874586763        2.57696775132671       12.77637046615556
C           35.29969457222031        1.73506254629202       13.78153420450114
C           36.60403085201559        1.59098959916356       13.41731268074791
C           36.76009387508862        2.30606301422726       12.16764059743980
C           37.93069108114641        2.34513149264647       11.42946918381249
H           38.75620359344531        1.74305404723717       11.78154413404444
C           37.25861473691182        5.42118328307097        7.78733194466781
H           37.89540216487438        5.83375962542128        7.01779603823925
C           32.73312473413768        6.16334221964264        9.23996874553694
H           31.90901800144066        6.77420568079050        8.89917991700736
C           33.38975777946188        3.04155689895402       12.84769661072069
H           32.78724844760990        2.66457722226148       13.66096232852646
C           40.07476554512684        4.26049211150990        7.33221602864056
H           40.91921886210331        3.57609457938704        7.32395250656211
H           40.45860560990453        5.27787740644849        7.39695452039516
H           39.54846228355527        4.15810023690366        6.38428397212046
C           40.57347842690853        2.26843330431340        9.79096147288934
H           40.44760207492949        1.25727434148424        9.40100314661559
H           40.76367750026242        2.19631107692047       10.85848449517415
H           41.45021006274607        2.70598101742747        9.31979688526697
C           36.09246869407934        7.38368428363507        5.72634141819983
H           36.80454056509679        6.66066189294491        5.33419565785846
H           36.64030899136159        8.29436200730548        5.97127418950936
H           35.37591960633667        7.61796498948586        4.94164914279642
C           33.09959664304633        7.95992535131171        6.80024813365185
H           32.06677201880701        7.66739538638895        6.94988460461674
C           33.35796156169928        9.09369718110380        6.18499453116787
H           34.36581372954797        9.44054877769668        6.04393284614820
H           32.58044686621318        9.73324203426559        5.80336180310822
C           30.20751373013730        6.43825831228130       10.99277460612411
H           30.08762025411221        6.67091530069479        9.93817925025857
H           30.37476714920607        7.37754413739662       11.52401333342620
H           29.27882233865248        6.00358873459537       11.35315048538656
C           30.68745412633547        4.24943290257418       13.36754698052572
H           30.92778804643706        3.30846876607651       13.84568843104838
C           29.70033887863933        4.96601033108750       13.87756180124225
H           29.42382757669583        5.92370940348969       13.47954081786091
H           29.13547720481969        4.62276866814136       14.72688200638399
C           34.61310515145297        1.18682328788969       14.98946628890008
H           33.74805829817419        0.58780618267956       14.70733625969506
H           34.26740498656104        1.99010693639466       15.63982834705915
H           35.29060232018655        0.55366384546063       15.55621759681431
C           37.69566955511524        0.91863251868350       14.18307537394804
H           37.75239474794130       -0.14469106782543       13.95182390538864
H           37.52075500255177        1.02224873583202       15.25215794777528
H           38.65719681036759        1.37032297704221       13.95464997759152
O           35.80553997849632        5.79307012833114       11.59523386592586
H           35.01838935814651        6.20285439625015       11.96317613793848
H           36.65998132359030        6.06114797015731       11.93087243110342
C           32.51174665201155        0.08559853569317        7.41357838725010
H           32.73396689523675       -0.93512765115864        7.72318659887085
H           32.50665480806766        0.11512001063200        6.32486155516233
H           31.52439189833606        0.34943626654689        7.77412351578529
N           34.85399952953703        0.88770786868158        7.63728893533256
H           35.23540942919364        0.18395012160748        7.02642365738338
C           33.52974296384480        1.02201310525999        7.95780836621036
C           35.53808356540648        1.85547527211087        8.28413566163007
H           36.59806340321809        1.97837736152270        8.20671759799006
N           34.72926388073778        2.59839571628926        8.99965710090510
C           33.47390556212754        2.09440090276513        8.80353313420294
H           32.63064836499063        2.54248160085694        9.28440268017072
78
 energy: -116.047288377888 gnorm: 0.023743487087 xtb: 6.7.1 (edcfbbe)
Fe          35.29795232216549        4.16401554094928       10.26309548929876
N           37.21361909508419        3.91960751543415        9.71389316315213
N           35.03151925158099        5.49542424855899        8.77593720684087
N           33.41356164418004        4.51026284267193       10.90780618378832
N           35.59875122480587        2.91126001326074       11.81041335897257
C           38.12989532395272        3.08541177022262       10.27372290016696
C           39.35478569577715        3.08473870473897        9.50390227699845
C           39.15524004320564        3.94673568384010        8.46844449548316
C           37.81624885812956        4.46866797884286        8.62545673069946
C           35.94794320931349        5.86636489063479        7.84414319818867
C           35.39006318491796        6.83122637538318        6.93006958893127
C           34.10061525170554        7.04931041732821        7.34101159767164
C           33.90207604278658        6.19405936828350        8.50091833999888
C           32.53085093635696        5.41318873053752       10.39564553972211
C           31.34901537323553        5.49387597258033       11.21457348001065
C           31.52038472807404        4.58604868387027       12.23376510945662
C           32.82044129669107        3.97564271113369       12.00367997996583
C           34.69524213570684        2.57531800508145       12.76595443370323
C           35.30567850534847        1.73849133392214       13.77528799539005
C           36.60961466906483        1.59491333929675       13.41330244443730
C           36.76436636522194        2.30960631045478       12.16399812693387
C           37.93421749074628        2.34916986298520       11.42829023482551
H           38.76334783669706        1.75649935466188       11.78481534561084
C           37.25023738918062        5.40018998261814        7.77633834603185
H           37.88246761797242        5.80131511552626        6.99845661710069
C           32.73940120284215        6.16253463926501        9.24709861983183
H           31.92760198349344        6.79838471409663        8.92297978921133
C           33.39612432364899        3.03685095701560       12.84191358155211
H           32.80680814230382        2.66980648331930       13.66831646664770
C           40.07158361969955        4.26780040786955        7.33928561417166
H           40.92051293936928        3.59022166395302        7.33210883865331
H           40.44622730174520        5.28792000141965        7.40924472352015
H           39.54959552496981        4.16745269886578        6.38936610390386
C           40.56528673771295        2.26792703134814        9.79503475940313
H           40.44458904128717        1.25266629867871        9.41466157071728
H           40.75119655034661        2.20595144512169       10.86353039615403
H           41.44193966348332        2.70442773796786        9.32443136606397
C           36.08791481972353        7.38336582023536        5.73688809570842
H           36.79537769643287        6.66116818909280        5.33641147432630
H           36.63947234680238        8.29032434610661        5.98461060141006
H           35.36668741346803        7.62653091322001        4.96013552019963
C           33.10579916291238        7.94989474422376        6.79775251978444
H           32.07566378098060        7.65148042868414        6.94839129733613
C           33.35961144508190        9.09198175796229        6.17279248736652
H           34.36178478004518        9.46247992380802        6.04629354505649
H           32.57511627903386        9.72695652241391        5.79973403510830
C           30.20832618667909        6.42067583169067       10.98109366066860
H           30.09691097127572        6.65652185512154        9.92668030630983
H           30.36710174733478        7.35845464229148       11.51665078604906
H           29.27971000582036        5.98086463385748       11.33325665964766
C           30.67217876365787        4.25250640085402       13.35560610276334
H           30.89737731543495        3.30361025160549       13.82375805604634
C           29.69110019713829        4.97939144120075       13.87549799288071
H           29.42809049981662        5.95466354797726       13.50799300815627
H           29.12548620104104        4.62856013899042       14.72082480269469
C           34.61491637531618        1.19361400129136       14.97746400758791
H           33.75074164761893        0.59719380006176       14.69003348073117
H           34.26716368649262        1.99710082630277       15.62571385903570
H           35.28835136682640        0.56073781044271       15.54807415702729
C           37.69535435358225        0.91130510996464       14.17060400602461
H           37.74671075977070       -0.14959995035124       13.92867048743834
H           37.52030891459594        1.00473900379855       15.24010822025114
H           38.65959469433693        1.35960159549252       13.94908623064259
O           35.82166276075800        5.85552284997395       11.55564194376488
H           35.05345414604894        6.22386322271321       12.02721803636238
H           36.67142884914206        6.06660945725118       11.97050909105108
C           32.50991545723427        0.09551671523639        7.41955068726847
H           32.72435136013795       -0.92773053180131        7.72531174116683
H           32.49970519626828        0.12662282491984        6.33121429703339
H           31.52656487581859        0.36718264969511        7.78354147033333
N           34.85809853705922        0.88776570882683        7.63916058359899
H           35.24114733882841        0.18642049043893        7.02546300005766
C           33.53352729380074        1.02337700279781        7.96263362907274
C           35.53873424687863        1.85607057781206        8.29166788190856
H           36.59684447351713        1.98226252999282        8.21510423224460
N           34.73225013755459        2.59729601191770        9.01020653890561
C           33.48093965283266        2.09373745173711        8.81288655073378
H           32.63552174009678        2.53807062041032        9.29287090303606
78
 energy: -116.048416995453 gnorm: 0.047170550791 xtb: 6.7.1 (edcfbbe)
Fe          35.29956574177204        4.16778268802483       10.26239680999459
N           37.21175891691684        3.91430266251531        9.70890768738270
N           35.02597957576292        5.47008834238728        8.76407631480647
N           33.41700689691587        4.50762617347440       10.90999468652591
N           35.60825701371232        2.92542365239787       11.81086254703256
C           38.12795223240531        3.08411363704291       10.26968580469194
C           39.35102702371388        3.07983817330590        9.49909474719875
C           39.15000766481225        3.93858017679812        8.46262732257030
C           37.80980633719273        4.45476882900933        8.61624261397575
C           35.94149594109130        5.84308668050735        7.83441103457277
C           35.38786923093689        6.82242793728299        6.93304123353180
C           34.10201979883245        7.04164983135515        7.34996051280961
C           33.90261282365701        6.18018338091455        8.50162525690100
C           32.53527113836646        5.40927741315343       10.39718695858381
C           31.35093611351417        5.48563934828501       11.21093812439421
C           31.52096306557180        4.57749290969643       12.22841304963278
C           32.82117089027528        3.97174019410213       12.00346683419696
C           34.70289055733304        2.58420397353614       12.76171227759484
C           35.31195245590945        1.74396031772524       13.76812896107791
C           36.61519486691252        1.60018648069448       13.40794538527926
C           36.77156658559797        2.31917811301902       12.16244589034367
C           37.94133299901717        2.35609995961517       11.42955069759583
H           38.77343229554555        1.77037371300973       11.78919316121314
C           37.23989704716234        5.37262577191764        7.75699278569136
H           37.86633041699567        5.76034442102159        6.96807784805630
C           32.74662108010440        6.16609728140011        9.25620966297814
H           31.94943803466748        6.82887351823664        8.95013796646969
C           33.40241281325812        3.03983508527663       12.84411565970812
H           32.82215323166119        2.67739623183484       13.67783945450055
C           40.07076905709398        4.27744019652695        7.34270508555609
H           40.93007806156660        3.61144155033720        7.33915421241253
H           40.42951146038206        5.30390723495699        7.42556192864379
H           39.55704562500483        4.17805136106450        6.38687831750493
C           40.56088483704196        2.26685533814160        9.80232957616430
H           40.44189852333697        1.24465356580936        9.43698878307426
H           40.74171941280630        2.22066749829416       10.87411955006646
H           41.43904911793873        2.69810865040113        9.32760346374732
C           36.08283349138669        7.38538608057535        5.74504842655912
H           36.78335474151355        6.66276267939876        5.33010931072088
H           36.64211687708799        8.28550644622046        6.00385267731620
H           35.35471965292653        7.64578798820260        4.97847595451082
C           33.11179815879875        7.94322600940471        6.80555724749860
H           32.08212059238483        7.63635555568701        6.93986719554817
C           33.36175980610035        9.09461002525660        6.18070773619823
H           34.35935568316780        9.47139092467478        6.04321548808670
H           32.56569711774058        9.70416106234358        5.78655285173605
C           30.20275084429657        6.39850253449626       10.96724954257696
H           30.10244546782914        6.63388051699004        9.91034543795734
H           30.34669199992137        7.33747168298387       11.50682885457021
H           29.27559342383157        5.94573331211533       11.31086294668634
C           30.65854162046601        4.25267483430335       13.34045945289997
H           30.85231536770918        3.28590326063905       13.79098280523151
C           29.69153390822579        5.00018396655774       13.87420380778489
H           29.44156121186240        5.98751220428960       13.52768833463309
H           29.11219807414039        4.63372946489461       14.70611758450137
C           34.61426024751796        1.19913137401650       14.96491333847380
H           33.74956151745767        0.60614313817227       14.66864628404025
H           34.26439200432834        2.00497854219849       15.61108668103667
H           35.28332938639214        0.56394363941282       15.53984583241364
C           37.69698918102067        0.89736203421599       14.15420994079561
H           37.73936419059955       -0.16027640297281       13.89022550842734
H           37.52139856275738        0.97110068943128       15.22662134083133
H           38.66630447900103        1.34207515440743       13.94124147497404
O           35.84369229770714        5.93536800298167       11.50917409497244
H           35.10190441470663        6.24430336455132       12.08121501257295
H           36.67368317526148        6.05968089162470       12.04219589729694
C           32.50383831851210        0.11047834558524        7.42807115743363