87
 energy: -124.039242474941 gnorm: 0.365421890437 xtb: 6.7.1 (edcfbbe)
Fe          11.14000000000000       24.00400000000000        1.93800000000000
N           11.60400000000000       25.93300000000000        2.15700000000000
N           12.38300000000000       23.86400000000000        0.41600000000000
N           10.67600000000000       22.08300000000000        1.73500000000000
N            9.91300000000000       24.11700000000000        3.48100000000000
C           11.15900000000000       26.79200000000000        3.13200000000000
C           11.70800000000000       28.12200000000000        2.93300000000000
C           12.44900000000000       28.06300000000000        1.79700000000000
C           12.40600000000000       26.69900000000000        1.34500000000000
C           13.10300000000000       24.85800000000000       -0.15800000000000
C           13.94000000000000       24.32700000000000       -1.23700000000000
C           13.68300000000000       23.00500000000000       -1.33100000000000
C           12.72900000000000       22.72000000000000       -0.27500000000000
C           11.23200000000000       21.15700000000000        0.89700000000000
C           10.69500000000000       19.85000000000000        1.12500000000000
C            9.81900000000000       19.93600000000000        2.13000000000000
C            9.77900000000000       21.33000000000000        2.50400000000000
C            9.08500000000000       23.13300000000000        3.98900000000000
C            8.34000000000000       23.61700000000000        5.13500000000000
C            8.74900000000000       24.89300000000000        5.34600000000000
C            9.68500000000000       25.20499999999999        4.29100000000000
C           10.28500000000000       26.45000000000000        4.14400000000000
H           10.04700000000000       27.21400000000000        4.88400000000000
C           13.08000000000000       26.19900000000000        0.23400000000000
H           13.63400000000000       26.91000000000000       -0.37900000000000
C           12.19900000000000       21.45500000000000       -0.04300000000000
H           12.57700000000000       20.63300000000000       -0.65200000000000
C            9.03800000000000       21.82800000000000        3.52800000000000
H            8.35100000000000       21.14500000000000        4.02700000000000
C           11.45600000000000       29.28400000000000        3.83500000000000
H           11.81000000000000       28.79600000000000        4.76800000000000
H           10.34700000000000       29.23200000000000        3.80000000000000
H           11.78700000000000       30.34500000000000        3.83500000000000
C           13.21900000000000       29.18500000000000        1.12900000000000
H           12.72200000000000       29.11100000000000        0.13800000000000
H           14.18900000000000       28.64500000000000        1.08600000000000
H           13.39100000000000       30.25700000000000        1.36700000000000
C            8.38200000000000       25.85000000000000        6.44400000000000
H            7.31400000000000       25.75700000000000        6.15300000000000
H            8.56000000000000       26.87300000000000        6.83900000000000
H            8.60900000000000       25.09500000000000        7.22700000000000
C            7.36400000000000       22.79400000000000        5.92200000000000
H            7.67300000000000       22.29100000000000        6.84800000000000
C            5.93700000000000       23.39699999999999        5.93700000000000
H            5.54200000000000       23.92000000000000        5.05300000000000
H            5.30300000000000       23.30900000000000        6.83200000000000
C            9.04600000000000       18.84900000000000        2.83100000000000
H            8.02300000000000       19.22900000000000        2.62400000000000
H            9.34100000000000       19.15000000000000        3.85900000000000
H            9.04300000000000       17.74100000000000        2.74500000000000
C           11.21900000000000       18.57800000000000        0.47400000000000
H           12.27100000000000       18.57100000000000        0.25200000000000
C           10.05600000000000       17.73900000000000       -0.13500000000000
H            9.02300000000000       17.87900000000000        0.21700000000000
H           10.25500000000000       16.99800000000000       -0.92300000000000
C           14.18600000000000       21.96400000000000       -2.27300000000000
H           13.93800000000000       22.65900000000000       -3.10400000000000
H           14.05700000000000       20.91900000000000       -2.62700000000000
H           15.24000000000000       22.13300000000000       -1.96500000000000
C           14.80900000000000       25.22100000000000       -2.07100000000000
H           14.29200000000000       24.86700000000000       -2.98800000000000
H           15.68100000000000       24.56200000000000       -1.87200000000000
H           15.15100000000000       26.26600000000000       -2.23100000000000
C           14.33000000000000       22.02100000000000        6.12200000000000
H           14.80600000000000       22.79500000000000        6.76100000000000
H           15.08900000000000       21.25300000000000        5.86000000000000
H           13.49500000000000       21.55200000000000        6.68600000000000
N           14.60600000000000       23.31300000000000        4.00000000000000
H           15.59500000000000       23.41100000000000        4.10800000000000
C           13.79900000000000       22.66200000000000        4.86600000000000
C           13.86600000000000       23.79800000000000        2.98700000000000
H           14.26900000000000       24.37700000000000        2.15700000000000
N           12.61100000000000       23.46100000000000        3.17100000000000
C           12.55800000000000       22.73200000000000        4.32900000000000
H           11.61900000000000       22.31900000000000        4.67500000000000
C           10.18500000000000       23.95700000000000       -2.06600000000000
H           10.02600000000000       23.23200000000000       -2.89300000000000
H           11.25300000000000       23.92100000000000       -1.76200000000000
H            9.93500000000000       24.97500000000000       -2.43400000000000
C            9.30700000000000       23.60600000000000       -0.89500000000000
H            9.56800000000000       22.58400000000000       -0.54800000000000
H            8.24900000000000       23.60000000000000       -1.23200000000000
S            9.50500000000000       24.77900000000000        0.46600000000000
C            7.87800000000000       24.65000000000000        1.21900000000000
H            7.67100000000000       23.61200000000000        1.55700000000000
H            7.09300000000000       24.93600000000000        0.48700000000000
H            7.81000000000000       25.31900000000000        2.10300000000000
87
 energy: -124.195615892142 gnorm: 0.214236508689 xtb: 6.7.1 (edcfbbe)
Fe          11.12980823382738       24.00001333507479        1.94123386263515
N           11.61094274988321       25.94139017278508        2.15901893873535
N           12.37930635809398       23.85846204788537        0.42694985839684
N           10.66865287551166       22.06308460072418        1.73501819307720
N            9.90241129982189       24.11563963103162        3.48498739021585
C           11.16467913725784       26.79618911350510        3.12984293628839
C           11.71163401901512       28.12550306001870        2.91979545458424
C           12.45404272431696       28.06871438347452        1.79700776769542
C           12.40310190777421       26.69954003949703        1.33803211656355
C           13.09388351724493       24.86207623694051       -0.14237568708280
C           13.91361672939336       24.34552449875128       -1.21303021230845
C           13.65912456869877       23.00588048119041       -1.29993808832059
C           12.71554419854963       22.71848904680682       -0.25810989974044
C           11.24373979926779       21.14989739297851        0.89910277970782
C           10.71919258563391       19.82480618854457        1.12012626513191
C            9.82183940525477       19.92633536418008        2.12565590643267
C            9.78323042330370       21.32285845299931        2.50203744853236
C            9.08409199006734       23.13429063290042        3.99175805709642
C            8.33520697874695       23.61735377721476        5.13143014419163
C            8.76919543708644       24.90208517139117        5.33113777465545
C            9.70200707815925       25.20394718500545        4.28579509565931
C           10.29290998771204       26.44942740716716        4.14192782218994
H           10.04504962834763       27.20756591948913        4.87771213253797
C           13.07632405331303       26.19818009073634        0.23536873496063
H           13.63549019018038       26.90082093571309       -0.37373517394207
C           12.20156761657100       21.45513519453148       -0.04257819295427
H           12.57656954997102       20.64186820852045       -0.65361351003328
C            9.02959193418359       21.83032487819614        3.53009857188363
H            8.34985203027038       21.15146716110526        4.03203948834654
C           11.43513818768257       29.26228408398966        3.83069373887943
H           11.78749167234995       28.82096173218606        4.77982081910787
H           10.33852496281770       29.25852909806422        3.82697874975019
H           11.79508327051219       30.30192356131548        3.86363797247366
C           13.22757034658160       29.15363190614178        1.10189129854662
H           12.74755478394417       29.12897626507381        0.11605824921560
H           14.21016393531483       28.66976414285017        1.05748623569755
H           13.36002121395724       30.20994677739212        1.39491480073268
C            8.35114509983831       25.81260298904441        6.44996189498183
H            7.28286825964693       25.77168129298047        6.20445682380987
H            8.58872387074605       26.83821886294460        6.78461525353208
H            8.57813684402198       25.11520537358404        7.26661728324264
C            7.31568341441213       22.88100838905626        5.93962163934254
H            7.65323856883169       22.30584580257370        6.81681719016474
C            5.99064076573541       23.38194581351139        5.94267083587100
H            5.57560013188284       23.90732073504384        5.07746115855971
H            5.32559064053251       23.27745244838563        6.80359116157173
C            9.03087711559431       18.87931680314956        2.84871830456426
H            8.00474727500409       19.21187850721405        2.64866111378422
H            9.31195197709399       19.12649073092544        3.87975479094791
H            9.07315721174879       17.78459712318355        2.71948914832691
C           11.14363020637282       18.58420418480197        0.42142162853674
H           12.21888196888487       18.54219575665801        0.23796346694952
C           10.11056781190457       17.76926718174703       -0.11551758516310
H            9.07242864959265       17.89578299364674        0.20956873341789
H           10.27569724471376       17.01164700449984       -0.88508943073824
C           14.20978771908675       22.01233526488392       -2.28450868001510
H           13.97772274352719       22.63918665595701       -3.15571697405188
H           14.02723789522359       20.95918735682086       -2.57124011267368
H           15.26754432632171       22.11798536497621       -2.00861038006690
C           14.81389478526944       25.17195846912155       -2.09164521784194
H           14.33274070133724       24.87584526789109       -3.03320418361506
H           15.71728304578182       24.57263825223883       -1.91900267106843
H           15.10763550454515       26.23397626853336       -2.18253095830732
C           14.32758622108086       22.02240528833066        6.11852040343421
H           14.80095602656943       22.78404172325364        6.75434426820739
H           15.07893922703365       21.26103605064002        5.86673629900433
H           13.50761977142450       21.55677772596452        6.67799980775926
N           14.61285443967469       23.31633082454007        4.00184187232190
H           15.60546930125513       23.41517687017102        4.10893882786872
C           13.80120440191538       22.65489576086610        4.87008101583058
C           13.86729438889557       23.79737471313561        2.99026630522950
H           14.26371731623684       24.37148584835810        2.16664249861948
N           12.61009423487102       23.46063968379137        3.16880667929811
C           12.55328510303766       22.73530472158220        4.32780012378451
H           11.62220542588679       22.32451083918230        4.67347759555648
C           10.18617649069704       23.95973388836229       -2.07120796522436
H           10.02955289702092       23.24136781112760       -2.88626486357685
H           11.23935112019882       23.92607085585771       -1.77407574227661
H            9.94178913911430       24.96575052627846       -2.43370594265992
C            9.30201377040927       23.59409144040018       -0.90087726455309
H            9.56164862180925       22.58784850071769       -0.54452161437516
H            8.25159950900510       23.60119428650093       -1.22290249601872
S            9.49600452499426       24.78335470663335        0.46112639423726
C            7.86632670192464       24.64410842885754        1.22245263714071
H            7.67437287717797       23.61704399939283        1.55572201948014
H            7.10041476569254       24.93658042803861        0.49281723605992
H            7.81495456580540       25.31321200927158        2.09047983125026
87
 energy: -124.275638630525 gnorm: 0.172905890807 xtb: 6.7.1 (edcfbbe)
Fe          11.12453409417481       23.99586149283867        1.94414773626592
N           11.61574691803526       25.95461863990662        2.16281780873600
N           12.37709273599769       23.85294662428046        0.43361247902358
N           10.65961745846793       22.03876016695899        1.73729963908155
N            9.89261489660976       24.11257051937477        3.49033790450394
C           11.17037753256433       26.80122997285079        3.13162585906441
C           11.71573060370495       28.13488437909890        2.92766299901193
C           12.45502238097222       28.08183077073292        1.80411428029162
C           12.39946014768405       26.70286607106373        1.33595646991742
C           13.08804610485985       24.86679780160800       -0.13400181199547
C           13.89271753451312       24.36511895045489       -1.19732146396611
C           13.64163191849303       23.00517468155386       -1.27679872290851
C           12.70646190174051       22.71686008397253       -0.24697032918730
C           11.25036333251039       21.13830849332212        0.90278412376550
C           10.73440237410319       19.79586159585263        1.12023162099179
C            9.82142596873498       19.91643287835366        2.12379963363849
C            9.78944695447386       21.31615102237635        2.50054831122201
C            9.08070814566769       23.13457899507624        3.99260306928705
C            8.32766546267163       23.61657092266955        5.12494134490785
C            8.78289490634245       24.91112733778557        5.31938705509764
C            9.71741177573093       25.20101360945625        4.28519484479401
C           10.30100506483290       26.44832997381193        4.14231466415510
H           10.04246587540886       27.20012383487247        4.87318619650117
C           13.07253320769868       26.20069807140525        0.23922793901966
H           13.63754281584780       26.89335182596803       -0.36664003866398
C           12.20291629976741       21.45081669553493       -0.04112013640209
H           12.57577924826916       20.64758828635661       -0.65533368584972
C            9.02116239278692       21.83182573489592        3.52973429206233
H            8.34874000401921       21.15704291504124        4.03530395748474
C           11.41276487433411       29.23434880915694        3.88183363914469
H           11.77249097749514       28.84150294738319        4.83370583569954
H           10.32830887487204       29.28340459622767        3.86411058587488
H           11.80859040282852       30.25601477094838        3.74536781061020
C           13.23522879228389       29.12147883922739        1.07571611050776
H           12.77457935081932       29.14757293192855        0.09274043755759
H           14.23243378504272       28.69555696509784        1.02675241956170
H           13.32375342982705       30.15926873448364        1.43031623923893
C            8.31552185986264       25.76835265828216        6.45655334353781
H            7.24936723954873       25.78603857024076        6.25811182822324
H            8.62489283106607       26.79716581631358        6.71660153371903
H            8.54507772363809       25.13248750722775        7.30731492416746
C            7.26662381318380       22.97053622104363        5.96121087706682
H            7.64245055664950       22.32883042377725        6.78529940466199
C            6.05233781986409       23.36749501517542        5.94516586350968
H            5.61255174650572       23.91124232644166        5.10651990168988
H            5.34636937886504       23.23169404207981        6.76704287693043
C            9.01505834915048       18.90989685182229        2.86684961398864
H            7.98422659279479       19.19354840279421        2.67493733254358
H            9.28104759416068       19.10195645843451        3.90222683077820
H            9.10913733997860       17.83013436970534        2.68646487024350
C           11.07400476800922       18.58263260207395        0.37511458998227
H           12.16545411626851       18.51465500842361        0.21227986090962
C           10.16840579765463       17.81563260158066       -0.09793004509171
H            9.11757382700641       17.91877617178108        0.19191306595452
H           10.30261888138034       17.02324783322739       -0.83620352704453
C           14.23713866779023       22.06945049183270       -2.29703852548713
H           14.01892129765472       22.62373415163198       -3.20540779104992
H           13.98692338373128       21.00805255830513       -2.50092445521358
H           15.29556517938487       22.10805856537904       -2.05147783945216
C           14.81769019458325       25.11592885892673       -2.11384867352976
H           14.37424460496962       24.88155564528164       -3.07816005615575
H           15.75095917449879       24.58036813116500       -1.96519466819996
H           15.05190695657372       26.19809905738526       -2.12028188751385
C           14.32473028098700       22.02318999645921        6.11500970586134
H           14.79641632685672       22.77528449571054        6.74809778091743
H           15.07065642126458       21.26679187208619        5.87207857976437
H           13.51652757947233       21.55984209862784        6.67069534360914
N           14.61944796828797       23.31934630305227        4.00418296425069
H           15.61506025805475       23.41880571819314        4.11033838730449
C           13.80274696928404       22.64797798087308        4.87402066817647
C           13.86973570302469       23.79649744190702        2.99490730703426
H           14.25899474208283       24.36679055952130        2.17580434296987
N           12.61128278541070       23.46100964728607        3.16818009034998
C           12.55087065956247       22.73876857809270        4.32623356334460
H           11.62645590752881       22.32898430364850        4.67359411033418
C           10.18698353156744       23.96147765906305       -2.07760014374439
H           10.03191758369137       23.24884851551643       -2.88312772934912
H           11.22815122490372       23.93097585542199       -1.78435269755271
H            9.94527354321165       24.95844088269564       -2.43270581967399
C            9.29654573529167       23.58251275373586       -0.90809248818543
H            9.55626682776381       22.59200216992303       -0.54103511571475
H            8.25279409406955       23.60312874313365       -1.21529668061124
S            9.48986441145487       24.78879967417060        0.45783956071099
C            7.85340735492549       24.63886625494926        1.22617285032971
H            7.67797614012171       23.62039424823600        1.55420000481468
H            7.10526338226204       24.93731783067213        0.49746565513853
H            7.81989232995953       25.30888513476434        2.08006139270664
87
 energy: -124.317072996777 gnorm: 0.058507709735 xtb: 6.7.1 (edcfbbe)
Fe          11.12194361226055       23.99381002498676        1.94609939631329
N           11.61846635527108       25.95528719212258        2.16508878811275
N           12.37528227579669       23.85154524938152        0.44032370253082
N           10.65807673011218       22.03224807958742        1.74374357447867
N            9.89231022562799       24.11303689947528        3.49010905706009
C           11.17696022270803       26.79918443872126        3.13276337942363
C           11.71505360057441       28.13394550135386        2.92920983875868
C           12.45744369376885       28.08007621859799        1.80238093341114
C           12.39590812223551       26.70165574015665        1.33599190414801
C           13.08472024817554       24.86707875917005       -0.13164812971807
C           13.88667004083606       24.36736919849313       -1.19973622093315
C           13.64089895242675       23.01106446481203       -1.27505869025553
C           12.70572556990012       22.71731285931984       -0.24266624739763
C           11.25446686814047       21.13602873701931        0.91274016818794
C           10.73773596960555       19.80047311152034        1.13687273346589
C            9.81980455579646       19.91915470568920        2.13548858463121
C            9.79015519826084       21.31677229755696        2.50689369759600
C            9.07856137502672       23.13754475901750        3.98859432487636
C            8.33927041499064       23.62588419676446        5.11924126407867
C            8.78141299783365       24.91592140235090        5.31799351493864
C            9.72656634502721       25.20067041406211        4.28976296661357
C           10.31106978654492       26.44633495212975        4.14444094318246
H           10.04199675853698       27.19734130566211        4.86989918331343
C           13.06866368629356       26.20090009465055        0.24227343177470
H           13.64308185671787       26.88723250355613       -0.35964630506656
C           12.20368655651332       21.44848377894516       -0.03448948725639
H           12.57443043645302       20.65103938702438       -0.65683458922223
C            9.01506772079852       21.83485056010614        3.52936306775131
H            8.34397233468985       21.16337145692870        4.04061807166031
C           11.40027983269491       29.21959139706355        3.89579559958481
H           11.74957542018278       28.87004964395504        4.86777817313260
H           10.31435749019930       29.31182426737093        3.90573288843634
H           11.82703415918133       30.21545108933699        3.70025072084083
C           13.24127822470727       29.10084639529391        1.05906033638066
H           12.80675105515032       29.16492292082335        0.06118637924810
H           14.26099440631381       28.72004823743945        0.98841532215751
H           13.28538155323533       30.11898240959292        1.47346130687702
C            8.29451770428392       25.74511830223451        6.45940513671266
H            7.21252461489635       25.79773890345271        6.31942637785795
H            8.66592258055076       26.77106392630334        6.64829741237256
H            8.50376990028907       25.14942607258118        7.35103609016841
C            7.31217219746912       23.00455604798645        5.98275117339723
H            7.67180704767608       22.35548177876129        6.78856754792571
C            6.02032385846570       23.35387248679017        5.93323571117834
H            5.62130804148826       23.95231653604385        5.12008579776591
H            5.31857552732718       23.16221361103056        6.73884128826419
C            9.00362280088354       18.92715280273274        2.87935305179509
H            7.95636843992781       19.17497228428781        2.70650178420999
H            9.24172286581208       19.07605010138800        3.93365233140383
H            9.14812274303612       17.86367042585499        2.64595778038658
C           11.08530352104390       18.62293118358324        0.35785860236057
H           12.15809496311800       18.51628050089973        0.17223581619003
C           10.15561327917922       17.77995254781872       -0.09809694478428
H            9.11125392326351       17.93405687811671        0.15735742527472
H           10.32547088639759       16.98235125251717       -0.80582372899565
C           14.25204118575633       22.10630814272199       -2.30039159900681
H           14.06896703641351       22.61290637850558       -3.25385518885087
H           13.94162056138063       21.04695562612670       -2.42802056080966
H           15.32661766819723       22.10615917620540       -2.10013534087950
C           14.81653005491071       25.08252283945315       -2.12562715034935
H           14.42292559596932       24.88074944341137       -3.12670962614216
H           15.78230269278080       24.58210247587320       -2.01856096563341
H           14.99648107803163       26.17433944582811       -2.05612133720310
C           14.32315859292998       22.02214412035548        6.11244625802582
H           14.79448650421334       22.77172212732010        6.74621976619025
H           15.06804977715762       21.26516624602652        5.87505802769171
H           13.51638003564646       21.55843517327512        6.66710167786472
N           14.62372539393705       23.32091624894232        4.00706311934185
H           15.62045434356608       23.42225019207309        4.11357781048991
C           13.80436268278392       22.64648974397284        4.87300267802096
C           13.87261793890274       23.79684600685415        2.99914628832131
H           14.25890331847675       24.36713589064878        2.18070298435400
N           12.61381638475987       23.46226529424216        3.16894401784817
C           12.55327642891913       22.74135544260089        4.32599869126529
H           11.62857261786901       22.33392722569475        4.67596317488545
C           10.18173897285724       23.96162101321607       -2.08208725989871
H           10.03128504870448       23.25202803526071       -2.88939110549434
H           11.22359230362903       23.93671996771593       -1.79428131662053
H            9.94269493575951       24.95872528084155       -2.43568683428289
C            9.29250077638534       23.57939762778589       -0.91219291670945
H            9.55073761844442       22.59219801634745       -0.53625990147095
H            8.24691444611218       23.60406321006171       -1.20983077375779
S            9.48493158164387       24.79235930013323        0.45207855578220
C            7.84876275033571       24.63544277747158        1.22499638136031
H            7.68001963590354       23.61658406664074        1.55407393495436
H            7.10220118286050       24.93840776095294        0.49818800898091
H            7.82478130706544       25.30821541101882        2.07545426513252
87
 energy: -124.333657711589 gnorm: 0.049607988163 xtb: 6.7.1 (edcfbbe)
Fe          11.12363766660089       23.99047174858109        1.94853621089773
N           11.61937050561856       25.95098454034326        2.16855014356829
N           12.37791689096711       23.84802122627171        0.43865576481040
N           10.66186881150299       22.02586232697326        1.75280879234547
N            9.89215793787917       24.11440273725831        3.49671117115805
C           11.18288922538091       26.79268703270273        3.13603329765946
C           11.71393425226615       28.12933534070663        2.93172172122288
C           12.45901759238099       28.07441961566697        1.80049929982415
C           12.39273622139196       26.69560131333321        1.33865486353074
C           13.08560502414120       24.86622013761028       -0.13762202901150
C           13.88728319474197       24.36634108716819       -1.21129245854307
C           13.64692220356134       23.01326395704489       -1.28197570273486
C           12.71003481858079       22.71300174034007       -0.24484944384403
C           11.25949767087191       21.12869087723134        0.92529181058974
C           10.72953228031992       19.79751293249032        1.14891887873841
C            9.80962307396902       19.92172679033113        2.14798449510971
C            9.79140235374012       21.31848248768433        2.51519657136817
C            9.07232308176262       23.14026695205883        3.98873042902140
C            8.33218403368642       23.63093344200530        5.11500910732076
C            8.77037184408862       24.91610318131863        5.32719120559217
C            9.72760871171473       25.20075602854357        4.30174045639659
C           10.31858821573530       26.44278384439533        4.15071816377505
H           10.04357747078184       27.19576087782420        4.87026884453704
C           13.06696832720475       26.19853520521237        0.24508149628309
H           13.65020841049761       26.88227670798278       -0.35012405751374
C           12.20641311424669       21.44230018431735       -0.02612480308495
H           12.57313545349918       20.64886717624184       -0.65577684979648
C            9.00769313367277       21.83857882041688        3.52996658370234
H            8.33421517885999       21.17117688207061        4.04345830451864
C           11.39443185115003       29.21264376711357        3.89674032562673
H           11.73608881741170       28.90969884375772        4.88814577926158