78
 energy: -115.953271231275 gnorm: 0.280124506670 xtb: 6.7.1 (edcfbbe)
Fe          48.71100000000000       -5.42300000000000       59.51199999999999
N           49.04200000000000       -7.00500000000000       60.63800000000000
N           49.42200000000000       -4.20700000000000       60.94500000000000
N           48.36700000000000       -3.75100000000000       58.45300000000000
N           47.97900000000000       -6.59700000000000       58.05599999999999
C           48.75400000000000       -8.32200000000000       60.30600000000000
C           49.11700000000000       -9.21000000000000       61.37300000000000
C           49.59599999999999       -8.43000000000000       62.34400000000000
C           49.56399999999999       -7.03300000000000       61.89500000000000
C           49.91700000000000       -4.62600000000000       62.15300000000000
C           50.38099999999999       -3.47300000000000       62.90500000000000
C           50.15100000000000       -2.39300000000000       62.15700000000000
C           49.53100000000000       -2.84100000000000       60.93800000000000
C           48.51599999999999       -2.44900000000000       58.80700000000000
C           47.89099999999999       -1.60200000000000       57.81600000000000
C           47.37400000000000       -2.38100000000000       56.87300000000000
C           47.66200000000000       -3.73400000000000       57.27199999999999
C           47.29499999999999       -6.11000000000000       56.95600000000000
C           46.55400000000000       -7.16000000000000       56.31300000000000
C           46.85699999999999       -8.40000000000000       57.12700000000000
C           47.72600000000000       -7.95300000000000       58.17600000000000
C           48.21699999999999       -8.76500000000000       59.13900000000000
H           48.18000000000000       -9.84100000000000       58.96900000000000
C           49.98400000000000       -5.92000000000000       62.58400000000000
H           50.41299999999999       -6.08700000000000       63.57200000000000
C           49.15200000000000       -2.00700000000000       59.91900000000000
H           49.37100000000000       -0.94300000000000       60.00700000000000
C           47.29199999999999       -4.82200000000000       56.53599999999999
H           46.96299999999999       -4.63700000000000       55.51300000000000
C           50.13200000000000       -8.94300000000000       63.69100000000000
H           51.22100000000000       -9.14400000000000       63.60399999999999
H           49.61299999999999       -9.88500000000000       63.96699999999999
H           49.96900000000000       -8.17500000000000       64.47700000000000
C           48.89200000000000      -10.75900000000000       61.35600000000000
H           49.28900000000000      -11.18100000000000       60.40799999999999
H           47.80600000000000      -10.98100000000000       61.42200000000000
H           49.42800000000000      -11.22500000000000       62.20999999999999
C           51.01600000000000       -3.58900000000000       64.30900000000000
H           51.68500000000000       -4.47500000000000       64.34099999999999
H           50.21800000000000       -3.71100000000000       65.07299999999999
H           51.61400000000000       -2.67800000000000       64.52700000000000
C           50.39900000000000       -0.89300000000000       62.42300000000000
H           50.37400000000000       -0.18700000000000       61.57999999999999
C           50.64599999999999       -0.38800000000000       63.63300000000000
H           50.68300000000000       -1.04400000000000       64.51500000000000
H           50.81600000000000        0.69100000000000       63.76400000000000
C           47.90400000000000       -0.06500000000000       57.91000000000000
H           48.89900000000000        0.27600000000000       58.26800000000000
H           47.12700000000000        0.27400000000000       58.62800000000000
H           47.71200000000000        0.37400000000000       56.90800000000000
C           46.58899999999999       -2.05800000000000       55.56900000000000
H           46.49000000000000       -2.84300000000000       54.80500000000000
C           46.01400000000000       -0.87900000000000       55.29700000000000
H           46.07400000000000       -0.04900000000000       56.01700000000000
H           45.47400000000000       -0.72600000000000       54.35100000000000
C           45.66000000000000       -7.08200000000000       55.05200000000000
H           46.29600000000000       -6.91700000000000       54.15599999999999
H           44.94800000000000       -6.23500000000000       55.14900000000000
H           45.10199999999999       -8.03500000000000       54.92800000000000
C           46.28400000000000       -9.80400000000000       56.89300000000000
H           46.94799999999999      -10.36500000000000       56.20100000000000
H           45.27300000000000       -9.72600000000000       56.43900000000000
H           46.22599999999999      -10.35100000000000       57.85800000000000
O           46.82600000000000       -5.13900000000000       60.12700000000000
H           46.56000000000000       -4.28800000000000       59.77799999999999
H           46.32700000000000       -5.68300000000000       60.62300000000000
C           53.27999999999999       -5.23100000000000       56.39500000000000
H           53.41000000000000       -6.16500000000000       55.80700000000000
H           54.25500000000000       -4.95200000000000       56.84899999999999
H           52.93200000000000       -4.42300000000000       55.71600000000000
N           52.43399999999999       -6.41100000000000       58.45300000000000
H           53.23900000000000       -6.99800000000000       58.54099999999999
C           52.26600000000000       -5.45700000000000       57.47400000000000
C           51.37500000000000       -6.42100000000000       59.24000000000000
H           51.25500000000000       -7.07500000000000       60.10300000000000
N           50.51600000000000       -5.52100000000000       58.80300000000000
C           51.04800000000000       -4.90900000000000       57.69700000000000
H           50.50599999999999       -4.13500000000000       57.16800000000000
78
 energy: -116.015359080928 gnorm: 0.114457224803 xtb: 6.7.1 (edcfbbe)
Fe          48.73349191860575       -5.40613958093576       59.50846860595311
N           49.01130185720427       -7.01555843909229       60.64441316973802
N           49.41586197071950       -4.19934168950721       60.95994132744816
N           48.32859928353474       -3.75065194797620       58.44153817877739
N           47.94880993532047       -6.59058140048570       58.07050771859866
C           48.75716745334313       -8.32492635573387       60.30337419695658
C           49.11779093156503       -9.21877560368190       61.37595595500964
C           49.60508198162688       -8.43437975063463       62.36412962153909
C           49.55215213340487       -7.04893732114237       61.89604341653742
C           49.92193419927681       -4.61755114025922       62.15674567341902
C           50.38921599839489       -3.47250914355702       62.92335127508920
C           50.15685972409445       -2.36822774164611       62.16631324206618
C           49.54827459690282       -2.84107833091787       60.94032578232754
C           48.50406588332037       -2.44631753659158       58.78588255845262
C           47.89591481963159       -1.57811810773721       57.79960400546234
C           47.36764484014004       -2.37424135054031       56.83546969854696
C           47.66224037463920       -3.73336238588879       57.24654377056250
C           47.29281776901804       -6.14624272313491       56.95376935653336
C           46.56667789467852       -7.20897935342169       56.31565378302668
C           46.84221624059452       -8.37185958178000       57.08686412799319
C           47.71098949710142       -7.93784682702551       58.14192224416207
C           48.21357678496803       -8.76452169993327       59.12393333398351
H           48.15588898530752       -9.83579001659657       58.97121899092766
C           49.98429377621617       -5.92871467024597       62.58800547049161
H           50.41093405283213       -6.09411148851532       63.57075118808685
C           49.15443021855555       -2.00832424100040       59.91534486683507
H           49.35553570236070       -0.94938083227960       60.01146695544892
C           47.28832912998566       -4.83675913145119       56.51912774870666
H           46.93136737189106       -4.65088420967260       55.51506030396750
C           50.13268799835161       -8.92974880614539       63.68924029830323
H           51.20733067602952       -9.13680944251540       63.61030460325950
H           49.62341261570430       -9.85919515710401       63.96630860527318
H           49.97257454111565       -8.18519245396527       64.47355439790722
C           48.90061653178275      -10.73049761171428       61.35515134467656
H           49.28578130026716      -11.16560877877804       60.42549823911836
H           47.83084962941483      -10.96608904641108       61.42183154097269
H           49.41764023100356      -11.20850465528897       62.19345037488735
C           51.01461342163579       -3.59359546376855       64.29613046614570
H           51.67429206803948       -4.46611675347973       64.33971897457494
H           50.23345983427975       -3.70737289433217       65.05876545595549
H           51.61160345885990       -2.70620070241274       64.52243420979455
C           50.40357828964760       -0.91783308143954       62.43310537100203
H           50.37194181285486       -0.23018343690966       61.58717362732092
C           50.64350302318993       -0.39516949181301       63.63123813754087
H           50.66951627649621       -1.01446164174327       64.51650979127369
H           50.81275068166488        0.67010888955266       63.76035664942683
C           47.90912157291514       -0.07218918193860       57.90954028203920
H           48.88536046390892        0.27250454873142       58.26559176806807
H           47.14019654564222        0.26942116406076       58.61398271092231
H           47.72590933506604        0.37326769877388       56.92905973715067
C           46.60239956979668       -2.04861906555152       55.58791926250250
H           46.50831186885254       -2.83763617701648       54.84166468348334
C           46.02031022752201       -0.88535869752792       55.30845266954439
H           46.05173255794310       -0.05690082075080       56.00326034361118
H           45.48830897812289       -0.73150853231462       54.37313161322654
C           45.68351807439463       -7.09192414515108       55.08223439543351
H           46.29020990362670       -6.92290126136568       54.18128298847000
H           44.97224741870697       -6.25727547262724       55.16112388895763
H           45.11582388773542       -8.01695983770775       54.93522247999117
C           46.29420312031424       -9.77045891479594       56.88869175976289
H           46.93762746685002      -10.34905556873261       56.21091152909536
H           45.29242907379641       -9.72564491608315       56.44695933510639
H           46.22851157269363      -10.32329328926679       57.83576056588532
O           46.82330970686650       -5.12849230839024       60.13441203643934
H           46.52754695197957       -4.28528277447268       59.78887791374172
H           46.28260537863525       -5.69765860373901       60.64922176587566
C           53.28381786056901       -5.23296421823758       56.39347070897477
H           53.41680833341550       -6.15022680853854       55.80759491098296
H           54.24780377637257       -4.95257902180208       56.83350468966528
H           52.94126562699791       -4.43561764714639       55.72825407311053
N           52.45963586179500       -6.41020878565999       58.43938162402636
H           53.26561339461182       -7.00013058264064       58.53151832600156
C           52.27710670373630       -5.46361500255293       57.46315550643671
C           51.38330457810901       -6.41698735784537       59.23027188990611
H           51.26380858283030       -7.06067821104131       60.08480756866232
N           50.51482727341951       -5.53116303580583       58.80040610074779
C           51.05183095879183       -4.92091485911953       57.70339330624924
H           50.51387565841026       -4.15036518409013       57.18144091184835
78
 energy: -116.034069141163 gnorm: 0.039510984099 xtb: 6.7.1 (edcfbbe)
Fe          48.73618893360592       -5.39201649693802       59.50345865220007
N           48.99975124575883       -7.02363887756159       60.64508640098535
N           49.42531433240680       -4.19939470617997       60.96252750331826
N           48.31104277088711       -3.75128380039475       58.41784610662413
N           47.92695035650743       -6.58650922797244       58.07258022185348
C           48.75517196492908       -8.32102523111400       60.30194704791329
C           49.12111106642716       -9.21823683028763       61.37490721213435
C           49.61033214304080       -8.43178728798432       62.37514649207736
C           49.54115305947682       -7.05754362239288       61.89644519386232
C           49.92669246907539       -4.61528034571446       62.15601931352095
C           50.39572663544072       -3.47994183954597       62.93146792283471
C           50.16298167065367       -2.35917840166437       62.17053909272025
C           49.56190005136414       -2.84756556759273       60.93766215091190
C           48.49631280026258       -2.44834869893991       58.76501310189283
C           47.90495357490136       -1.56542368847033       57.78514118117271
C           47.37040093863556       -2.36881575829109       56.80542614620247
C           47.66326314834199       -3.73330672581556       57.22151866004538
C           47.28751718935204       -6.16375766580177       56.95173824084925
C           46.58090698491900       -7.24819309790503       56.31388118566183
C           46.83693357720884       -8.34952570543859       57.04997000488904
C           47.69742507906407       -7.92477623011128       58.12523448621024
C           48.19786177333483       -8.75766069871049       59.11792085379892
H           48.11742148951885       -9.82553714679026       58.97731802456290
C           49.97925558625202       -5.93617857844585       62.59075454518784
H           50.40615675720324       -6.10313791706430       63.56901007968290
C           49.14796418810246       -2.01832296304128       59.91101391490250
H           49.32845414390808       -0.96050507493366       60.01534988630013
C           47.27250215607962       -4.84775333504411       56.50612876764202
H           46.87879401183319       -4.66928305982477       55.51802735658594
C           50.13196973675247       -8.91224871218458       63.68698146166241
H           51.20027281193491       -9.12210834483340       63.61801574831235
H           49.63029704670078       -9.83549998064445       63.96931414200562
H           49.97460971571136       -8.18111020115320       64.47233925844796
C           48.91228768887967      -10.69951215155860       61.35494538431355
H           49.29116604966677      -11.14055725630493       60.43420924013470
H           47.84966462264849      -10.94029294554677       61.42088767159261
H           49.41722024453498      -11.18286728375275       62.18734938446008
C           51.01439190667012       -3.59908314683482       64.28204312280621
H           51.66308256609586       -4.47015446795919       64.33362527040934
H           50.24417010665398       -3.70388045372304       65.04755766526364
H           51.61430304768536       -2.72529130425704       64.51292090829348
C           50.40473907689370       -0.95595160051160       62.44311075478601
H           50.37565608392864       -0.28755876176764       61.58928501098774
C           50.63646142527411       -0.40730737141323       63.63330259555644
H           50.65168358523909       -0.98952404555899       64.53348093625351
H           50.80954911891155        0.65022370515775       63.74946782653413
C           47.91746400442177       -0.08104829549991       57.90288049687257
H           48.88062775038474        0.26596084957627       58.26902503951892
H           47.15027528429682        0.26032290353139       58.59914912438204
H           47.74043898399494        0.37809163662240       56.93687493202830
C           46.62753190249107       -2.04011590028913       55.60975154146082
H           46.53815893364554       -2.83526521891279       54.87825208124217
C           46.02741481337669       -0.88811501994638       55.32278975047981
H           46.02562658590627       -0.05491427477339       55.99884414353489
H           45.50011948394853       -0.74157917571823       54.39367532023623
C           45.70716151535259       -7.10761709687696       55.10489649354649
H           46.30301833890196       -6.92942778199400       54.20713873030449
H           45.00635453376722       -6.27512494642113       55.19642243130877
H           45.13025522691733       -8.01569155058735       54.94542259974781
C           46.30371120647099       -9.74002246981650       56.87679860050989
H           46.94100666677739      -10.32696022148705       56.21183724620005
H           45.30556267614570       -9.71468310336588       56.44313360666119
H           46.23905628191356      -10.27636376424297       57.82377784538100
O           46.80488551855692       -5.11571428582887       60.17712021248189
H           46.45450068532679       -4.29550987755206       59.81745532778618
H           46.22833548829807       -5.69925742267342       60.66945978117355
C           53.28855043307583       -5.23126258125254       56.38866762627186
H           53.42809601420158       -6.13770760378924       55.80180855225525
H           54.24689854416032       -4.94916939829103       56.82010530596108
H           52.94770667207966       -4.43914474991034       55.73278256939096
N           52.48516068123613       -6.40980514720995       58.42793089776986
H           53.29414355216500       -6.99886522732589       58.52372008078805
C           52.28618565563134       -5.47009737561533       57.45373704664380
C           51.39482815784189       -6.41966051881867       59.22099023181821
H           51.27984503633524       -7.05567272130000       60.07094567512824
N           50.51017461624891       -5.54927445815889       58.79787729241018
C           51.05348195865059       -4.93840381734293       57.70719360733046
H           50.52045786480517       -4.16924848191111       57.18861968101150
78
 energy: -116.040503231676 gnorm: 0.027415337496 xtb: 6.7.1 (edcfbbe)
Fe          48.72810349092755       -5.38734400438310       59.50279418059652
N           48.98636287292115       -7.02147090781689       60.65145581987580
N           49.43239701830540       -4.20742568914821       60.96092422849768
N           48.30517906042761       -3.75490238624433       58.40310872804628
N           47.90493464138174       -6.58010635267183       58.07614327358871
C           48.74598111495451       -8.31399919405379       60.30757656240941
C           49.12216517679823       -9.20871227422934       61.37774273380756
C           49.60845595827129       -8.42317619796828       62.38030578846216
C           49.53193317450117       -7.05580521606011       61.90012091766759
C           49.92920143615359       -4.62249211001896       62.15516787250412
C           50.39662587544905       -3.49477340614569       62.93231899292591
C           50.16443197973917       -2.37162732185317       62.17271082754426
C           49.56661232126248       -2.85802623674330       60.93533789036060
C           48.49665025081027       -2.45452477553349       58.75686725873608
C           47.91939238638935       -1.56441757681412       57.78014055334526
C           47.38343174460719       -2.36369686562042       56.79488378522064
C           47.66376507132441       -3.73163840152536       57.20672488301021
C           47.28106864691663       -6.15656790362598       56.94759359002062
C           46.59110651442535       -7.24831176961683       56.29784430512985
C           46.84269535058485       -8.35336706025864       57.04414187921701
C           47.68837979997944       -7.91963500544494       58.13218299312145
C           48.17961222725310       -8.75068282801520       59.12600799839830
H           48.07145208925412       -9.81792008769195       58.99477228520364
C           49.97553534580550       -5.94119744016795       62.59411662003276
H           50.40013195773705       -6.11175920690202       63.57229756549991
C           49.14193905390187       -2.03150721550064       59.91055441826133
H           49.29757613674237       -0.97015191929560       60.02546873568176
C           47.25471903729433       -4.84618033545696       56.49786199287473
H           46.81753517052898       -4.67632464521895       55.52311994185302
C           50.13356124191301       -8.89255496195085       63.69305489486897
H           51.20316149501218       -9.09850888531093       63.62810193767559
H           49.63552515941755       -9.81540304308155       63.98242750137715
H           49.97401022198611       -8.15920977969861       64.47658026045596
C           48.92344400045592      -10.68423035318342       61.35534860489044
H           49.30612713365422      -11.12027803348392       60.43436017046779
H           47.86059699890026      -10.92335079053375       61.41894694769745
H           49.42735777010815      -11.16217191222803       62.19058645827509
C           51.02188179969184       -3.61491604115662       64.27632831423956
H           51.65646773478677       -4.49666672717464       64.32935156816322
H           50.25469821093885       -3.70209967899941       65.04767386474397
H           51.63829450455325       -2.75030364473009       64.49913372511337
C           50.41064697575825       -0.97960674482735       62.44993763235513
H           50.39415598252427       -0.32679998734672       61.58515561847431
C           50.62768145753013       -0.41084065047434       63.63570063459822
H           50.60610658329764       -0.96303467201695       64.55864144014019
H           50.80571505961009        0.64679983764192       63.73072913283818
C           47.93531472541447       -0.08236044702444       57.89973867496958
H           48.89279860791277        0.26240629384460       58.28389896669476
H           47.15740881971888        0.25679612609499       58.58579548003492
H           47.77395279899528        0.38671718205384       56.93510780974755
C           46.64325759787999       -2.02883686930732       55.60975229648729
H           46.56876483953988       -2.82497045471323       54.87935411104745
C           46.02267550563129       -0.88530194622072       55.32553436005319
H           45.98296213799677       -0.05353075140322       56.00506895704915
H           45.50018220264597       -0.74935204836170       54.39445346278860
C           45.72013708495734       -7.11121531528362       55.09863210200827
H           46.31824648141177       -6.92873589040453       54.20591468040452
H           45.02640882732284       -6.27870752115108       55.21495972634141
H           45.14329188967481       -8.01889127093629       54.94221550046858
C           46.31233680815085       -9.73610708214235       56.86772835119119
H           46.95500042694982      -10.31994663606813       56.20810737933650
H           45.31668599740177       -9.70878709797041       56.43007925240609
H           46.24619987121045      -10.25331012490906       57.82219188517407
O           46.78570724797287       -5.09585642987071       60.24994746927910
H           46.37098984958547       -4.31941316378495       59.83940779064173
H           46.18014189334155       -5.70933776858396       60.68333215937109
C           53.29524129584865       -5.22454880383643       56.37913328900321
H           53.44449524657094       -6.12611189583304       55.78653177408650
H           54.25271040941811       -4.93698904986742       56.80919027002115
H           52.94953700280188       -4.43155520904379       55.72718902558357
N           52.50608745504591       -6.41097817679245       58.41849778548436
H           53.32275327077172       -6.99069476940445       58.51700551584575
C           52.29375509407321       -5.47599844780910       57.44327971490610
C           51.41171622352255       -6.43152541483864       59.21076080336097
H           51.30757068915383       -7.06426625569278       60.06353323186742
N           50.51186511646642       -5.57327083022250       58.78923378813300
C           51.05412717286973       -4.95998958964584       57.69839479736242
H           50.51987017495622       -4.19240993828949       57.18068426058197
78
 energy: -116.044718593117 gnorm: 0.050965627659 xtb: 6.7.1 (edcfbbe)
Fe          48.71694610651604       -5.38480368217522       59.50830631808776
N           48.97889701233726       -7.01796304306878       60.65892986167321
N           49.44784149052658       -4.22055256638103       60.95594237315759
N           48.29588351411051       -3.76198393233259       58.39143802390030
N           47.87639975759830       -6.56782657454369       58.08840146079425
C           48.73370370700863       -8.30544542949221       60.31721158722792
C           49.12275635513846       -9.19740053976730       61.38316240353716
C           49.60773904083781       -8.41323227113382       62.38555695285874
C           49.52668687591221       -7.05230350399466       61.90512157263351
C           49.93739882284807       -4.63359092713809       62.15321016509096
C           50.39726948200484       -3.51290725702565       62.93193284704309
C           50.16309489171755       -2.38983758845090       62.17522495397994
C           49.57063164560557       -2.87205176874171       60.93328935017363
C           48.49791880648542       -2.46424932201317       58.75125478488683
C           47.93638689667785       -1.56672515019519       57.77766547324248
C           47.39695064789201       -2.35844673626261       56.78876357758159
C           47.65785003631135       -3.73018699810841       57.19568304665172
C           47.26926384948507       -6.14531944300581       56.95045265044421
C           46.60331927292287       -7.24630162436849       56.28638633071242
C           46.85365362504000       -8.35393023936992       57.03990117752373
C           47.67426444669414       -7.90943292905571       58.14705374511075
C           48.14805913254866       -8.73981427930936       59.14224429409066
H           48.00862023794291       -9.80455546710526       59.01879766624914
C           49.97552595262732       -5.94698147729319       62.59972006154387
H           50.39203176458662       -6.12147932072339       63.58041626576172
C           49.13167556622425       -2.04934339492974       59.91323255618560
H           49.25551586226042       -0.98375782197933       60.04071759048699
C           47.22138110574827       -4.84297783619048       56.49668733975928
H           46.74415040588661       -4.68665128265109       55.53763686216655
C           50.13629718291662       -8.86745871865022       63.70299542003267
H           51.20882861099462       -9.06441070487467       63.64232044573217
H           49.64372383049371       -9.79042444378638       64.00438748233724
H           49.97066933956530       -8.12486892511050       64.47899023225904
C           48.93675130073374      -10.67318693611100       61.35726187580644
H           49.32839950541380      -11.10118725679703       60.43585639529181
H           47.87409098330525      -10.91669627379917       61.41543336892965
H           49.44163008104965      -11.14387146467799       62.19625878967239
C           51.03015998736080       -3.62653141499655       64.27263925225910
H           51.64989894853701       -4.52080469401190       64.32953202082605
H           50.26794840489093       -3.69338578907128       65.05215326001424
H           51.65699675394529       -2.76237444720791       64.47696101704537
C           50.41381717155949       -1.00245985901172       62.45838925920758
H           50.43677900989279       -0.36332404931434       61.58247901297908
C           50.60336898540930       -0.42180060712012       63.64303597649329
H           50.57300743534349       -0.95390682504760       64.57716530873303
H           50.80213094489541        0.63495648711247       63.71578422776131
C           47.95690719795427       -0.08400840442233       57.89255309355534
H           48.90825789923330        0.25885404061131       58.29815305657866
H           47.16489485936953        0.25605819701767       58.56407968758049
H           47.81068550107516        0.38504326205141       56.92348591631845
C           46.66010145666703       -2.01292171096042       55.60328024254077
H           46.61727816804099       -2.79855142600583       54.85835621552116
C           46.01239747262758       -0.87981637287233       55.33505804727228
H           45.95379387186415       -0.05077590275506       56.01669488193255
H           45.49878686503236       -0.75048890914847       54.39805046412412
C           45.73739412043550       -7.11482808364592       55.08748665166295
H           46.33326627265251       -6.92591625487959       54.19587944829598
H           45.04447073849796       -6.28544184634127       55.21926419393859
H           45.16244189167363       -8.02354201188168       54.92905924896719
C           46.32709640813306       -9.73250064463805       56.85484251050043
H           46.97580591021748      -10.31685527912685       56.20281028420043
H           45.33515524042170       -9.70520003290200       56.40732832172695
H           46.25276099412170      -10.23836323294765       57.81309419226598
O           46.76253383598502       -5.05139008420347       60.37044863645208
H           46.26374982467169       -4.35785057650089       59.86527443231490
H           46.09899430073761       -5.72374245572946       60.66986879709201
C           53.30405049668725       -5.21328185312921       56.36550983293074