78
 energy: -116.058025652126 gnorm: 0.000040485467 xtb: 6.7.1 (edcfbbe)
Fe          48.57294691324221       -5.39158370332849       59.64631328080321
N           48.93520803910440       -7.01553679665562       60.74012251257478
N           49.37723713000369       -4.23836140498684       61.06340314598725
N           48.14491170472588       -3.75276911047705       58.55243092967355
N           47.70961687534027       -6.53800275536122       58.23752805299760
C           48.66225130708641       -8.30442969661903       60.41207432617076
C           49.08255849278527       -9.20255815139122       61.46665134118359
C           49.61508367480430       -8.42117316961142       62.44257762295022
C           49.51749609862725       -7.05727563072500       61.96736311165653
C           49.91054950529718       -4.65131324996079       62.24414341275753
C           50.40629624825986       -3.53227007062162       63.00456891369194
C           50.15984629296107       -2.41625686218702       62.25053217279119
C           49.52200069785269       -2.88864620616702       61.03572336678182
C           48.46540582995166       -2.46452505743517       58.85942228725830
C           48.02620157159626       -1.56703079149134       57.82353108913468
C           47.42509061930068       -2.34459421617343       56.86793980765223
C           47.52683237133746       -3.70990775637535       57.34249990978038
C           47.14290291790245       -6.12059357143454       57.07219932965519
C           46.66460611651016       -7.24811146683252       56.30418606810751
C           46.96730098445891       -8.35905869645339       57.02883542277579
C           47.61900745238838       -7.89490362963134       58.23254531647127
C           48.06118790275055       -8.72809061040206       59.24195120004597
H           47.91696177736003       -9.78947105811734       59.11040024079391
C           49.97404112258661       -5.96499312051328       62.67689323359336
H           50.40767864831930       -6.14974335015470       63.64801102465948
C           49.09977891359313       -2.05513771730141       60.01901541384594
H           49.26618325478135       -0.99604703134864       60.14229562455023
C           47.03819428155610       -4.80650916527324       56.65456433675917
H           46.55210022575270       -4.62624268999000       55.70806659010280
C           50.19590892148616       -8.81437504060167       63.75766963980056
H           51.23935349727796       -8.50478851573871       63.82691020392593
H           50.14960432666090       -9.89197434213396       63.89429586735051
H           49.64851846901779       -8.34145605555936       64.57302306759891
C           48.92335471340587      -10.68370802808164       61.42312540127175
H           49.44838940968604      -11.10119181317898       60.56356987566596
H           47.87027343072550      -10.95283323151114       61.33916635401992
H           49.32255611189530      -11.14262456975405       62.32430986335879
C           51.10555166577753       -3.62741721147759       64.31579804862623
H           51.75138463095635       -4.50387804802783       64.34776436779400
H           50.38754087692264       -3.70854664526394       65.13330376087187
H           51.71376502778547       -2.74008787551008       64.47988430035181
C           50.47297631831105       -1.03328248382233       62.53472216379496
H           50.73016834223645       -0.42490397384048       61.67505872569971
C           50.46026669677762       -0.47125898648891       63.73910208542141
H           50.16527168183961       -1.01297633007900       64.62061684388895
H           50.71875965414527        0.56524412438148       63.87990382515036
C           48.26468383667095       -0.09768943754568       57.80455048184658
H           49.24995820861965        0.13706721350712       58.20442857828512
H           47.52205317462086        0.42602863010551       58.40896961125225
H           48.20408626859351        0.27728070440725       56.78486935743577
C           46.82379229006847       -1.95051782288642       55.61315104005932
H           46.92494585354247       -2.66135190642122       54.80094851205232
C           46.16662790523458       -0.81590535426122       55.39564597211812
H           45.99337427674394       -0.09525304417178       56.17566024602404
H           45.75457555219101       -0.58021485484757       54.42843848089278
C           45.98584598961768       -7.13777764765566       54.98189191408488
H           46.64783209528762       -6.67769435532855       54.24755247221444
H           45.08918515462283       -6.52236846833288       55.05997350188927
H           45.69626228481611       -8.11865506423248       54.61315560585607
C           46.70712634937082       -9.79197586249855       56.71334531048602
H           47.64204648223430      -10.35152625464547       56.67777769580162
H           46.21071708932593       -9.89296641315740       55.75131265014866
H           46.07232417843894      -10.24346848838649       57.47621250496567
O           46.47788660477369       -5.15145135380045       60.54974049739017
H           46.28335663266888       -4.24184586653155       60.29910659895391
H           45.97757367670611       -5.72211170320120       59.95618660450189
C           52.72799131249715       -5.59701143851521       55.93511209696343
H           53.21859301368385       -6.55640512149979       55.77099094614428
H           53.49608176933246       -4.82522902075855       55.98281561941505
H           52.07830118033326       -5.38955351093929       55.09071393020074
N           52.48546205467861       -5.84999872637633       58.41476312193019
H           53.46157447251046       -6.01802387371324       58.59535932040691
C           51.92653408597705       -5.62126188727437       57.18473618137435
C           51.49212765536320       -5.80601270989305       59.33111678480842
H           51.63679392998576       -5.95089727312118       60.38207826685638
N           50.33907140182959       -5.56368308962415       58.75604640312567
C           50.59318688969456       -5.44658901067187       57.42125877125804
H           49.80590758484161       -5.24574122404011       56.72507744143407
