78
 energy: -115.966408373518 gnorm: 0.253301604897 xtb: 6.7.1 (edcfbbe)
Fe          14.36800000000000       54.77500000000000       18.98800000000000
N           13.03600000000000       56.21900000000000       18.39400000000000
N           14.00000000000000       53.73700000000000       17.27100000000000
N           15.80600000000000       53.45700000000000       19.48900000000000
N           14.95600000000000       56.01799999999999       20.57900000000000
C           12.73600000000000       57.38000000000000       19.07800000000000
C           11.74600000000000       58.10100000000000       18.31400000000000
C           11.45700000000000       57.38900000000000       17.20200000000000
C           12.26200000000000       56.17599999999999       17.23700000000000
C           13.02100000000000       54.02200000000000       16.33100000000000
C           12.93000000000000       52.88600000000000       15.42600000000000
C           13.82300000000000       51.97100000000000       15.81900000000000
C           14.50100000000000       52.49299999999999       16.99500000000000
C           16.20800000000000       52.37900000000000       18.73900000000000
C           17.43500000000000       51.84600000000000       19.30000000000000
C           17.76100000000000       52.58200000000000       20.36300000000000
C           16.73600000000000       53.60200000000000       20.49900000000000
C           15.83400000000000       55.60400000000000       21.57300000000000
C           15.68800000000000       56.44800000000000       22.74200000000000
C           14.62500000000000       57.46299999999999       22.36000000000000
C           14.23100000000000       57.11799999999999       21.00700000000000
C           13.29100000000000       57.79900000000000       20.28200000000000
H           12.94800000000000       58.75300000000000       20.68300000000000
C           12.27300000000000       55.17499999999999       16.28000000000000
H           11.63200000000000       55.31300000000000       15.40900000000000
C           15.51800000000000       51.86200000000000       17.66900000000000
H           15.80200000000000       50.86699999999999       17.32600000000000
C           16.70900000000000       54.55800000000000       21.47300000000000
H           17.46500000000000       54.47900000000000       22.25400000000000
C           10.45000000000000       57.76300000000000       16.08600000000000
H           11.00400000000000       58.02000000000000       15.15800000000000
H            9.84900000000000       58.64200000000000       16.40200000000000
H            9.78200000000000       56.89999999999999       15.87900000000000
C           11.16400000000000       59.46300000000000       18.71800000000000
H           11.92300000000000       60.03399999999999       19.29400000000000
H           10.26600000000000       59.31300000000000       19.35500000000000
H           10.89300000000000       60.04000000000000       17.80800000000000
C           11.97300000000000       52.78700000000000       14.23200000000000
H           12.39100000000000       53.35599999999999       13.37400000000000
H           10.98700000000000       53.21900000000000       14.50500000000000
H           11.85200000000000       51.72300000000000       13.93500000000000
C           14.12100000000000       50.59500000000000       15.22600000000000
H           14.44500000000000       50.46600000000000       14.18300000000000
C           13.97600000000000       49.52700000000000       16.02200000000000
H           13.65300000000000       49.64900000000000       17.06600000000000
H           14.17900000000000       48.51499999999999       15.64100000000000
C           18.17800000000000       50.64000000000000       18.69100000000000
H           18.00500000000000       50.61299999999999       17.59400000000000
H           17.79600000000000       49.69800000000000       19.13900000000000
H           19.26800000000000       50.73600000000000       18.88100000000000
C           18.98000000000000       52.45500000000000       21.30900000000000
H           19.51500000000000       53.35000000000000       21.65900000000000
C           19.40400000000000       51.25000000000000       21.71700000000000
H           18.89099999999999       50.33600000000000       21.38500000000000
H           20.27000000000000       51.16099999999999       22.38900000000000
C           16.45600000000000       56.34699999999999       24.08100000000000
H           17.51400000000000       56.64699999999999       23.92500000000000
H           16.42900000000000       55.29999999999999       24.45100000000000
H           15.99500000000000       57.02600000000000       24.82999999999999
C           14.03600000000000       58.60399999999999       23.18900000000000
H           14.51000000000000       58.61500000000000       24.19400000000000
H           12.94200000000000       58.45500000000000       23.30900000000000
H           14.23400000000000       59.57500000000000       22.68600000000000
O           15.71200000000000       55.81799999999999       17.94400000000000
H           15.97400000000000       56.54800000000000       18.50600000000000
H           16.01400000000000       55.65000000000000       17.12500000000000
C           11.80300000000000       52.35100000000000       23.20400000000000
H           11.98300000000000       51.25999999999999       23.31400000000000
H           10.72600000000000       52.55799999999999       23.38000000000000
H           12.42100000000000       52.89500000000000       23.94900000000000
N           11.58500000000000       52.26600000000000       20.69100000000000
H           10.85800000000000       51.58000000000000       20.69500000000000
C           12.18100000000000       52.78200000000000       21.82300000000000
C           12.12500000000000       52.82000000000000       19.62000000000000
H           11.83500000000000       52.59300000000000       18.59500000000000
N           13.05400000000000       53.67400000000000       20.01300000000000
C           13.11200000000000       53.66600000000000       21.38800000000000
H           13.81200000000000       54.29200000000000       21.92700000000000
78
 energy: -116.020077294719 gnorm: 0.100346886096 xtb: 6.7.1 (edcfbbe)
Fe          14.36956044621722       54.77065379765568       18.97544901773343
N           13.02590215565855       56.20314567109892       18.40211765398645
N           13.98022755660923       53.72170165920544       17.28316451342175
N           15.82977645617713       53.47405673968927       19.47963812211285
N           14.92970446754187       55.98980303464304       20.59172237230031
C           12.73934740099476       57.36893594204101       19.06758711356918
C           11.74753475204896       58.11127817738441       18.31289886056699
C           11.45432134557485       57.39028559087487       17.19913121493046
C           12.26941285445080       56.18488927656716       17.25131717990366
C           13.02659076154772       54.00953021259122       16.33834907608259
C           12.93151920822455       52.89208715907590       15.41070029423302
C           13.83073762517902       51.95896138772876       15.81197954143891
C           14.48834063620262       52.49131543664310       16.99525991705631
C           16.21100431423742       52.37997134396932       18.75523768769285
C           17.43818880079909       51.82896027575257       19.30288670511680
C           17.77434047738966       52.58465526428532       20.37829890311897
C           16.74773394568648       53.61450751182901       20.48989327514036
C           15.80555910493636       55.62619625046798       21.58547141187336
C           15.65884409461208       56.49045235495603       22.73263198224890
C           14.65701024001117       57.43969013830297       22.36839408698976
C           14.24502996022674       57.09409508757017       21.02560522519670
C           13.29506015201919       57.78044328753882       20.27722077230084
H           12.94506159766779       58.72664684522201       20.68098253032945
C           12.27843075667834       55.17668072080368       16.29424693063027
H           11.63374405222165       55.31217742316274       15.42994342284615
C           15.51741529695349       51.86406252572104       17.67322476417241
H           15.81266620955435       50.88320606045976       17.31490969835976
C           16.70484100299186       54.57123187564579       21.48156456642405
H           17.45436090413695       54.48547242831280       22.26122535476968
C           10.46909082795444       57.75331434262078       16.10109049486664
H           10.99957167740791       58.01062559681272       15.17602522913031
H            9.86452445840135       58.61616008872469       16.39909716515698
H            9.79774737984769       56.91432361426828       15.88798245314072
C           11.17298350112052       59.45063883719565       18.71508545765860
H           11.90950230661022       60.02711440910402       19.28324963574354
H           10.28285101678185       59.31571768267501       19.34194849028288
H           10.89552301649093       60.02888331344619       17.82790548901863
C           11.98236981457880       52.79338317400216       14.24104925551484
H           12.38195733422233       53.35042201465648       13.38525304549730
H           11.00348243551125       53.21050543252941       14.49952149147262
H           11.85641409237523       51.74635009930234       13.94403927671852
C           14.10860545635446       50.60572613235708       15.24884970172279
H           14.42615429907930       50.49687169009772       14.21148897673868
C           13.97726939184839       49.53270496951725       16.02067251561449
H           13.65610909266480       49.63417978975288       17.05096725719961
H           14.17685542011513       48.53223027415594       15.64837986598452
C           18.17134072153655       50.65256299883693       18.69571181140902
H           18.00803324704914       50.61558080842011       17.61352413289208
H           17.80468905570824       49.71516558826816       19.13040895807517
H           19.24669363524695       50.73428232895636       18.88493146783581
C           18.95525344701022       52.44279137240111       21.29200396019143
H           19.47203838417098       53.34086546420684       21.63223044930171
C           19.39425358662088       51.25729090880657       21.70512150097591
H           18.90060170506635       50.34425009964941       21.39720557034927
H           20.24888728604047       51.16593033018161       22.37060286182667
C           16.42819205874321       56.36134143116582       24.04127236733630
H           17.48284327238344       56.64454238576875       23.91425334769028
H           16.41533042797136       55.33114982400949       24.42499680142692
H           15.99810234560538       57.01445310442767       24.80789111443225
C           14.06217885329013       58.57072885379575       23.17873366749213
H           14.50788387988407       58.61180919743300       24.17808538153444
H           12.97623491897683       58.44826804551123       23.29870571015960
H           14.23511511550218       59.54167910528444       22.69310751809345
O           15.73387005279471       55.83133276264489       17.95109455596220
H           16.00315795196099       56.57486958682607       18.49068027841451
H           16.05142608114510       55.67083821613789       17.08158811738977
C           11.79975695845665       52.34504226326283       23.20280967914621
H           11.97590758403315       51.27000550966834       23.32330362188697
H           10.73978159051054       52.55120710795750       23.38893260470907
H           12.40589356525204       52.88495419406059       23.93482505835834
N           11.57782974873457       52.26022849154229       20.70530884220750
H           10.84797544594998       51.56992624028025       20.70391415927677
C           12.17567627171437       52.77341422656072       21.82939928731407
C           12.13412149881577       52.83387717202140       19.62858688850416
H           11.85111121898027       52.60957380283004       18.61286244808140
N           13.05788274143601       53.69118987343636       20.00914283599364
C           13.10257687446679       53.66156903113844       21.37802677728019
H           13.79608237702810       54.28003473409161       21.91608022844488
78
 energy: -116.036932991507 gnorm: 0.036584724763 xtb: 6.7.1 (edcfbbe)
Fe          14.37215200794506       54.77219852410756       18.97095007098823
N           13.02662583622024       56.19006577626728       18.40557116286052
N           13.96280054917148       53.71347522344779       17.30444831115313
N           15.84632449246042       53.49017188153205       19.47188466702901
N           14.90224396814340       55.95986209554420       20.60366434890743
C           12.74318153135939       57.35054636977705       19.06419692493969
C           11.75766222596258       58.11391234003623       18.31426875406114
C           11.46105033873635       57.38606938309102       17.20035272255746
C           12.27499170379703       56.18268351976330       17.26912255539558
C           13.03002202391831       54.00023906263776       16.35506810195209
C           12.93483464414075       52.90216418781024       15.40894943758628
C           13.83231163256495       51.95532337191865       15.82037348486142
C           14.47389478936472       52.49274187426143       17.00827604127629
C           16.21372612869371       52.38910193579868       18.76395488947579
C           17.43006395381735       51.81750478421848       19.30794106109231
C           17.77514919573099       52.58953679119519       20.38641319517851
C           16.75564172270067       53.63102740803910       20.47660525389062
C           15.78031284020899       55.62866090157834       21.59002049559406
C           15.63373270164988       56.52085818177832       22.71887159699813
C           14.68104783293500       57.41787858939809       22.37270573229861
C           14.24173359291183       57.06440417881097       21.03807719838658
C           13.29012588590479       57.75206785569389       20.27881147155083
H           12.93800109616971       58.69239600423708       20.68429802237074
C           12.27858639269250       55.17200496735700       16.31432782576718
H           11.63332638105044       55.30707548415416       15.45487498678597
C           15.51955970931513       51.87347245866914       17.67680098950648
H           15.82976033669862       50.90772219308594       17.29959127295905
C           16.69877036988770       54.58025711756565       21.48555210504177
H           17.43945524274894       54.49140857173660       22.26857036776989
C           10.49187814817925       57.73901709393721       16.11686088149138
H           11.01109606494890       57.99454732466481       15.19256100485065
H            9.88611076924308       58.59422326875809       16.40755203409604
H            9.81885041742321       56.91077210079481       15.90284072306506
C           11.18670753033656       59.43642642795011       18.71388004614244
H           11.90926882455956       60.01860840456016       19.27881808467010
H           10.29942469663572       59.30635220947642       19.33473003549179
H           10.90126530064255       60.01348973443591       17.83746215635015
C           11.99602941922088       52.80374894863596       14.25174521385144
H           12.38023351817967       53.35513831204604       13.39342727932436
H           11.01918062760174       53.21046430239257       14.50327660699920
H           11.86911548137009       51.76432133775784       13.95625750234573
C           14.09545304510961       50.62603742844649       15.27492192156763
H           14.39549531997890       50.54151270064679       14.23502940726657
C           13.97811068400243       49.53709517466373       16.02212777852236
H           13.66155214879001       49.61288663742838       17.04843924668768
H           14.17646064398775       48.54706650592095       15.64705652579187
C           18.16062929557687       50.66309749596665       18.70798411393824
H           18.00738723198167       50.62649778530793       17.63200310378903
H           17.80559192685733       49.72195562410491       19.12825291112771
H           19.22817049554923       50.74011230686587       18.90230450530031
C           18.91946846147488       52.43721095108694       21.27153375412001
H           19.41453875005351       53.34302238922795       21.60664146500914
C           19.38064748282128       51.26399350291344       21.69043026122121
H           18.90503619336441       50.34297745038794       21.40518825219347
H           20.23208043280991       51.17785393667731       22.34699758736370
C           16.39997402158211       56.38151868135765       24.00291857869164
H           17.45101734303993       56.65301494610114       23.87631660028073
H           16.38256122574147       55.35439300778879       24.37472456291724
H           15.98528464478849       57.02069805552908       24.77966639311234
C           14.08918528274824       58.54244100264383       23.16843821656757
H           14.52288422433810       58.59463725552583       24.16380801952530
H           13.00901704035789       58.42058250473446       23.27982039953921
H           14.25291716016868       59.50659269179100       22.68189092035561
O           15.77740714412822       55.84317631110971       17.94921861231746
H           16.05239057858746       56.61859508059717       18.44329688817994
H           16.08316422476553       55.71280975638943       17.05104187481489
C           11.79627715148417       52.33888968023032       23.20387041093745
H           11.96910678090195       51.27213929092149       23.33192845995607
H           10.74506489299346       52.54466773850117       23.39611533304180
H           12.39669297532853       52.87876679236739       23.92744605339169
N           11.57220847325153       52.25607247110526       20.71188929255173
H           10.84101197876086       51.56381943660360       20.70233756666448
C           12.17018785096236       52.76490098469660       21.83349833014030
C           12.14103208196677       52.84794236237953       19.63564234146169
H           11.86332807544406       52.62942553329904       18.62516125228146
N           13.06395671019678       53.70158753343777       20.01133543816093
C           13.09265801332178       53.65771289658652       21.37526138670290
H           13.77980008754169       54.26735559773680       21.92050761759549
78
 energy: -116.042973480761 gnorm: 0.027349740029 xtb: 6.7.1 (edcfbbe)
Fe          14.38464567091118       54.78198077689218       18.96785683100282
N           13.02934625149151       56.17775058123508       18.41220602278578
N           13.95245735511424       53.71256637507202       17.32583254586396
N           15.85051013094407       53.50082780411216       19.46457900378254
N           14.87863656753119       55.93538918368540       20.61047202276701
C           12.74316531579823       57.33480076801233       19.06717898286611
C           11.76670252036465       58.10588648618999       18.31797194191357
C           11.47035775462016       57.37642892194665       17.20657638112812
C           12.27896623555556       56.17412474961752       17.28024418382972
C           13.02717654813283       53.99864086463585       16.37274866756920
C           12.93481965018568       52.91147100503844       15.42119012652596
C           13.82427735347369       51.95918295802867       15.83960818558841
C           14.46307235787257       52.49440308238968       17.02579978743567
C           16.21102891291511       52.39545050634445       18.76350977706262
C           17.41486869123508       51.81294248308721       19.31119865895021
C           17.76056583733486       52.58852836050435       20.38803623569989
C           16.75335740174256       53.63754526359285       20.46892577963873
C           15.76942122636291       55.61409031172666       21.58568133893933
C           15.63364206447128       56.51742622599116       22.70850931899895
C           14.67252956985091       57.41321170301055       22.36385225429813
C           14.22208770134771       57.04263689323073       21.03733280941013
C           13.27595358224500       57.73089420359665       20.28385357736071
H           12.91576720672490       58.66300959690888       20.69647884106763
C           12.27466175857543       55.16663139644785       16.32820480962312
H           11.62388284672154       55.29878456733108       15.47472812838550
C           15.51989838114025       51.88042515206169       17.67753629435513
H           15.84761309094443       50.92870465812025       17.28010493510858
C           16.69388067706379       54.57837327079164       21.48513265816209
H           17.42735342339649       54.48992943847320       22.27417889792340
C           10.50852340703254       57.72253416205676       16.12278455002273
H           11.03050752679269       57.97321346782547       15.19904777265885
H            9.90289066994586       58.57756359820778       16.41216337901105
H            9.83752079623483       56.89186818451571       15.91373779670876
C           11.19916340751907       59.42597096724423       18.71665326944943
H           11.92007514743078       60.01186831901050       19.27973781940133
H           10.31291206255762       59.29363537494046       19.33837463386282
H           10.90899239528386       60.00055512045780       17.84021675078582
C           12.00476904862854       52.81767831736558       14.26060357117422
H           12.38708629939219       53.37200298244379       13.40319715434390
H           11.02542387497480       53.21952155804119       14.51033123661288
H           11.88342912267087       51.77825125552021       13.96407431539305
C           14.07931572323596       50.63808901165110       15.29128956318258
H           14.35635876368481       50.57471241742244       14.24374604205184
C           13.98070400904309       49.53574475395304       16.02330410272929
H           13.67808841972058       49.58935021900549       17.05629910803585
H           14.17814598929549       48.55335911622898       15.63106917952957
C           18.15086747865498       50.66380304045175       18.71881861686150
H           18.01108591101963       50.63342964349130       17.64070641878438
H           17.79664492819833       49.71795404755858       19.12928657565250
H           19.21520670052194       50.74485416577349       18.93009533729874
C           18.89462254392570       52.43731790430014       21.26821126022712
H           19.36982774752469       53.35219832497081       21.60500264237925
C           19.37511490982009       51.26895254184880       21.68117611212880
H           18.90890956258456       50.33938930414788       21.40576828864143
H           20.23033194105492       51.19440491623600       22.33096626550054
C           16.39585162052576       56.38921923773191       23.98308997334999
H           17.44241578503013       56.66141527833415       23.84327111258082
H           16.36578342033063       55.36117899584919       24.34376660125678
H           15.97836982314400       57.03114330271046       24.75418210820259
C           14.09736476408697       58.53658032779072       23.15833792953410
H           14.53909630362091       58.58328663643395       24.14950710502536
H           13.02047741188092       58.40746575941008       23.26853260584794
H           14.26817482475853       59.49258424461739       22.66396850027417
O           15.84567735732923       55.85056535082751       17.94361651333870
H           16.09148670126513       56.67829131922697       18.37969738533411
H           16.10508851458152       55.76529861237540       17.01674298211757
C           11.79024681475041       52.33156396991460       23.20410918128048
H           11.96175629290703       51.26516196152468       23.33707174237445
H           10.73979290683095       52.53742508642659       23.40075847752462
H           12.39064146274340       52.87266854759728       23.92655440665399
N           11.57072691186941       52.25956336046819       20.70780561219341
H           10.83952026925005       51.56670977899898       20.68934536824035
C           12.16595558746312       52.76020485430747       21.83435950001023
C           12.14621747573572       52.86335240486530       19.63789232721796
H           11.87252301815879       52.65311599223428       18.62576751106596
N           13.06932802248392       53.71349615007514       20.01956239919837
C           13.08911386262867       53.65619071161243       21.38329415503029
H           13.77122637780852       54.25825781392295       21.94157574187654
78
 energy: -116.046852655169 gnorm: 0.047624882120 xtb: 6.7.1 (edcfbbe)
Fe          14.39472680305435       54.79133896811236       18.97193408770547
N           13.04724505873997       56.17092219323015       18.41432216668015
N           13.94957750444409       53.71919450987181       17.34900437063366
N           15.84803025935488       53.51158931106551       19.45776035466184
N           14.85988622735391       55.91118952549146       20.60065431250948
C           12.74800964470493       57.32144897124893       19.06978622876767
C           11.77750178446059       58.09467750651502       18.32319533282723
C           11.48302818746236       57.36491964980473       17.21389469169763
C           12.28974850405692       56.16663936770663       17.28800916920813
C           13.02786339483197       54.00211359279385       16.39117700297199
C           12.93467083114536       52.92292006108536       15.43995199843737
C           13.81312928209793       51.96481383608342       15.86561126886956
C           14.45308283870707       52.49825905412440       17.04705349164930
C           16.20613208833414       52.40285610050751       18.76114476421581
C           17.39430160357569       51.80897730337881       19.31678158119253
C           17.73889098311696       52.58590364886874       20.39199962428862
C           16.74537724405534       53.64179506662678       20.46260554615565
C           15.75881552232389       55.59754725160132       21.56968210887888
C           15.63310208979211       56.50849958605581       22.68768312573140
C           14.66226985579627       57.40262103075965       22.34575714618427
C           14.20350667675442       57.01784278957218       21.02797463438620
C           13.25873522769309       57.70880435313875       20.29331574610826
H           12.88389827413640       58.62738834834475       20.72052483558009
C           12.27118680493847       55.16225316867540       16.33987370577582
H           11.61019966420205       55.28805770660829       15.49514676855993
C           15.52166221879717       51.88852043847450       17.67623613282037
H           15.86303714632318       50.95077579692745       17.26069693529504
C           16.68551417012000       54.57463794478527       21.48362095719781
H           17.41074754870654       54.48964417607172       22.28004003500831
C           10.52527609798532       57.70139415667277       16.12530063324673
H           11.05213119503255       57.94430984597977       15.20156414402920
H            9.91800959772055       58.55789939967642       16.40843477662138
H            9.85794662427756       56.86530356400267       15.92247111495343
C           11.21247472739186       59.41425564139623       18.72280480555164
H           11.93645971523999       60.00318183107618       19.28051868904404
H           10.32956257445610       59.27959627471407       19.35044054629739
H           10.91619120442166       59.98541589004284       17.84492815433681
C           12.01248885518851       52.83538762842952       14.27303850513198
H           12.39767637233329       53.39823105706451       13.42131841124626
H           11.02919626562510       53.23214199932931       14.52002956279086
H           11.89861986692860       51.79638378617975       13.96927452746629
C           14.05708736669712       50.64807185815719       15.30680695948736
H           14.29669275597524       50.60598878498642       14.24777697000732
C           13.98780441169350       49.53258134182481       16.02313257083260
H           13.71701161414536       49.56106550089388       17.06836025523612
H           14.17815675452847       48.55895905976158       15.60415005652692
C           18.13844311699832       50.66122512670366       18.73358662753826
H           18.02094560818964       50.63857064894393       17.65117520747843
H           17.77932607099781       49.71050455957710       19.13046453491994
H           19.19892055587214       50.74571852463543       18.97010225784981
C           18.86957262577099       52.43866740495041       21.27431872859654
H           19.32319435934643       53.36252093768200       21.61627426702777
C           19.37245454643902       51.27498630782170       21.67559409057942
H           18.92477215197352       50.33654304499541       21.39611537147364
H           20.23305348700822       51.21566172349431       22.31922117507307
C           16.39682859512284       56.39435198145650       23.95775699931521
H           17.44076295015710       56.66776755040900       23.81083736338772
H           16.36189750893778       55.36868597988697       24.32024180055245
H           15.97888845219831       57.04251755414356       24.72362552188057
C           14.10501736743756       58.52893238648036       23.14157481063011
H           14.55696478068818       58.57078073998942       24.12912123767846
H           13.02944659567417       58.40440752313541       23.25823022764390
H           14.28431020936732       59.48055387374034       22.64412488696836
O           15.95264616978870       55.84895827061271       17.94629235307258
H           16.11853879532181       56.76242212820031       18.28617864299218
H           16.11032834758176       55.85780814645238       16.96951550312412
C           11.77919175872045       52.31907191655112       23.20639499088979