78
 energy: -116.057577736328 gnorm: 0.000051148280 xtb: 6.7.1 (edcfbbe)
Fe          14.45085097824814       54.82419003075440       19.02246207390694
N           13.06332409769403       56.17754854103107       18.47595588135954
N           14.01570557753784       53.73813532654500       17.38290096767164
N           15.88809497176265       53.53327331174564       19.50038656011149
N           14.87784227848046       55.91773060325117       20.62987866075153
C           12.69396019849399       57.28973896771892       19.16551337236465
C           11.65618681226936       58.00694193610533       18.46058533902463
C           11.40380135036050       57.29992760706320       17.32560351554794
C           12.28350119107646       56.15366461518881       17.35800350248808
C           13.08133687174038       54.02311854088142       16.43243624355506
C           12.99960987004860       52.96270812456434       15.46527419500554
C           13.88307643748096       51.99760233266032       15.87214123561178
C           14.52562400292937       52.51947260275169       17.06066782601233
C           16.23737558610413       52.40952837286467       18.81638664733716
C           17.35996596027387       51.75597735090918       19.44220573475747
C           17.67770876451198       52.50782504711301       20.54128695360488
C           16.74200065702733       53.61709974507926       20.54950692552194
C           15.82425727390875       55.65028344949273       21.56569206280058
C           15.80167476350818       56.64492443189101       22.61732819830116
C           14.81642408176272       57.52164087316035       22.29004996612289
C           14.25329933854704       57.05128576003548       21.04197080362745
C           13.23449717188042       57.69884357934874       20.37031398916966
H           12.83596295464743       58.59822773089943       20.81408570896086
C           12.29266787189776       55.16231166528783       16.39585147899130
H           11.61050856323549       55.26644821285591       15.56582557923868
C           15.59468044813440       51.91706435039062       17.69518062997074
H           15.96234585187262       50.99563795745061       17.27190069835755
C           16.70682141083552       54.58797626989315       21.53334647181933
H           17.42108819907465       54.51102475425044       22.33895059021932
C           10.43162024680283       57.58331251226846       16.23172790177109
H           10.94438686174205       57.66233754648681       15.27278615145159
H            9.90463260620842       58.51629982462231       16.41533892722386
H            9.69445532002054       56.78329370886802       16.15455948067778
C           11.03413100907674       59.27278595503758       18.94150693042124
H           11.78797195494947       60.05271468669050       19.05129925501839
H           10.56125335012556       59.12196395190921       19.91215657743459
H           10.27807979421867       59.62311861273403       18.24302034821861
C           12.07340710372430       52.93797117223490       14.29831626882242
H           12.20935072753641       53.82563306064365       13.67979435387614
H           11.03448737154004       52.91581212675998       14.63024836303960
H           12.25245353882237       52.05719741752860       13.68690871379161
C           14.11839375200337       50.71531115925455       15.24172243826358
H           14.07766897153522       50.71686816239692       14.15750794846982
C           14.33024246542387       49.56828979384790       15.87702223641903
H           14.32719937462234       49.50187431559106       16.95179321226664
H           14.49213698173136       48.64821683337230       15.34013950417178
C           18.04599514439020       50.54319219676442       18.91788246097975
H           18.08850207682546       50.56477228623797       17.83003775112165
H           17.51736690344287       49.63633899226906       19.21674410177071
H           19.06124909637648       50.49210301749530       19.30609522356616
C           18.73337544384155       52.31417383085454       21.51037378894480
H           19.16601588546948       53.22096852602920       21.91683460899672
C           19.19114407555981       51.13866553096893       21.92918914045280
H           18.76847064622133       50.20706326571469       21.59558988343319
H           19.99353342109988       51.06912898180294       22.64495293757142
C           16.71512993181247       56.64398591841607       23.79470232633458
H           17.75316607809903       56.72847730165496       23.47243586677002
H           16.61145282673363       55.71806295203598       24.36093856121095
H           16.49411480602335       57.47743586089280       24.45700226441860
C           14.35821924149171       58.74187037665418       23.01265722986131
H           14.91686618123680       58.87741514703009       23.93545530372214
H           13.29909546502847       58.66635957298629       23.26003266781661
H           14.49861100248169       59.62870081919769       22.39411025666455
O           15.90267461889948       56.01492726428302       17.70456709302356
H           15.35130636708715       56.78317510392786       17.51990396564295
H           15.89047496132065       55.46198169866021       16.91575615752509
C           11.74812654553556       51.83744720459377       22.87221463104854
H           11.48334667785655       50.80989252047279       22.62327259763801
H           10.89717813942065       52.29617878414133       23.37563189733008
H           12.59113551590194       51.82360458471540       23.55577545271824
N           11.23912544551171       52.78481229233582       20.61059006976125
H           10.29557255710604       52.43673919380516       20.56476914872833
C           12.11184313704784       52.59901797385760       21.65060663881284
C           11.87673976117359       53.51211692192147       19.66589538403890
H           11.43442721153331       53.80942286718893       18.73771989511441
N           13.09873254410115       53.79790905579291       20.04433232795024
C           13.26000727332276       53.23689557209408       21.27721402792814
H           14.18493605261714       53.32901145377225       21.80817591555475
