77
 energy: -118.751870843143 gnorm: 0.400344748880 xtb: 6.7.1 (edcfbbe)
Fe          48.01800000000000       55.91900000000000       33.77800000000000
N           47.27400000000000       54.93800000000000       32.21000000000000
N           49.88800000000000       55.72199999999999       33.09900000000000
N           48.83700000000000       56.76200000000000       35.39200000000000
N           46.26500000000000       56.08100000000000       34.52399999999999
C           45.95800000000000       54.57800000000000       32.01500000000000
C           45.84800000000000       53.85100000000000       30.76600000000000
C           47.06500000000000       53.78500000000000       30.25900000000000
C           47.97400000000000       54.48599999999999       31.14500000000000
C           50.18700000000000       55.15200000000000       31.86300000000000
C           51.56100000000000       55.19300000000000       31.63400000000000
C           52.13699999999999       55.74900000000000       32.72800000000000
C           51.08800000000000       56.11599999999999       33.63300000000000
C           50.16700000000000       56.87500000000000       35.70600000000000
C           50.30700000000000       57.37400000000000       37.01700000000000
C           49.04100000000000       57.56200000000000       37.51100000000000
C           48.15699999999999       57.20900000000000       36.48500000000000
C           45.90800000000000       56.72200000000000       35.70900000000000
C           44.48100000000000       56.66199999999999       35.89900000000000
C           43.97800000000000       56.00399999999999       34.84300000000000
C           45.07200000000000       55.63900000000000       34.00000000000000
C           44.95000000000000       54.84200000000000       32.88700000000000
H           43.97800000000000       54.39099999999999       32.69000000000000
C           49.29500000000000       54.64299999999999       30.98800000000000
H           49.70100000000000       54.31800000000000       30.03100000000000
C           51.23999999999999       56.55000000000000       34.92000000000000
H           52.24399999999999       56.64000000000000       35.33300000000000
C           46.79600000000000       57.26800000000000       36.55100000000000
H           46.38100000000000       57.82600000000000       37.38900000000000
C           47.51600000000000       53.07100000000000       28.97200000000000
H           46.64000000000000       52.58700000000000       28.49000000000000
H           48.26800000000000       52.29099999999999       29.21900000000000
H           47.95300000000000       53.81000000000000       28.26700000000000
C           44.55700000000000       53.09400000000000       30.30900000000000
H           43.66100000000000       53.69700000000000       30.57000000000000
H           44.49400000000000       52.11300000000000       30.82600000000000
H           44.58100000000000       52.94200000000000       29.20900000000000
C           52.27799999999999       54.55800000000000       30.42100000000000
H           51.88900000000000       55.00900000000000       29.48300000000000
H           52.08599999999999       53.46400000000000       30.40200000000000
H           53.37000000000000       54.74999999999999       30.48800000000000
C           53.65100000000000       55.89299999999999       32.98400000000000
H           54.36900000000000       55.11399999999999       32.69100000000000
C           54.15000000000000       57.18800000000000       33.67800000000000
H           53.43800000000000       57.97300000000000       33.97400000000000
H           55.22099999999999       57.33499999999999       33.88099999999999
C           51.70300000000000       57.60499999999999       37.63500000000000
H           52.26500000000000       58.33899999999999       37.01800000000000
H           52.26600000000000       56.64800000000000       37.65799999999999
H           51.59600000000000       58.00700000000000       38.66500000000000
C           48.49300000000000       57.84700000000000       38.93500000000000
H           47.48199999999999       57.54600000000000       39.24400000000000
C           49.38700000000000       58.55200000000000       39.89100000000000
H           50.33100000000000       58.99999999999999       39.54600000000000
H           49.11500000000000       58.63300000000000       40.95400000000000
C           43.74100000000000       57.30299999999999       37.09499999999999
H           43.92499999999999       58.39899999999999       37.10100000000000
H           44.11800000000000       56.86899999999999       38.04600000000000
H           42.64900000000000       57.12100000000000       37.00200000000000
C           42.58500000000000       55.48599999999999       34.58000000000000
H           41.89100000000000       55.88000000000000       35.35299999999999
H           42.58300000000000       54.37599999999999       34.62500000000000
H           42.24100000000000       55.82600000000000       33.58000000000000
O           48.06800000000000       54.23100000000000       34.42400000000000
O           47.98199999999999       54.07000000000000       35.58100000000000
C           47.45600000000000       59.99200000000000       29.84800000000000
H           48.01400000000000       60.95100000000000       29.90200000000000
H           46.39700000000000       60.20499999999999       29.58800000000000
H           47.91700000000000       59.35100000000000       29.06700000000000
N           47.03900000000000       59.84399999999999       32.35200000000000
H           46.60499999999999       60.74200000000000       32.42800000000000
C           47.52200000000000       59.29699999999999       31.18100000000000
C           47.25300000000000       58.96699999999999       33.36200000000000
H           46.95700000000000       59.15199999999999       34.39400000000000
N           47.85699999999999       57.88800000000000       32.91000000000000
C           48.03099999999999       58.08400000000000       31.50700000000000
H           48.50400000000000       57.32600000000000       30.89500000000000
77
 energy: -118.860800378191 gnorm: 0.171742270748 xtb: 6.7.1 (edcfbbe)
Fe          48.02788036040789       55.91236982358807       33.77414512921162
N           47.25565155075324       54.95980508789240       32.19087865310746
N           49.90167403147773       55.72939875018362       33.07990574389813
N           48.83883007914100       56.76123904079139       35.40072094183439
N           46.24563510362177       56.09418405735988       34.52150458981627
C           45.95512149739525       54.56895732560330       32.00658085961688
C           45.83096737122448       53.82354737776420       30.77276755397922
C           47.06880340033704       53.77208262240702       30.23851783934197
C           47.95523007664759       54.48525655035154       31.13211354004110
C           50.20423354135063       55.16382124180581       31.85837853344239
C           51.59983795498933       55.17891239098735       31.63453964692535
C           52.18479592148218       55.75724249095755       32.73844764670029
C           51.10036058789328       56.09861525616416       33.62623579142017
C           50.16624386700610       56.87660048972266       35.72332310172884
C           50.31825361207725       57.38107462475340       37.04376680876832
C           49.04257184029709       57.57145011250959       37.55339984963160
C           48.16091954800395       57.20598587225623       36.49635124029543
C           45.89344137048688       56.72994074712848       35.69837971897807
C           44.47077246377538       56.67316330564916       35.90597283706676
C           43.96496045383218       55.98829714498434       34.84878353683009
C           45.06697650464854       55.63023902345824       34.00910123865100
C           44.94028061081570       54.83881561052107       32.88292217414268
H           43.97373601983981       54.39818372323420       32.68422397276831
C           49.30132458338979       54.64129904470695       30.96589219448538
H           49.70804668700864       54.30411418016157       30.02297634423028
C           51.24220223402167       56.55305441707660       34.91967736127491
H           52.23958224779895       56.64404427557415       35.32751615771609
C           46.78657545630812       57.28239154670904       36.56350638956312
H           46.37523797081197       57.82231040333294       37.40478491546029
C           47.51406877929838       53.07460056924633       28.97489871022371
H           46.65433083287768       52.59283387858883       28.49553847986758
H           48.25925028583484       52.30497591193546       29.21357375789499
H           47.95042500389363       53.79829155344988       28.27460309206290
C           44.56593213994190       53.10621444334903       30.31310812606234
H           43.67394461914362       53.69106406101002       30.56619461767670
H           44.49836755404073       52.13213710919374       30.81669845325896
H           44.58246357483254       52.94564256215612       29.22809125372397
C           52.27860887745023       54.56463984095525       30.42782166557206
H           51.89580310266731       55.00394745487122       29.49636354129865
H           52.09070930800210       53.48231917244539       30.40330337666964
H           53.35633290537697       54.74635714006002       30.48588659294876
C           53.64027160384239       55.96464125002200       33.01490897937575
H           54.33756129029267       55.17187765930345       32.70739983235520
C           54.12598869957178       57.12736913748289       33.65042831997956
H           53.44940816207524       57.93009083143382       33.94786836620552
H           55.18425134799053       57.29967518353776       33.86092099353028
C           51.69311117579793       57.60529769981557       37.63686084119229
H           52.25433690303072       58.32860699711897       37.02809281299747
H           52.25509282118280       56.66245029511249       37.65933164469639
H           51.60653377918124       57.99386636735404       38.65329634965478
C           48.55548121334414       57.87940298230882       38.93875885154338
H           47.54623558796946       57.55509423236072       39.22964703090528
C           49.35609064500802       58.53229343175167       39.86096930942718
H           50.29632125942113       58.98202223457319       39.55227059017233
H           49.09757665689821       58.62761342635896       40.91557627579709
C           43.74809959340396       57.29868448248656       37.08406593355857
H           43.92267213666093       58.38347367650348       37.10076634188076
H           44.11196774042179       56.87438847412176       38.02925838735555
H           42.66854817594730       57.12203766887664       37.00447178076283
C           42.57953370538805       55.49170188497430       34.58358980424544
H           41.89084578344205       55.87484471955541       35.34354527815599
H           42.57670538527803       54.39388797407052       34.62357188157362
H           42.23957156575199       55.81889139527458       33.59248186219824
O           48.08974643301173       54.23461596980481       34.41925420004873
O           47.97748879400497       54.04397434487993       35.64476736327375
C           47.45613534413659       59.99177035083847       29.85695257489379
H           48.00598200661002       60.94149485265531       29.89880388503092
H           46.41229136332849       60.20321720333401       29.58844848135749
H           47.90722174742172       59.36090741420622       29.08222329590341
N           47.03947393842497       59.84555116647964       32.34690929743218
H           46.60330349906561       60.74703623441280       32.42715534557925
C           47.52282349441578       59.29769702775634       31.18052077573812
C           47.25698424118513       58.96358612604975       33.34852470191660
H           46.96604999256407       59.14352392052066       34.37527769924965
N           47.84956874071234       57.88662014583170       32.89421699846702
C           48.02836816927925       58.08367869544037       31.52143448028153
H           48.49897307373549       57.33169430849595       30.91203345507720
77
 energy: -118.887937304758 gnorm: 0.101700531749 xtb: 6.7.1 (edcfbbe)
Fe          48.04056434985653       55.89321064139720       33.78067589161908
N           47.24485641605885       54.98495664424576       32.16695303483181
N           49.91562655132232       55.73705801490033       33.05351849337424
N           48.83959022234243       56.76446484540710       35.41588627342011
N           46.22450076803828       56.11089972946485       34.52309295115747
C           45.95498935321658       54.56389307200207       31.99710751040277
C           45.82431572557193       53.80196172605167       30.78133633705966
C           47.07470978824178       53.76566673502487       30.22543938362709
C           47.94461086646390       54.49270768802924       31.11646920788517
C           50.21974688247544       55.17491649179276       31.84860951866806
C           51.63382400248513       55.17151321004710       31.63642045019929
C           52.21579686105993       55.76533712619252       32.74742954127615
C           51.10615659492510       56.08623529792420       33.61799952885705
C           50.16545098350516       56.87713081081707       35.74003565349212
C           50.32664205222586       57.38887700158519       37.06445554057166
C           49.04645684089996       57.58258771561822       37.58173101324475
C           48.16254359979876       57.20257802591940       36.50864072082842
C           45.88215096449651       56.74429255653460       35.68932685970569
C           44.46266692981736       56.68546909747707       35.90849809892835
C           43.95464432296819       55.97036598195365       34.85757479391991
C           45.06171420917342       55.62074580893442       34.01966095816297
C           44.93182355344138       54.83902403681207       32.87664958233594
H           43.96579432639968       54.40814499668227       32.67503477343515
C           49.31214820621621       54.64314198023370       30.94223711307611
H           49.71994905673630       54.28253669224340       30.01312252192810
C           51.23672918260700       56.55726940299483       34.91828105609909
H           52.23159026842865       56.64939835877709       35.32088841254252
C           46.77706755871669       57.29787494455542       36.57840423442312
H           46.36644826069281       57.81405598701808       37.42994085648787
C           47.51188910893399       53.07849929219502       28.97875375690966
H           46.66461012851813       52.59663336354199       28.49754721763435
H           48.25508651687398       52.31545355106351       29.20840637908745
H           47.95113819913195       53.78960636644910       28.27902761252249
C           44.58008348775807       53.11626697273453       30.32034738952467
H           43.68981273934992       53.69174519581897       30.56525710677699
H           44.49820324129195       52.14382117799904       30.81059037674154
H           44.59183609618346       52.95187464942206       29.24404141083426
C           52.28840609927960       54.57325913748505       30.43844341857080
H           51.90323391886618       55.00543170598067       29.51340395307352
H           52.09842236538904       53.49842112523135       30.40608312489857
H           53.35951583978689       54.74199528842068       30.48018661329797
C           53.62809012800515       56.01813126418511       33.03972274514174
H           54.30959748037183       55.22358097421363       32.71585404244093
C           54.08889738515033       57.07376935813772       33.61255434116723
H           53.44859017083050       57.89385538969884       33.92147824770026
H           55.13828347100280       57.24802882176862       33.83510622297523
C           51.68250216396927       57.60546744033213       37.64526106743914
H           52.24248041025266       58.32123957394100       37.03952584805705
H           52.24385844585312       56.67057079040558       37.66036308597486
H           51.61857420573561       57.98338242460213       38.65641010933088
C           48.61012267010956       57.89778129967059       38.93298616980957
H           47.60933992492127       57.54833634714713       39.20759917528240
C           49.33860619943335       58.51952166314832       39.82868091733400
H           50.28521908152737       58.96601640482591       39.56450392174105
H           49.06541821797436       58.63599463652611       40.86969923414642
C           43.75327253655742       57.29577100543558       37.07165107891014
H           43.92206059194236       58.37369345464370       37.09970071967564
H           44.11081629938124       56.87498110338392       38.01174189046699
H           42.68183517154771       57.12031331062033       37.00304983390723
C           42.57088941886863       55.49561157833394       34.59081531519617
H           41.88329412742608       55.87374121625171       35.33973790372126
H           42.56016914107949       54.40542521449238       34.62349711179059
H           42.23494532183351       55.81550815576276       33.60462780608421
O           48.12192517722998       54.24201962129801       34.44784076755528
O           47.96675910251564       54.01779741249255       35.70104229745746
C           47.45704756049136       59.99237725133985       29.86506948555452
H           48.00088179502698       60.93639598179772       29.89923235670086
H           46.42266667568039       60.20193935106671       29.59194192656052
H           47.90047054314154       59.36559155979641       29.09623950552319
N           47.04102241559518       59.84720928922483       32.34182242708689
H           46.60394260642072       60.75071129754978       32.42628390733476
C           47.52421930122745       59.29884803459318       31.17949148311973
C           47.25722482278361       58.95907059221692       33.33606802740250
H           46.97406151708643       59.13294990954893       34.35829205947049
N           47.84242325735812       57.88248148592493       32.87852461045427
C           48.02251085828929       58.08049491950305       31.53528173066849
H           48.49363536383424       57.33506941914182       30.92679395538575
77
 energy: -118.895903081930 gnorm: 0.026407096886 xtb: 6.7.1 (edcfbbe)
Fe          48.04485770628467       55.87363948789992       33.79121445449010
N           47.24549835142740       54.99927706169300       32.15053300772320
N           49.91473324313539       55.73865377960192       33.03174779162347
N           48.83736972720632       56.76426172766623       35.42367058864735
N           46.21443339644713       56.11828826943832       34.52492846045441
C           45.95603748852446       54.56665067764740       31.99223884124555
C           45.82888485807916       53.79468030604539       30.78538653143694
C           47.07706104359146       53.76446209087112       30.22043888321921
C           47.94393041467458       54.50475167998875       31.09903001576123
C           50.22217307043793       55.17875284004968       31.82804274130540
C           51.63963355977351       55.16636443271974       31.62790498465603
C           52.20589504961832       55.75431636636334       32.74262965142785
C           51.09964303097593       56.07927347092703       33.60922880469963
C           50.16531770260471       56.87543376604359       35.74139758414485
C           50.33286505563144       57.38978099863606       37.06436469781619
C           49.05618171516268       57.58531922097487       37.57662431987123
C           48.16075494793961       57.20197059226056       36.51292818741295
C           45.87581083578390       56.75650025793113       35.68673800720739
C           44.45642962629333       56.68996847950071       35.90473808425997
C           43.94686815392545       55.96014692534320       34.86331947631412
C           45.05548600559306       55.61414141589512       34.02433897229957
C           44.92966394941892       54.84110741100125       32.87251355574082
H           43.95929964713930       54.42224513120764       32.66071237721112
C           49.31618677632849       54.64724351559215       30.91851917866748
H           49.72823053455456       54.25336212982774       30.00097131398472
C           51.22851098369903       56.55552296389822       34.91021144210526
H           52.22491930332206       56.65614760380232       35.30676089528184
C           46.77162721370150       57.30425546176740       36.58627746883003
H           46.35982851499568       57.79546305666690       37.45589565867423
C           47.51405700405653       53.07852534458100       28.97503208632182
H           46.67005659910279       52.59430157071154       28.49287168059978
H           48.25973249565910       52.31871181422577       29.20285008610608
H           47.95490826816892       53.78698123314700       28.27472661656182
C           44.58549300831831       53.11942513042847       30.32353712912965
H           43.70046941587191       53.70194066209849       30.56623673548272
H           44.49413537142548       52.14693060286223       30.80934147232179
H           44.60357903502836       52.95838956977210       29.24849985657004
C           52.30562066607070       54.57744957720964       30.43686480125179
H           51.91882120856440       55.01474763386850       29.51686592681292
H           52.11352677523183       53.50459424825397       30.40142662219581
H           53.37724014740678       54.74120886876868       30.47588926976023
C           53.60596225401357       55.99864571316591       33.02426768321471
H           54.28700037116125       55.21815498828762       32.69300697370927
C           54.09263983837284       57.08937681159935       33.62671621574466
H           53.45674553426383       57.91441070775074       33.91484807480533
H           55.14323636796107       57.23308780771922       33.82840037275468
C           51.68354637012963       57.60003924761880       37.65332581279922
H           52.24095507880896       58.32045173165636       37.05359151252224
H           52.24119131212199       56.66465566272899       37.65714053547701
H           51.63392830240191       57.96379629313355       38.67053719022879
C           48.63201206257796       57.89861307769755       38.91714960481539
H           47.64700712284312       57.52188426665160       39.18503912815488
C           49.33966131168456       58.54372937111977       39.83952804028432
H           50.29590489757442       58.98283363338929       39.60621440986566
H           49.01202189880957       58.67128645211513       40.85982385702710
C           43.75161129911794       57.29661250542685       37.06624455504559
H           43.91952642958320       58.37341806291148       37.09876937316178
H           44.11333710544214       56.87153895846950       38.00116139584183
H           42.68226321113372       57.11751357171798       37.00136235833964
C           42.55698657141289       55.49829295632131       34.59962163292243
H           41.86775442753297       55.88065804070049       35.34456841248369
H           42.53040364836878       54.40942144021351       34.62935284397512
H           42.22241763882377       55.81841811527899       33.61405803817706
O           48.14870158247652       54.24551933197603       34.50794401158426
O           47.96589240379364       54.01322733399741       35.76220073241316
C           47.45851958611383       59.99367568759115       29.87043036709672
H           48.00110500107995       60.93732783021910       29.90258648269965
H           46.42566981266415       60.20337263160040       29.59634688523705
H           47.89894511025179       59.36577799569936       29.10332492467650
N           47.04288506515013       59.84495255089483       32.34094984153800
H           46.60930632761521       60.75041632900481       32.42740166403542
C           47.52556829608192       59.29714127766071       31.17989613502118
C           47.25207980878587       58.95135825373224       33.33145791833834
H           46.97506352813068       59.12174348626593       34.35261387999186
N           47.82990848751213       57.87110188701508       32.87265855592082
C           48.01672136328347       58.07467995456604       31.53626675452941
H           48.48874867174541       57.33067865691491       30.92974556594010
77
 energy: -118.898866108829 gnorm: 0.020528671931 xtb: 6.7.1 (edcfbbe)
Fe          48.05113464487368       55.85899753766038       33.80044366679056
N           47.25417209023777       54.99856261852720       32.14334353749280
N           49.91419047053838       55.73385668690732       33.01044122750117
N           48.83486009210353       56.76683115084590       35.43134882164404
N           46.20722788761553       56.11950663565381       34.53183714547393
C           45.96300082249145       54.56606799325213       31.99158963325138
C           45.83625993981578       53.79162658307318       30.78846588390271
C           47.08140138210526       53.76500015343000       30.21507201483598
C           47.94808441041728       54.50929791605126       31.08638842314980
C           50.22740900326999       55.17617117703738       31.80776474201635
C           51.64789486188850       55.16249315542326       31.61825171545705
C           52.19973531347450       55.75157067758379       32.73688777887430
C           51.09136158179967       56.07528737122033       33.59820691451016
C           50.16553920279982       56.87292676532811       35.74089003738956
C           50.34042682729805       57.38646684235611       37.06367158501505
C           49.06794043931217       57.58107296589424       37.57657832489835
C           48.15939386274344       57.19804855810574       36.51977008714425
C           45.87167504255334       56.76062747171849       35.68920182348907
C           44.45063724392311       56.69261376526532       35.90290472084672
C           43.94071019179874       55.95020503008648       34.87009819685734
C           45.05193058611336       55.60547854109497       34.03134386376050
C           44.93275676242607       54.84480142096860       32.86932603973550
H           43.95733662922570       54.44161405677814       32.64400866422488
C           49.32324081510593       54.64417185242428       30.89672704901018
H           49.73480456562810       54.22568099758598       29.98860384276704
C           51.21841092770929       56.55545682647656       34.89820967254168
H           52.21795823923775       56.66664998276103       35.28580118700565
C           46.76821711567762       57.30141945203865       36.59878788700312
H           46.35517918691874       57.76846351859869       37.48267811802045
C           47.51715727169958       53.07823104160349       28.96855935039851
H           46.67417675188677       52.59316353867877       28.48447166765929
H           48.26412237206839       52.31800647023781       29.19516150986586
H           47.95986130686315       53.78682542953629       28.26840880704090
C           44.59045916668183       53.12301315949636       30.32318430657230
H           43.71106143664842       53.71602454822185       30.56304734981076
H           44.48418239074719       52.14999922639394       30.80653054892043
H           44.61455830071118       52.96409482816083       29.24762432579243
C           52.32750054176241       54.58298562057875       30.42994808570027
H           51.94434692350575       55.02636437496076       29.51126115306398
H           52.14005490393512       53.50901539134665       30.38676387737701
H           53.39945133368943       54.74765852683187       30.47397399244305
C           53.59562022069147       55.99774617734774       33.01198947631880
H           54.28373208491946       55.23134560159904       32.67885298911892
C           54.08146472252781       57.08838398063916       33.60713494801888
H           53.44600586989392       57.90161918287900       33.91244725536360
H           55.13321963113172       57.20053079768259       33.80679826845758
C           51.68933579480327       57.58734079028588       37.66016136559412
H           52.24711280532307       58.32119014850223       37.07641924273383
H           52.24607484171277       56.65059709024958       37.64593810874728
H           51.64087228041034       57.92897012681126       38.68652175871823
C           48.64727649731718       57.90162499016460       38.91441505391758
H           47.66923472788154       57.51705411737483       39.17747143373618
C           49.33457966588503       58.57094392981049       39.84771397263831
H           50.28550635895336       59.03279717111999       39.64250976972798
H           48.95619342289304       58.70346901409339       40.84953574219968
C           43.74570451620983       57.29824071455376       37.06420015059457
H           43.91472545230486       58.37493039763310       37.10131020772034
H           44.11056747910163       56.86794719932134       37.99616859377745
H           42.67614496334340       57.11863568173292       37.00097178217504
C           42.54318735260620       55.50331749628691       34.61011700397519
H           41.85749578059636       55.89547930625334       35.35499594661636
H           42.49482682432082       54.41413415198532       34.63856797190901
H           42.20947055064789       55.82949393088477       33.62545445718915
O           48.16714405161216       54.26028942309325       34.57517284731915
O           47.96681910245212       54.01880685427727       35.82806631033264
C           47.46156928822879       59.99639313780438       29.87399905680153
H           48.00469300883753       60.93991559465855       29.90814816617816
H           46.42803086296211       60.20762010102370       29.60197641842149
H           47.90027508989575       59.36841415030732       29.10548237433689
N           47.04599749563098       59.84165096258760       32.34188634154415
H           46.61628808784354       60.74861996267094       32.43110153780478