77
 energy: -118.842944231495 gnorm: 0.400345293348 xtb: 6.7.1 (edcfbbe)
Fe          48.01800000000000       55.91900000000000       33.77800000000000
N           47.27400000000000       54.93800000000000       32.21000000000000
N           49.88800000000000       55.72199999999999       33.09900000000000
N           48.83700000000000       56.76200000000000       35.39200000000000
N           46.26500000000000       56.08100000000000       34.52399999999999
C           45.95800000000000       54.57800000000000       32.01500000000000
C           45.84800000000000       53.85100000000000       30.76600000000000
C           47.06500000000000       53.78500000000000       30.25900000000000
C           47.97400000000000       54.48599999999999       31.14500000000000
C           50.18700000000000       55.15200000000000       31.86300000000000
C           51.56100000000000       55.19300000000000       31.63400000000000
C           52.13699999999999       55.74900000000000       32.72800000000000
C           51.08800000000000       56.11599999999999       33.63300000000000
C           50.16700000000000       56.87500000000000       35.70600000000000
C           50.30700000000000       57.37400000000000       37.01700000000000
C           49.04100000000000       57.56200000000000       37.51100000000000
C           48.15699999999999       57.20900000000000       36.48500000000000
C           45.90800000000000       56.72200000000000       35.70900000000000
C           44.48100000000000       56.66199999999999       35.89900000000000
C           43.97800000000000       56.00399999999999       34.84300000000000
C           45.07200000000000       55.63900000000000       34.00000000000000
C           44.95000000000000       54.84200000000000       32.88700000000000
H           43.97800000000000       54.39099999999999       32.69000000000000
C           49.29500000000000       54.64299999999999       30.98800000000000
H           49.70100000000000       54.31800000000000       30.03100000000000
C           51.23999999999999       56.55000000000000       34.92000000000000
H           52.24399999999999       56.64000000000000       35.33300000000000
C           46.79600000000000       57.26800000000000       36.55100000000000
H           46.38100000000000       57.82600000000000       37.38900000000000
C           47.51600000000000       53.07100000000000       28.97200000000000
H           46.64000000000000       52.58700000000000       28.49000000000000
H           48.26800000000000       52.29099999999999       29.21900000000000
H           47.95300000000000       53.81000000000000       28.26700000000000
C           44.55700000000000       53.09400000000000       30.30900000000000
H           43.66100000000000       53.69700000000000       30.57000000000000
H           44.49400000000000       52.11300000000000       30.82600000000000
H           44.58100000000000       52.94200000000000       29.20900000000000
C           52.27799999999999       54.55800000000000       30.42100000000000
H           51.88900000000000       55.00900000000000       29.48300000000000
H           52.08599999999999       53.46400000000000       30.40200000000000
H           53.37000000000000       54.74999999999999       30.48800000000000
C           53.65100000000000       55.89299999999999       32.98400000000000
H           54.36900000000000       55.11399999999999       32.69100000000000
C           54.15000000000000       57.18800000000000       33.67800000000000
H           53.43800000000000       57.97300000000000       33.97400000000000
H           55.22099999999999       57.33499999999999       33.88099999999999
C           51.70300000000000       57.60499999999999       37.63500000000000
H           52.26500000000000       58.33899999999999       37.01800000000000
H           52.26600000000000       56.64800000000000       37.65799999999999
H           51.59600000000000       58.00700000000000       38.66500000000000
C           48.49300000000000       57.84700000000000       38.93500000000000
H           47.48199999999999       57.54600000000000       39.24400000000000
C           49.38700000000000       58.55200000000000       39.89100000000000
H           50.33100000000000       58.99999999999999       39.54600000000000
H           49.11500000000000       58.63300000000000       40.95400000000000
C           43.74100000000000       57.30299999999999       37.09499999999999
H           43.92499999999999       58.39899999999999       37.10100000000000
H           44.11800000000000       56.86899999999999       38.04600000000000
H           42.64900000000000       57.12100000000000       37.00200000000000
C           42.58500000000000       55.48599999999999       34.58000000000000
H           41.89100000000000       55.88000000000000       35.35299999999999
H           42.58300000000000       54.37599999999999       34.62500000000000
H           42.24100000000000       55.82600000000000       33.58000000000000
O           48.06800000000000       54.23100000000000       34.42400000000000
O           47.98199999999999       54.07000000000000       35.58100000000000
C           47.45600000000000       59.99200000000000       29.84800000000000
H           48.01400000000000       60.95100000000000       29.90200000000000
H           46.39700000000000       60.20499999999999       29.58800000000000
H           47.91700000000000       59.35100000000000       29.06700000000000
N           47.03900000000000       59.84399999999999       32.35200000000000
H           46.60499999999999       60.74200000000000       32.42800000000000
C           47.52200000000000       59.29699999999999       31.18100000000000
C           47.25300000000000       58.96699999999999       33.36200000000000
H           46.95700000000000       59.15199999999999       34.39400000000000
N           47.85699999999999       57.88800000000000       32.91000000000000
C           48.03099999999999       58.08400000000000       31.50700000000000
H           48.50400000000000       57.32600000000000       30.89500000000000
77
 energy: -118.952975979883 gnorm: 0.176002939664 xtb: 6.7.1 (edcfbbe)
Fe          48.02941828720103       55.89002012649716       33.79279457191777
N           47.25821630271060       54.95734390383530       32.19533635890674
N           49.89845972983444       55.73340707238200       33.07742996158454
N           48.83954203609520       56.76383964484237       35.39995355723016
N           46.24641721084168       56.09662230982206       34.52202464252538
C           45.96046601717296       54.56917228836723       32.01041102230811
C           45.83348752256909       53.82265619362328       30.77175240733710
C           47.06731008314929       53.77183502554155       30.23832269234697
C           47.95572219648703       54.48707876553785       31.13558805965228
C           50.20057209188381       55.16797716183713       31.86039327282819
C           51.60079635162887       55.18068281424250       31.63649334323513
C           52.18323060019483       55.75574412829535       32.73724302227199
C           51.09737146303595       56.09758762503043       33.62724517462635
C           50.16234522627156       56.87705616285272       35.72004045899836
C           50.31500546676640       57.38173103026493       37.04741698906975
C           49.04686150017529       57.57239421950963       37.55337449626370
C           48.16168449240325       57.20707996525494       36.49320987323332
C           45.89587498438708       56.73062172149725       35.69620753280268
C           44.47028378453289       56.67314368912965       35.90517681379582
C           43.96569253813544       55.98781580980260       34.85137895875338
C           45.07083961214472       55.63058497136459       34.00897091295549
C           44.94415491911724       54.84060058463870       32.88429983024688
H           43.97578726987118       54.40118513913832       32.68343458417677
C           49.29916645398892       54.64238672841929       30.96887860257130
H           49.70699121858478       54.30360166711860       30.02563103599061
C           51.23816255162532       56.55237337068257       34.91819864314295
H           52.23686856004495       56.64512667860165       35.32651574975200
C           46.78987443634460       57.28104057163721       36.56191358003839
H           46.37718692879815       57.81970442955576       37.40483880424600
C           47.51360427776211       53.07459004471801       28.97465257049072
H           46.65422195921930       52.59259679233301       28.49501755138477
H           48.25892418547294       52.30513924148880       29.21375183561393
H           47.95023862599452       53.79843052236972       28.27467615538405
C           44.56664549230845       53.10634248520766       30.31291412029664
H           43.67447675901071       53.69118344652691       30.56622312333234
H           44.49862066505133       52.13233240947327       30.81669023438931
H           44.58232333736665       52.94551177543793       29.22790749376672
C           52.27874454766177       54.56531652675090       30.42861422438563
H           51.89585676323811       55.00423504320854       29.49696669859300
H           52.09029534378663       53.48296850028272       30.40391086338906
H           53.35668835028481       54.74619736084377       30.48562104908477
C           53.64227325217767       55.96611183420630       33.01500883170264
H           54.33846722657972       55.17152533623162       32.70941821982153
C           54.12528975182728       57.12607474342963       33.64828947239051
H           53.44918896684493       57.92919508997279       33.94725861377651
H           55.18355996835443       57.29914648080124       33.86043037951035
C           51.69210369585983       57.60491109354290       37.63765853974437
H           52.25312807653295       58.32837783008788       37.02841365519885
H           52.25455866255818       56.66221967928419       37.65927711004058
H           51.60687769608603       57.99385756573619       38.65393057975584
C           48.55673808827610       57.88153942627333       38.94160090157436
H           47.54749574498039       57.55438662990662       39.23084970236103
C           49.35477257320576       58.53264329667908       39.86066528904653
H           50.29599372098163       58.98128261005061       39.55231513898746
H           49.09723919425686       58.62790039805926       40.91557519024592
C           43.74782476961041       57.29869927117227       37.08391003614778
H           43.92254614760005       58.38343090530329       37.10058362986121
H           44.11200788379993       56.87428366100202       38.02898083556995
H           42.66822997261987       57.12209298537920       37.00470213360020
C           42.57991169642241       55.49195484390821       34.58442600114243
H           41.89047629560192       55.87487196503239       35.34378914935218
H           42.57709459342261       54.39415091972654       34.62384184442569
H           42.24038053141626       55.81905184054185       33.59299035066520
O           48.08086928712076       54.23480050919497       34.40592921143688
O           47.97737802637916       54.05721464626379       35.62682726970608
C           47.45605980708788       59.99206213001207       29.85677985241366
H           48.00601442183123       60.94179026336273       29.89863084032740
H           46.41214571903810       60.20339201990947       29.58824394716408
H           47.90718621025206       59.36098633816207       29.08215040779660
N           47.03974130404342       59.84478135640304       32.34689589215014
H           46.60351062456726       60.74643918256458       32.42749414663057
C           47.52307123872543       59.29752978667136       31.18016108789934
C           47.25769715275135       58.96083063363330       33.34734864918001
H           46.96681278142352       59.14209275112312       34.37426732039297
N           47.84889462835591       57.88311047289644       32.89275070565510
C           48.02844083271101       58.08348829061455       31.52122824347623
H           48.49858931354369       57.33151526489701       30.91195594793060
77
 energy: -118.980040685232 gnorm: 0.106648402254 xtb: 6.7.1 (edcfbbe)
Fe          48.04385507628601       55.84914700602673       33.81465694783829
N           47.24949344944726       54.97269628971554       32.17961693528770
N           49.90953567651006       55.74228507907339       33.05330518566377
N           48.84258301695787       56.76267484455846       35.41644739464422
N           46.22759763681447       56.11388243029900       34.52427227329381
C           45.96621319394863       54.56179862949728       32.00731203644587
C           45.82990016912404       53.80033308767010       30.77952704003578
C           47.07224391375241       53.76532849743739       30.22484353527808
C           47.94789580791430       54.49418906730052       31.12416063828257
C           50.21167777178048       55.18330639181870       31.85330487042471
C           51.63334392338181       55.17529727121132       31.64006106856347
C           52.21226955336179       55.76296365192066       32.74513419368945
C           51.09967735017503       56.08546248662435       33.62286546348184
C           50.15817222571355       56.87563555743780       35.73493101387335
C           50.32050104234035       57.39147940272370       37.07094540015988
C           49.05289511498539       57.58548935238564       37.58152385592894
C           48.16199370995023       57.20427335944569       36.50281404724669
C           45.88835834579351       56.74543252298955       35.68488192345914
C           44.46283271973853       56.68534200272217       35.90687358209547
C           43.95673296231921       55.97023863259561       34.86220113342995
C           45.06966931536962       55.62008776447058       34.01877531000866
C           44.93899866468737       54.84197042419795       32.88041065791197
H           43.96996532654741       54.41687015120531       32.67262955988421
C           49.30736285296812       54.64464921268307       30.94853511289131
H           49.71760181313096       54.28035942334065       30.02033199305208
C           51.23016239517060       56.55604261010431       34.91599500789259
H           52.22621275367447       56.65397582632591       35.31803890155568
C           46.78394365904058       57.29437796900292       36.57563691984696
H           46.37082056219592       57.80575591924697       37.43077824203053
C           47.51110570735164       53.07926674580702       28.97812999707889
H           46.66453303562690       52.59680122691209       28.49635381457834
H           48.25413559445365       52.31653263657141       29.20905256423476
H           47.95088848216685       53.79050905271990       28.27929177955642
C           44.58228897385165       53.11718389763842       30.32045525683801
H           43.69220062364662       53.69293581229134       30.56587585828560
H           44.49944749368758       52.14500348043033       30.81105318617854
H           44.59203574210619       52.95209219231379       29.24417615909510
C           52.28689919289928       54.57527467125227       30.44038802007619
H           51.90229504762519       55.00673977448251       29.51505570389532
H           52.09649570382214       53.50050583459486       30.40844334882145
H           53.35857382290786       54.74227489626879       30.48049265941475
C           53.62864522233970       56.01694471542037       33.04063816029102
H           54.30918154277508       55.22084157634691       32.71830312537094
C           54.08767941208728       57.07221317314750       33.61081035470607
H           53.44849975565688       57.89355610830402       33.92019792215584
H           55.13737426596067       57.24865055477178       33.83320269102909
C           51.67998137783429       57.60467718949273       37.64679577998542
H           52.23871367542711       58.32024393663325       37.03946560383616
H           52.24126690717956       56.66975713967989       37.65970849988597
H           51.61984430580384       57.98306521074620       38.65799099672261
C           48.61137497710393       57.90072253693616       38.93703876045507
H           47.61120181755057       57.54612581941532       39.20884937613445
C           49.33771482107332       58.52036271192866       39.82969737631158
H           50.28521484942843       58.96596631932882       39.56579652679427
H           49.06533814497164       58.63828328245259       40.87093223507539
C           43.75355865597530       57.29569999120348       37.07089652398315
H           43.92234779337968       58.37340164166763       37.09901026474579
H           44.11133951030431       56.87458541882330       38.01066453635695
H           42.68195321894103       57.12042791632464       37.00317219931242
C           42.57276826817620       55.49621759944257       34.59291119838318
H           41.88334046292456       55.87374639260113       35.34047636181867
H           42.56200049424069       54.40612654843708       34.62424939907685
H           42.23822749658689       55.81613408424055       33.60623328638830
O           48.09973333975656       54.24644535841825       34.40818019519102
O           47.96855472147136       54.05607680483490       35.65989363830310
C           47.45702808531672       59.99305686013660       29.86452422695099
H           48.00093402854957       60.93706580931832       29.89876155266876
H           46.42254695068402       60.20244582211424       29.59152616986633
H           47.90034653130377       59.36605263743208       29.09579756217936
N           47.04148098374273       59.84548731508423       32.34172585270640
H           46.60435325437324       60.74908210686767       32.42710147615339
C           47.52457036299582       59.29835773677034       31.17832560960048
C           47.25812322736895       58.95371042313497       33.33341030877467
H           46.97538250740551       59.12928490362911       34.35579981781910
N           47.84288064843703       57.87837542951399       32.87474242160035
C           48.02171627951314       58.07940124948546       31.53381286664408
H           48.49237268013503       57.33394259060118       30.92577853047220
77
 energy: -118.987375353612 gnorm: 0.024504623762 xtb: 6.7.1 (edcfbbe)
Fe          48.04796411394163       55.82624557359445       33.82679436236830
N           47.25190890353164       54.97892016371468       32.16953644075192
N           49.90659259566782       55.74412906939626       33.03536599921154
N           48.84120954577877       56.75682855173589       35.42647574592407
N           46.21952866093859       56.12099625452974       34.52640828357828
C           45.97045862468229       54.55977159416001       32.00730077671612
C           45.83653073180500       53.79174978632442       30.78532250566476
C           47.07544969793327       53.76283157533803       30.22150088317140
C           47.94948863305031       54.50117615272882       31.11133711816152
C           50.21189635915042       55.18798716537181       31.83605163552104
C           51.63694233525580       55.17220215271942       31.63365618912879
C           52.20081408766493       55.75292733458155       32.74166260925425
C           51.09093471814413       56.07904897849718       33.61696000320796
C           50.15681800551329       56.87243859961253       35.73792735728833
C           50.32591241527282       57.39310590234502       37.07265460888728
C           49.06241261622603       57.58905090095478       37.57812849616129
C           48.15980641137537       57.20137776214127       36.50873826177149
C           45.88425227232551       56.75633677622245       35.68309313476036
C           44.45849100829959       56.68992122503961       35.90359309277549
C           43.95094782222557       55.96100220933636       34.86890470842695
C           45.06563782294235       55.61375516231696       34.02366479513357
C           44.93877273815004       54.84379439612236       32.87827941873097
H           43.96420030229084       54.43726137505448       32.65620048474812
C           49.31083467396404       54.64626558526372       30.92916862516331
H           49.72596124142490       54.24864121128228       30.01351940438024
C           51.22119680204129       56.55517647738792       34.90900532079423
H           52.21832728654470       56.66637655591764       35.30297199341735
C           46.78026121210215       57.29729450698971       36.58529209358964
H           46.36606795125490       57.78039405466806       37.45993241533318
C           47.51327876241272       53.08091007946315       28.97440134111595
H           46.67027671323751       52.59648644995602       28.49073569518287
H           48.25837366120964       52.32116841349864       29.20314930023421
H           47.95487694566697       53.79009974182907       28.27598972421767
C           44.58935501752205       53.12162337830698       30.32466052061085
H           43.70585449232587       53.70575941239331       30.56841421088022
H           44.49644326785202       52.14970011520649       30.81093203290840
H           44.60484833313667       52.95995913250565       29.24969371220494
C           52.30127668919933       54.58183262894413       30.44098341585429
H           51.91520068291579       55.01844283245455       29.52085891788414
H           52.10832255188024       53.50931051206398       30.40690690322581
H           53.37348780418662       54.74323444316389       30.47808377904370
C           53.60373952469485       55.99567822026653       33.02611334192205
H           54.28336949415028       55.21244376186195       32.69903458761822
C           54.09034142548827       57.08833545893323       33.62220610226998
H           53.45566156448540       57.91418485596891       33.91068084714473
H           55.14106255113809       57.23282423265083       33.82425475925032
C           51.67981872863164       57.59881220417378       37.65582761633112
H           52.23454461155009       58.31877144380810       37.05342852548063
H           52.23564465451714       56.66257926774301       37.65520876545328
H           51.63678937734075       57.96212720731845       38.67362227916170
C           48.63368149742806       57.90312510155382       38.92168527027590
H           47.65114799814499       57.51767779632063       39.18743582190582
C           49.33798571793053       58.54846214236942       39.84269763277286
H           50.29556683255579       58.98558340981089       39.61035339184322
H           49.01111344711813       58.67596363649645       40.86316828840409
C           43.75353532424530       57.29682095728513       37.06522507573909
H           43.92134948968240       58.37327361890549       37.09757243628294
H           44.11515666597823       56.87103420785213       37.99955049912499
H           42.68409586327805       57.11788099224773       37.00095090958433
C           42.56127385567638       55.49947557065592       34.60323119239189
H           41.86951483685684       55.88080442270413       35.34638417147409
H           42.53507735243789       54.41081349248909       34.63129855675268
H           42.22909367069079       55.81985416763152       33.61714674996897
O           48.11736956777933       54.24773105185940       34.43764987640865
O           47.96521644342359       54.06404194837378       35.69384291084376
C           47.45814366398054       59.99536880869634       29.86834418941102
H           48.00085784546473       60.93886464695609       29.90118826408343
H           46.42525693097188       60.20502173181029       29.59462380385779
H           47.89844279290184       59.36764482408510       29.10117813626972
N           47.04355411142665       59.84202365857617       32.33918611804187
H           46.60986614740322       60.74737315137414       32.42768008312527
C           47.52582183110014       59.29650447774888       31.17636466354696
C           47.25400723616023       58.94391298938826       33.32614338076517
H           46.97783652620868       59.11448841280097       34.34756194201898
N           47.83136669706827       57.86615387124426       32.86496022295310
C           48.01598947209034       58.07308972453149       31.53116677523225
H           48.48649173895713       57.32872034037455       30.92477649490398
77
 energy: -118.989580043443 gnorm: 0.015160066921 xtb: 6.7.1 (edcfbbe)
Fe          48.05304496983210       55.81202138503406       33.83548571997973
N           47.26075537016141       54.97018269546776       32.16981966551480
N           49.90462235734751       55.73474110871515       33.02370212379173
N           48.84051185817162       56.75104857065639       35.43710153589886
N           46.21456407375429       56.11959006543115       34.53260818005533
C           45.97823569158501       54.55638129907768       32.01005986459775
C           45.84463417288535       53.78858882155681       30.78968705891003
C           47.08046927711625       53.76087532076096       30.21987715230198
C           47.95602292994609       54.49603979807033       31.10704308737467
C           50.21467715314617       55.18037794990285       31.82453679667934
C           51.64143500078408       55.16940522321282       31.62816204375210
C           52.19295451844605       55.75240786255600       32.73799389197772
C           51.08151822276114       56.07615989583165       33.61042612104277
C           50.15700954446736       56.86848257344793       35.73979351690414
C           50.33305827085874       57.38906114821984       37.07418086226943
C           49.07276581281214       57.58194946921595       37.58154867658175
C           48.15829904123751       57.18998422171433       36.51978002208160
C           45.88297698585703       56.75393399902050       35.68833673584265
C           44.45542179563100       56.69071987753264       35.90311289149771
C           43.94669897220552       55.95405663445428       34.87533331323092
C           45.06306498566289       55.60790069177046       34.02859333977360
C           44.94134702344892       54.84879077184019       32.87552108182729
H           43.96252693164405       54.45831774505425       32.64025693725520
C           49.31753456145181       54.63528886243709       30.91736008031219
H           49.73253723645299       54.22132613149988       30.00877003123106
C           51.21287260595398       56.55752730527087       34.89952679306017
H           52.21260902360061       56.68147662615366       35.28371691260050
C           46.77879741116196       57.28536217064045       36.60120105002874
H           46.36320058989884       57.74825019673293       37.48669313800431
C           47.51703250370594       53.08259824267100       28.96892998564045
H           46.67463332784148       52.59955583864161       28.48141110775555
H           48.26286878529149       52.32116248802109       29.19440861284326
H           47.96074015697834       53.79418430095375       28.27302130284043
C           44.59431686334492       53.12676822391207       30.32554823099736
H           43.71788344649942       53.72359451309279       30.56641664550539
H           44.48549483877166       52.15486003270207       30.81049911730774
H           44.61610792851673       52.96686869068509       29.24998420146994
C           52.31806369197373       54.58988291428892       30.43678102829835
H           51.93437896473739       55.03300321161083       29.51857262746132
H           52.13014660102055       53.51611992897662       30.39554615674215
H           53.39053493941989       54.75339159220922       30.47854952923625
C           53.59231439042655       55.99528059145214       33.01475397946707
H           54.27738482787078       55.22165333371579       32.69140217875771
C           54.07801563912240       57.08653487554749       33.60241673485738
H           53.44416466048104       57.90376090075124       33.90178327763800
H           55.13028568519388       57.20129238698576       33.80059846482712
C           51.68564393848472       57.58574067362760       37.66306640858630
H           52.23971255291876       58.31950618740491       37.07610839421642
H           52.23931204924603       56.64732562474182       37.64184280058359
H           51.64560585588070       57.92550943858579       38.69074427567286
C           48.64769826792418       57.90498525193706       38.92229914830297
H           47.67247781035110       57.51215412015995       39.18458521806821
C           49.33171267486361       58.57704435632999       39.85189846709399
H           50.27990915568228       59.04418728625934       39.64475130118611
H           48.95517493929662       58.71179063382094       40.85459532249099
C           43.75072522161465       57.29833262383707       37.06414791960340
H           43.92085674098371       58.37463255911150       37.10017328089665
H           44.11422719157813       56.86721556894659       37.99601334806133
H           42.68075589551943       57.12018458060363       37.00020344555463
C           42.55024413910108       55.50561829513631       34.61423764401825
H           41.86232182951544       55.89572411588117       35.35825591150966
H           42.50443358073858       54.41647549675086       34.64092106132153
H           42.21884386471847       55.83248634968906       33.62922900360008
O           48.13774034101514       54.25614025767663       34.46316600608034
O           47.96406843310211       54.08280500653213       35.72221445552409
C           47.46015902929302       60.00011647342210       29.86796881509432
H           48.00374067124378       60.94339295731391       29.90407848591375
H           46.42643287244179       60.21166333760972       29.59673460583743
H           47.89906966953073       59.37286014716198       29.09887035649820
N           47.04630746143786       59.83944079311485       32.33654752874511
H           46.61607138314405       60.74581960349918       32.42845612627706