77
 energy: -118.995431630003 gnorm: 0.000048784223 xtb: 6.7.1 (edcfbbe)
Fe          48.05379428377137       55.62253525467981       33.90222427965313
N           47.26518205682827       54.79733023408204       32.23440888182899
N           49.89761820604870       55.54466082712769       33.07658774960421
N           48.82905632337312       56.61641633644409       35.48372886811916
N           46.18716743576636       55.93051403008504       34.60308214874170
C           45.95459988561738       54.54177494135584       31.99135694039427
C           45.80282310154472       53.85674955224111       30.72545434834562
C           47.05644467637443       53.69952782941380       30.22067669935737
C           47.95991837964175       54.29780295013489       31.17998721108701
C           50.21935040069162       54.96255647710581       31.89223816708092
C           51.63599543979887       55.06086791022093       31.65346962383230
C           52.16303729382344       55.74328177255267       32.71725658002577
C           51.05477185108927       56.01021007778345       33.61291018696917
C           50.14494624356848       56.83636574780508       35.74266792752518
C           50.30934511558427       57.43000129101448       37.04684004198574
C           49.05069619873283       57.56282762185647       37.57149125666677
C           48.14099674783288       57.03018352648022       36.57488806285029
C           45.86875595833028       56.48466571347620       35.80056363600915
C           44.43554133529160       56.46016311025461       35.99931370031778
C           43.90498116284257       55.86798028460687       34.89496150961783
C           45.02033306779084       55.53241282076588       34.03610048511942
C           44.89973291680879       54.88774209144291       32.81784961427651
H           43.90554689835051       54.62030823720406       32.49321105293430
C           49.32944155989759       54.36770668444466       31.01234021368016
H           49.74271397927210       53.92557514451889       30.11832864883526
C           51.18682049940191       56.57172490002548       34.87019430566450
H           52.18673335588721       56.80709591877778       35.20054878464980
C           46.76500726096960       57.00030546344026       36.71868360006003
H           46.35522195401280       57.38964569912253       37.63836462103515
C           47.48934347824251       53.05638889279957       28.94834085356664
H           46.63314163835568       52.67997189320253       28.39466504363521
H           48.15929826004446       52.22182543957121       29.15346674367642
H           48.01999802374013       53.76964077679996       28.31719778550350
C           44.49508710221397       53.42669926126618       30.15644847363660
H           43.83562377999156       54.28383453038511       30.01972385444791
H           44.00211930984413       52.72366972649247       30.82745479140003
H           44.63246922563182       52.94198920235215       29.19330918229837
C           52.33676857050386       54.55001463769125       30.44272051925471
H           51.97768416490565       55.05705607622040       29.54655271159574
H           52.15785954712867       53.48186256512018       30.32088020509925
H           53.40763704963111       54.71752389723026       30.52229948716825
C           53.54929954961549       56.12108652701480       32.90910276663293
H           54.27826295173522       55.38774702521730       32.58285528479696
C           53.97223400002615       57.27880769433669       33.40281085528766
H           53.28971228372276       58.06020639876878       33.69175057171613
H           55.02194904193301       57.49459681591647       33.51246337871814
C           51.61726653673387       57.74750987361612       37.68105713044381
H           52.00205820614849       58.70416952238681       37.32351894286938
H           52.35191731538123       56.97945365196207       37.44642844008648
H           51.50320233922858       57.80431244674386       38.76139313750352
C           48.64784137572921       58.08406754299497       38.86015307048917
H           47.78862139907234       57.60181524977656       39.30994935429082
C           49.24141685020306       59.08318198803585       39.50434579290327
H           50.07149486528586       59.62392085537400       39.08369530655358
H           48.89958252540337       59.41123851064862       40.47176086081819
C           43.74715129946961       56.98831671177071       37.21019730716367
H           43.98953281472250       58.03989062578990       37.36523737550236
H           44.06142663125860       56.43407836295938       38.09420421787565
H           42.66847531224220       56.89490777970824       37.11360195422214
C           42.48080919889397       55.57306662857121       34.57331233357232
H           41.82167632485721       55.95432493600239       35.34898751937163
H           42.32636706975141       54.49744722982054       34.49063914583872
H           42.19839465117671       56.02984210741151       33.62469682025355
O           48.22340022830757       54.10520295301955       34.58898093635369
O           47.89673303465199       53.95508439230236       35.81823295666864
C           47.73953367520112       60.05917615349636       30.04424318860283
H           48.41733975061962       60.90605922839352       30.15070116385329
H           46.74760624818747       60.44448457046062       29.80839022967824
H           48.07928585368798       59.44343336002153       29.21732920108129
N           47.31159407320014       59.76722959951120       32.49489341233975
H           47.01330771650758       60.71557686507816       32.65698921364766
C           47.70783091138996       59.24953946008424       31.28769389405975
C           47.39592901460681       58.77865982042667       33.41027044639004
H           47.14742361803045       58.89353962860859       34.44570910580877
N           47.81928663586651       57.67114343652221       32.86158560037574
C           48.01903958258338       57.94392027660973       31.54277808359906
H           48.37039337542260       57.18655242306019       30.87325220306547
