72
 energy: -105.900051305896 gnorm: 0.000127420399 xtb: 6.7.1 (edcfbbe)
Fe          45.79215494283174       19.82573752684770       98.25423210451228
N           44.66335975612233       21.18749602463614       97.28147581496319
N           46.80680463446220       19.43327656380321       96.52476152449542
N           46.96338639803979       18.44135386618624       99.22393379889411
N           44.85873535262252       20.23290769098582       99.95478890067346
C           43.75533957806356       22.03369452014785       97.84252018719000
C           43.13138186262165       22.84214914286864       96.81564161967150
C           43.66490682840973       22.44703907583137       95.62840600591292
C           44.63816459667967       21.41693301117975       95.93168003987762
C           46.50396701093902       19.91869978280261       95.27473943254134
C           47.42437589461662       19.43779370438713       94.31883287534188
C           48.33982996714549       18.63553952993384       95.01412501624597
C           47.90809992440716       18.63793410849046       96.37857079279785
C           48.05000811929161       17.79577897734955       98.71069548685853
C           48.61186231920706       16.91801705570219       99.70314342573531
C           47.81138625528174       17.01405549213140      100.81589560317893
C           46.80475051875207       18.00697200131046      100.50923969938465
C           45.03020501471622       19.60213226582778      101.15864598305632
C           44.20777826544611       20.20944389198199      102.15525126525009
C           43.53452868119516       21.24019036051200      101.53382646279107
C           43.94881400259176       21.22948549212563      100.16880943430644
C           43.43872048891456       22.08126096395262       99.18284842440596
H           42.69642998033964       22.79832908872406       99.49619936145923
C           45.46339255219790       20.82958909757792       95.00467784945101
H           45.35096278945365       21.13842357708624       93.97723007569584
C           48.50975435028830       17.90633598917130       97.41043087156237
H           49.38281240657691       17.32813358787308       97.15333043273314
C           45.91679006352209       18.55349563645532      101.41182186509690
H           45.95718627834415       18.18773835099444      102.42543414198624
C           43.37221082478131       22.93654540895190       94.25281337879393
H           44.25996354413931       23.38916144204469       93.80987410198071
H           42.57906357975085       23.67944180951990       94.26678280455991
H           43.05942901116613       22.11104713191874       93.61369435910453
C           42.09695564353223       23.87799401903395       97.08787186990347
H           42.47762926843454       24.62237387540096       97.78704580539505
H           41.21022838012282       23.42291590189185       97.52935928446092
H           41.80375526044400       24.38442107477856       96.17188445412235
C           47.36681527405808       19.68987381197665       92.85257439506370
H           47.94767991113043       20.57388179934977       92.58166204503334
H           46.34026217134240       19.84942398324671       92.52779505491144
H           47.77164566207076       18.83655779453345       92.31191021978154
C           49.47677994139755       17.91388081749265       94.51222902943699
H           49.78079855153202       17.05642195376816       95.10136925218001
C           50.18628485403460       18.21084764224859       93.42216719675044
H           49.98439307888140       19.07539242380948       92.81638562322098
H           51.02143868616854       17.60185280477669       93.11940815546066
C           49.79712740202721       16.04346465293527       99.48987396583233
H           50.64609282560552       16.62912106373734       99.13715928539735
H           49.58167621618123       15.27936586433374       98.74160785348299
H           50.07677629769410       15.54398963155581      100.41368011144006
C           47.94874938388684       16.26950292998902      102.04890844982367
H           48.96809182955919       16.05605606974747      102.35044570389925
C           46.94583088030824       15.80818699857175      102.78824713813054
H           45.91597361527922       15.94469633545340      102.50484517887452
H           47.12353877023506       15.25398613255775      103.69451398040592
C           44.13868735466606       19.77373181864640      103.57786060666508
H           45.11055517852355       19.88389237322555      104.05987344163390
H           43.84668978428097       18.72559316546753      103.64479125914492
H           43.41357166250547       20.36643379524830      104.12929754595037
C           42.55517650092958       22.20046541844263      102.11558814737081
H           42.44107639426191       22.03690352130598      103.18394223332990
H           41.57822887186834       22.08523900736414      101.64473432633459
H           42.88646559407067       23.22711335564706      101.95945311866710
O           44.39636818753401       17.86783453607939       97.65901693178843
H           44.75476915068941       17.19286105960934       98.24435463044107
H           44.70473682941753       17.66357219525814       96.77053246945725
C           47.71667966562956       22.76689924470258       97.33101268154489
H           48.66247936330630       23.23690515775384       97.07889231634221
H           46.97242548454514       23.52280706990976       97.55863487043807
H           47.36494802375190       22.13266062172720       96.52463748432355
S           47.92454841032761       21.77225510220030       98.84872843501542
H           48.74651384686157       20.86849280690996       98.31535230799093
