78
 energy: -116.058077685510 gnorm: 0.000128019072 xtb: 6.7.1 (edcfbbe)
Fe         -11.63994910176554        2.37620530119115        1.25683071989509
N          -12.23068169000150        0.72241374951828        2.24144702319530
N           -9.97343845497164        2.43839124533938        2.39094828243287
N          -11.01721648369721        3.97889574941993        0.24814705402420
N          -13.26273172782208        2.26559857479559        0.10801880395673
C          -13.38688599670872        0.03165628973026        2.05495296525618
C          -13.47939890892370       -1.07111233567522        2.98419887919232
C          -12.35002819909636       -1.02999395167967        3.74206260459278
C          -11.58467878522513        0.10071193377934        3.26786583296452
C           -9.62949550843834        1.58450257079188        3.39718012305811
C           -8.39259557524064        1.98824776507285        4.01125380364816
C           -7.99356566489684        3.12771914126326        3.36139960485329
C           -8.99643914442014        3.38235269927192        2.34716383831774
C           -9.89185447570401        4.70693925923381        0.48303594526667
C           -9.79400727190853        5.81257056452324       -0.43727285756304
C          -10.89820227594578        5.73949514610664       -1.24304779505147
C          -11.64357871600968        4.57853546488897       -0.79360770064546
C          -13.59445483092835        3.09838826946111       -0.91149548791410
C          -14.85803337032084        2.70979995518340       -1.50180282418528
C          -15.28219486284717        1.62083120916110       -0.80866717062007
C          -14.27101954771915        1.35945997748765        0.19399299907649
C          -14.34477840300553        0.32027548256702        1.10098531199631
H          -15.21390803947895       -0.31812855300037        1.06002950205060
C          -10.37157633338135        0.48715450887399        3.80424547577149
H           -9.98376856648642       -0.09911051919501        4.62330897754099
C           -8.95674629138191        4.44749097841307        1.46866982318388
H           -8.12995021827864        5.13501604169014        1.55947906999751
C          -12.84967876838954        4.18020905646491       -1.33954728812691
H          -13.24404082930064        4.76085502086444       -2.15956238887784
C          -11.92178763169883       -1.93127633031453        4.84947989732710
H          -10.96954699787858       -2.40649376655728        4.61191664165727
H          -12.65944721555729       -2.71154368155757        5.01952012991696
H          -11.79658042286806       -1.37053458004867        5.77633369164392
C          -14.61940839455876       -2.02911117575856        3.04055648204964
H          -14.72667130924856       -2.55345908764426        2.09070611133345
H          -15.55226822292240       -1.50220726124644        3.24205510471600
H          -14.46690494016415       -2.76773769075160        3.82374554468824
C           -7.68584782104673        1.24212832844302        5.08914271178757
H           -7.78896608641312        0.16731720188638        4.94672957406047
H           -8.09283652217320        1.49266735717808        6.07046916005419
H           -6.62720942664834        1.49376221914477        5.08353105132734
C           -6.81031651304027        3.93158825190882        3.57165726879324
H           -6.39743937411505        4.39739734586971        2.68439592274308
C           -6.21578546442959        4.14008638060450        4.74201478095525
H           -6.60629781028839        3.74366908732693        5.66298551058033
H           -5.32573057584381        4.74191857764629        4.82178962666003
C           -8.65659007172010        6.77054237563623       -0.50967265183860
H           -7.71028053987464        6.25857057012362       -0.34136250156312
H           -8.75651644477316        7.55204956508038        0.24553051510701
H           -8.62736464828416        7.24121156157225       -1.49020566327232
C          -11.28350741739391        6.58905115221270       -2.34822023225573
H          -11.79583135210148        6.09164673795538       -3.16360442954054
C          -11.06630950714770        7.89791481837869       -2.42713608268211
H          -10.60508496977094        8.45132729412380       -1.62773174628980
H          -11.36761523213669        8.46818707232417       -3.29025861158007
C          -15.50229883921635        3.41274977558923       -2.64693332244465
H          -14.85222382123489        3.39225247552188       -3.52175748428183
H          -15.69918154417939        4.45552784703810       -2.39645721753966
H          -16.44528055984437        2.94000408801276       -2.91037877929830
C          -16.51822527663248        0.80787412683395       -0.98845804707944
H          -17.12530149051370        1.20154725672759       -1.79991826881446
H          -17.11727607775043        0.81371109900134       -0.07748272028085
H          -16.26558706285160       -0.22700465416755       -1.22044157293188
O          -10.47540831013388        0.96804196698605       -0.13031894096393
H          -10.80813560514179        0.12192842901319        0.18828795195636
H           -9.58914688548368        1.07793179732137        0.23108303801632
C          -14.71770403742860        6.31278586819305        3.72701120865588
H          -14.19875276519439        7.05513789697942        4.33325323978034
H          -15.61688185044177        6.00511065412799        4.26071504858369
H          -15.01004876542835        6.77298225382844        2.78845984718145
N          -13.31490050431052        4.37044610831537        4.45588421131366
H          -13.46153422996678        4.50407973720387        5.44290495701808
C          -13.83964288554730        5.14657549188750        3.45588645068206
C          -12.56791763798955        3.40455509098871        3.87551373058075
H          -12.03606094380723        2.65036460355659        4.41762193277106
N          -12.58791333868003        3.52164996412337        2.57009926398532
C          -13.37541829652051        4.60067492675323        2.29355163101725
H          -13.55311631729101        4.91003027709354        1.28429290844022
