87
 energy: -128.467381694536 gnorm: 0.000043939370 xtb: 6.7.1 (edcfbbe)
Fe          -6.42720681934325       15.73545847387273       23.67522689265775
N           -6.61813924292305       13.75619291194139       23.44094021782277
N           -6.68712075449856       15.99629917796029       21.70104400580488
N           -6.20959501263467       17.71315574126898       23.91107768228121
N           -6.19308627018797       15.47628919159325       25.64459891189391
C           -6.60602506983439       12.81264420942871       24.41653557916206
C           -6.75208815636272       11.48904987440546       23.85049258252525
C           -6.84971625038419       11.65846958391473       22.50499856312269
C           -6.77036991010149       13.08424910722904       22.26939949699723
C           -6.85232144385658       15.02384997556413       20.76434405566638
C           -7.04042608990007       15.59743621074888       19.45736686856679
C           -6.99814172694072       16.95776413531478       19.62358647281301
C           -6.75901400750300       17.17825666984689       21.03728787632458
C           -6.33245193908968       18.66369734046474       22.94633396939233
C           -6.08654983745581       19.97392431953951       23.48828813908178
C           -5.76969681714878       19.79329201834113       24.80859458532014
C           -5.88543496722574       18.36880174526976       25.05375607164047
C           -5.96643308875433       16.44272672807913       26.57126998666924
C           -5.91339868161242       15.87364626360807       27.90098491053873
C           -6.11028048730640       14.53683925278586       27.75106575397360
C           -6.27934496770442       14.30871757788267       26.33199229504741
C           -6.46981024138663       13.05949588153922       25.77073369346863
H           -6.50075051717499       12.21139034191878       26.43829791279385
C           -6.87341304067986       13.66175410159856       21.01923936771561
H           -7.00681414219438       12.99934926685894       20.17694995073863
C           -6.61959441669430       18.42701943888123       21.61235114801951
H           -6.71868012281453       19.28922282454469       20.96999257615991
C           -5.80184745083582       17.78937476923323       26.30738282537435
H           -5.62637360363887       18.44530695638720       27.14606502562144
C           -7.01083499604731       10.63485799663431       21.43294336787920
H           -7.02714304474921        9.63239334844363       21.85392007627031
H           -6.18780163512695       10.69398034151199       20.72027378302620
H           -7.94166758599604       10.79164441722817       20.88654918678456
C           -6.77716377479708       10.23002344931907       24.64851001819970
H           -7.59925913173418       10.24622871958455       25.36461623304738
H           -5.84746590567417       10.10986022380468       25.20551556607411
H           -6.90302066110244        9.36410269059129       24.00286762588390
C           -7.17942136990992       14.82470378724773       18.19140622642670
H           -8.21163544241956       14.50358136313497       18.03929216972774
H           -6.55032524722586       13.93600183337121       18.21169439240876
H           -6.88467531388758       15.44051826975971       17.34384884398832
C           -7.12173339754465       18.00385016134795       18.63431799835822
H           -6.55254974606565       18.90519168290377       18.83196359779386
C           -7.86982825473198       17.94942479361596       17.53629139109650
H           -8.49517324372408       17.10398311758807       17.30893467927097
H           -7.90185567042679       18.76759227883434       16.83572143687650
C           -6.11731830833390       21.24393240142311       22.70912001155980
H           -7.07213283684410       21.35561787969133       22.19470352476314
H           -5.32696295367797       21.25533678419411       21.95700501303797
H           -5.97248688960999       22.09923839658956       23.36459655491506
C           -5.38970110939867       20.81843280155705       25.75757677112292
H           -5.90579877310378       21.76678664670439       25.64803275667645
C           -4.45400021986105       20.70053645809329       26.69337350767522
H           -3.87427990507225       19.80062181527309       26.81019014981411
H           -4.21941737873335       21.51204146417424       27.36255871164316
C           -5.68112120589689       16.66224805473649       29.14440439929950
H           -6.45269846478305       17.42291112940995       29.26648714166808
H           -4.71550441905002       17.16695097653114       29.10347871881740
H           -5.69336746219873       16.01788645466742       30.02028896499164
C           -6.15339971105911       13.46563366914103       28.78708216392065
H           -6.02361067143785       13.88409453478396       29.78229672107117
H           -5.36229921302234       12.73436274327112       28.61747985722021
H           -7.10905913677864       12.94165528749406       28.75693528553567
C           -1.05325263230293       14.20990191479937       23.87526385485980
H           -0.34434851996051       14.90528151215125       24.32492604697742
H           -0.60093729231894       13.79841846873240       22.97281727678378
H           -1.23582074649915       13.39920155744212       24.57368864195827
N           -2.40943525470668       15.95865002215410       22.70263115658041
H           -1.63496062948238       16.37751531937169       22.21452964844294
C           -2.33422855698504       14.89208053686116       23.56039108512742
C           -3.70520466249410       16.34039256153433       22.63798363460614
H           -4.06182878468741       17.15405639235899       22.04083384477235
N           -4.45296662154999       15.58210519847065       23.40079150904651
C           -3.61515475651979       14.67643200846369       23.98080681792695
H           -3.98893384853750       13.93617202488779       24.65718315570232
C          -11.53743971550906       17.15925567069439       25.43612715269959
H          -12.16848389325445       16.38899281973186       25.87973492183649
H          -12.15197829654989       17.75732130274531       24.76308207816824
H          -11.16292065882856       17.80091090867081       26.22755578197394
N          -10.56675547285923       15.68869068966604       23.65626717092708
H          -11.45074404201809       15.38854626888888       23.27950969862230
C          -10.39507787063868       16.55150130461308       24.70752859688118
C           -9.33890310846004       15.32444892508429       23.22192502987474
H           -9.16500813891739       14.65325686400613       22.40642812101646
N           -8.40280634034004       15.90267507020499       23.93273445870962
C           -9.04354033503030       16.66861758386286       24.86100172439348
H           -8.49243166533305       17.24867501189377       25.57178432802265
