87
 energy: -128.373124480755 gnorm: 0.238591845084 xtb: 6.7.1 (edcfbbe)
Fe          -6.44100000000000       15.65300000000000       23.64500000000000
N           -6.71000000000000       13.63600000000000       23.37500000000000
N           -6.67500000000000       15.91800000000000       21.59500000000000
N           -6.17200000000000       17.68900000000000       23.83700000000000
N           -6.20200000000000       15.39500000000000       25.68500000000000
C           -6.69400000000000       12.69200000000000       24.38400000000000
C           -6.92200000000000       11.39500000000000       23.77800000000000
C           -7.07200000000000       11.56900000000000       22.46300000000000
C           -6.94400000000000       12.98400000000000       22.17800000000000
C           -6.91300000000000       14.92100000000000       20.66500000000000
C           -7.00900000000000       15.54400000000000       19.36000000000000
C           -6.83600000000000       16.85800000000000       19.51200000000000
C           -6.62300000000000       17.12500000000000       20.92000000000000
C           -6.19500000000000       18.62400000000000       22.81800000000000
C           -5.95600000000000       19.92599999999999       23.40300000000000
C           -5.79900000000000       19.76600000000000       24.71800000000000
C           -5.93200000000000       18.35400000000000       25.02400000000000
C           -5.95800000000000       16.43300000000000       26.58300000000000
C           -5.85000000000000       15.87200000000000       27.91200000000000
C           -6.05200000000000       14.36000000000000       27.74000000000000
C           -6.26600000000000       14.15800000000000       26.32400000000000
C           -6.49100000000000       12.93400000000000       25.72700000000000
H           -6.51000000000000       12.06700000000000       26.38700000000000
C           -7.03600000000000       13.57500000000000       20.93600000000000
H           -7.22400000000000       12.91600000000000       20.08800000000000
C           -6.40300000000000       18.36500000000000       21.48100000000000
H           -6.39300000000000       19.21900000000000       20.80399999999999
C           -5.83700000000000       17.77500000000000       26.27400000000000
H           -5.64600000000000       18.45000000000000       27.10800000000000
C           -7.33600000000000       10.45600000000000       21.42600000000000
H           -7.73800000000000        9.55700000000000       21.94100000000000
H           -6.38700000000000       10.18500000000000       20.91600000000000
H           -8.08100000000000       10.80700000000000       20.68000000000000
C           -6.98300000000000       10.04100000000000       24.51900000000000
H           -8.04400000000000        9.74800000000000       24.67000000000000
H           -6.49000000000000       10.13300000000000       25.51000000000000
H           -6.47600000000000        9.25900000000000       23.91400000000000
C           -7.26800000000000       14.81500000000000       18.02300000000000
H           -8.36200000000000       14.76100000000000       17.83600000000000
H           -6.86000000000000       13.78300000000000       18.07300000000000
H           -6.78700000000000       15.37400000000000       17.19200000000000
C           -6.85400000000000       17.91300000000000       18.38500000000000
H           -5.92700000000000       18.40800000000000       18.06000000000000
C           -8.00300000000000       18.23900000000000       17.78700000000000
H           -8.94600000000000       17.76000000000000       18.09100000000000
H           -8.02100000000000       18.99000000000000       16.98400000000000
C           -5.89500000000000       21.26800000000000       22.64100000000000
H           -6.91100000000000       21.71600000000000       22.59800000000000
H           -5.53300000000000       21.09500000000000       21.60500000000000
H           -5.21400000000000       21.96900000000000       23.16900000000000
C           -5.52500000000000       20.89800000000000       25.73400000000000
H           -6.29400000000000       21.64700000000000       25.97200000000000
C           -4.33400000000000       20.97400000000000       26.33800000000000
H           -3.54800000000000       20.23700000000000       26.11700000000000
H           -4.12600000000000       21.77500000000000       27.06300000000000
C           -5.58600000000000       16.63100000000000       29.23000000000000
H           -6.39600000000000       17.37200000000000       29.40000000000000
H           -4.61500000000000       17.16700000000000       29.16600000000000
H           -5.56900000000000       15.91400000000000       30.07900000000000
C           -6.03800000000000       13.28700000000000       28.85300000000000
H           -6.21900000000000       13.77100000000000       29.83700000000000
H           -5.04800000000000       12.78300000000000       28.87600000000000
H           -6.84000000000000       12.54100000000000       28.66600000000000
C           -0.93100000000000       14.46600000000000       24.24100000000000
H           -0.27200000000000       15.17000000000000       24.79300000000000
H           -0.37500000000000       14.06100000000000       23.36900000000000
H           -1.22400000000000       13.63900000000000       24.92200000000000
N           -2.09400000000000       16.27200000000000       22.91800000000000
H           -1.24900000000000       16.65800000000000       22.54900000000000
C           -2.15300000000000       15.19000000000000       23.76900000000000
C           -3.31800000000000       16.70700000000000       22.67599999999999
H           -3.55800000000000       17.55500000000000       22.03500000000000
N           -4.16900000000000       15.94300000000000       23.33800000000000
C           -3.46600000000000       14.98700000000000       24.02900000000000
H           -3.96900000000000       14.25000000000000       24.64200000000000
C          -11.68900000000000       17.12000000000000       25.53300000000000
H          -12.04000000000000       16.39000000000000       26.29300000000000
H          -12.52800000000000       17.35200000000000       24.84300000000000
H          -11.35500000000000       18.04500000000000       26.04900000000000
N          -10.66900000000000       15.37000000000000       24.03000000000000
H          -11.50800000000000       14.83100000000000       23.95400000000000
C          -10.54900000000000       16.53100000000000       24.76300000000000
C           -9.51200000000000       15.09300000000000       23.45500000000000
H           -9.33100000000000       14.23100000000000       22.81400000000000
N           -8.64400000000000       16.02800000000000       23.79400000000000
C           -9.26700000000000       16.94000000000000       24.61000000000000
H           -8.73700000000000       17.79700000000000       25.00600000000000
87
 energy: -128.428159160086 gnorm: 0.101610814695 xtb: 6.7.1 (edcfbbe)
Fe          -6.44233977180576       15.68594265232937       23.61831362032724
N           -6.69662211190893       13.64786521273542       23.37761665503344
N           -6.67197031106090       15.92282142781296       21.58743874811201
N           -6.18897960662813       17.69740171577968       23.84402762050674
N           -6.21043750948343       15.40168280156891       25.66313430694887
C           -6.68890425137268       12.70320517562558       24.37802808794450
C           -6.91914689924668       11.39064873809661       23.79117135533455
C           -7.07435162384009       11.56651083657356       22.45817481604145
C           -6.93656363325285       12.98850861844700       22.19440657287073
C           -6.91056478566426       14.93707490541543       20.66363246660330
C           -7.00950532174190       15.53919150330615       19.34597648932957
C           -6.82889275269072       16.87345572543014       19.49916994488454
C           -6.61792885866880       17.11568037685916       20.91551705243988
C           -6.19762378256523       18.62542338281382       22.83502789755470
C           -5.95981500773140       19.93870380807409       23.40372871396690
C           -5.80394982784557       19.77614304538941       24.74061430319995
C           -5.93580809602910       18.35232061116602       25.02234792735617
C           -5.96467770886036       16.39707498823791       26.58322851463360
C           -5.85706567530363       15.82383373187163       27.90648270750702
C           -6.04873961641454       14.41136946062743       27.74680191459204
C           -6.26244293681917       14.19771736233798       26.33294886511606
C           -6.48754941698046       12.95805524224109       25.72795331766359
H           -6.50739361787780       12.09182126620234       26.38484369564857
C           -7.03349928010162       13.58404757403891       20.94499075263017
H           -7.22157476235795       12.92419803437907       20.10210048635534
C           -6.40115075479797       18.35936592347666       21.48827374586826
H           -6.39426579836691       19.20881865269088       20.81080197442668
C           -5.84003097363314       17.75633565557682       26.27361796775894
H           -5.64760598975935       18.43205580797676       27.10351388737354
C           -7.33491622369731       10.47519596366318       21.43642425232390
H           -7.73011266980510        9.58106248663761       21.93120663851681
H           -6.40602940345174       10.19782763237538       20.92317085779327
H           -8.06495702118282       10.80467285287267       20.68992677444477
C           -6.98167509294789       10.06085660555767       24.51800489420613
H           -8.02531283735107        9.75703019729850       24.66978720208145
H           -6.49584278762366       10.12890540381513       25.49473332897394
H           -6.48345147321767        9.28159699830106       23.93014383206713
C           -7.26595819214241       14.81714391220540       18.03933069763923
H           -8.34323234709581       14.75978437428358       17.84167489175292
H           -6.86427328822357       13.79979958401233       18.07060139486238
H           -6.79744989535837       15.36313144104714       17.21335561176526
C           -6.86649829775170       17.90526917553543       18.40736106794479
H           -5.93741703940351       18.38397588302757       18.09469158386946
C           -7.99724665608344       18.23183226183706       17.79623140735288
H           -8.93574751338059       17.77091880937245       18.08249165940688
H           -8.02146429952216       18.97152757493393       17.00048617242745
C           -5.89752393039664       21.25072604039427       22.64705532450872
H           -6.89450763407606       21.70543822831371       22.59687384469948
H           -5.53763731629904       21.09837031194549       21.62455953689335
H           -5.22814114360893       21.94953253393200       23.16067073850076
C           -5.51775285101268       20.86748709977475       25.73300411959674
H           -6.28781071515286       21.61128866185235       25.94343712964346
C           -4.34053167180217       20.96385937279269       26.33588621414266
H           -3.55300689418241       20.24905423500600       26.12732464835485
H           -4.12808229801240       21.75793633469430       27.04688278956905
C           -5.59661804143173       16.59779789277771       29.19268006751850
H           -6.38179068391117       17.34474941803254       29.38063537972005
H           -4.64106804209338       17.14012675837812       29.15381922364457
H           -5.56782677557778       15.92232264391392       30.05452691247362
C           -6.03727914804229       13.33244688196536       28.82518004022342
H           -6.21442754700589       13.77062043048813       29.81395561602563
H           -5.07180737953052       12.80667401626077       28.86387595864803
H           -6.81757115161890       12.57679564716666       28.65644056804119
C           -0.92439957589813       14.47027717861006       24.24037926779059
H           -0.26905322099461       15.15647372086037       24.78885115574178
H           -0.37239052626748       14.06107016808123       23.38678260893483
H           -1.21574963621752       13.65389178491362       24.90658174047854
N           -2.08295928070012       16.26488819265817       22.92420204785836
H           -1.23718088422237       16.66063595114123       22.55140305818226
C           -2.14026746421720       15.18629523687089       23.77085899749631
C           -3.33453423194959       16.68359589476618       22.68631950224735
H           -3.57459796971082       17.52625866200490       22.05590995073980
N           -4.18953378225004       15.91812232884954       23.32972658838354
C           -3.46381472731088       14.98838596937927       24.01981890279173
H           -3.96026241964625       14.25862497903941       24.63246583182726
C          -11.69037537268189       17.11568310830815       25.53137532011959
H          -12.04379947817135       16.40350697903450       26.28624286602622
H          -12.52272984576941       17.35414570274217       24.85921357109646
H          -11.36307538357147       18.02788615503726       26.03699611049232
N          -10.68426188080020       15.37531675537209       24.03443188575371
H          -11.52639965261570       14.83265829382136       23.95512766228777
C          -10.55631646282884       16.53059977119750       24.76460623719807
C           -9.50289082116028       15.10050790419335       23.46580752652543
H           -9.32349333037399       14.25071055065434       22.82740867713223
N           -8.62015083909973       16.01269556317154       23.80555016849482
C           -9.26095730142628       16.92216524991224       24.60347550244712
H           -8.73843696731281       17.77557199783454       24.99615003229285
87
 energy: -128.444315148715 gnorm: 0.038741163936 xtb: 6.7.1 (edcfbbe)
Fe          -6.44450639186859       15.71602870796050       23.60046442088423
N           -6.68275566353866       13.66190607885319       23.37758656073903
N           -6.66709711851724       15.92969492818940       21.59099297194100
N           -6.20382070072111       17.69659402216326       23.84572502813620
N           -6.21591711490252       15.41276266688890       25.64470414259596
C           -6.67877607309976       12.72192473465423       24.37099429573052
C           -6.91312605825384       11.40095402526071       23.80211596025294
C           -7.07321269388551       11.57678047579549       22.45856886915241
C           -6.92492664363373       12.99968644047293       22.20812678710592
C           -6.90352632619439       14.95264013530666       20.67192360741525
C           -7.01186449319951       15.53722939958361       19.34744612944170
C           -6.82765111920884       16.88300393319211       19.50035937644578
C           -6.61289208691326       17.10894471661480       20.91964975755259
C           -6.20823370718724       18.62238321244590       22.84975982710092
C           -5.96680915303727       19.93939768803011       23.40638528619686
C           -5.80595693472533       19.77185308140869       24.75412464258277
C           -5.94509666200849       18.34339747057539       25.01640213458545
C           -5.97373195164734       16.37955277546142       26.57314939403280
C           -5.86627754646362       15.78802188093445       27.89426159931882
C           -6.04717469074822       14.45914953248009       27.74243173193165
C           -6.26256331487970       14.23063482956871       26.32561009660029
C           -6.48271059523068       12.98490538416677       25.72361666220043
H           -6.50370045660916       12.12311207018070       26.38147728637649
C           -7.02599048441019       13.59617921854237       20.95597442152817
H           -7.21848646786956       12.93668032062558       20.11819764518395
C           -6.40335728052433       18.35517387542939       21.49747332781200
H           -6.39530546194817       19.20010313806088       20.81934909909188
C           -5.84804890786679       17.74257390051054       26.26918727264605
H           -5.64879627935983       18.41518115816863       27.09637054011622
C           -7.33254736291397       10.50295045001669       21.44802135347753
H           -7.72421407450324        9.61092701166388       21.93302968396906
H           -6.41341239544605       10.22286851948032       20.93124439008177
H           -8.05387194118062       10.82217011485934       20.69935284977952
C           -6.97762068675992       10.08982526292439       24.52081534341681
H           -8.01326108345388        9.77887079022689       24.67145287453323
H           -6.49609388986705       10.14062056779310       25.49194766624551
H           -6.48438393565567        9.31197435518322       23.93919212443795
C           -7.26368065678109       14.82093816531431       18.06096591679258
H           -8.33293009637685       14.75609991979065       17.85676554070697
H           -6.86211529905535       13.81145631874276       18.08036969657272
H           -6.80485338093493       15.36154739175411       17.23499446298955
C           -6.87425618147954       17.89198632682219       18.43704616307589
H           -5.94064671108717       18.36663836393532       18.14854028180338
C           -7.99116077606148       18.22242556009542       17.80739534725804
H           -8.93281211487273       17.77561911957781       18.07566054677820
H           -8.01525683060852       18.95490451502774       17.01616966522488
C           -5.90145855480668       21.23113716468611       22.65732696948269
H           -6.88872746056329       21.69130726217375       22.59865346903512
H           -5.54070275830282       21.08706274465020       21.64217823013462
H           -5.23737984586665       21.92959777455149       23.16358261318400
C           -5.51279756890409       20.83006310875010       25.72428896004746
H           -6.28983035937784       21.56727124451281       25.90970375364843
C           -4.34481735224551       20.94789184316911       26.33574549762362
H           -3.55034320400890       20.24715417783880       26.14586814226805
H           -4.13400367153592       21.74193566691156       27.03432830846161
C           -5.60694093241451       16.56472451773809       29.15550780064577
H           -6.38521919992072       17.31058097781101       29.33660755116481
H           -4.65784923613078       17.10430056089578       29.11183095373625
H           -5.57147749460377       15.90747401677909       30.02213603802355
C           -6.03740559524119       13.38127444145035       28.79457062479821
H           -6.21048695941891       13.79761285825180       29.78584393272093
H           -5.08122845913353       12.85054854627233       28.82665501778231
H           -6.80989650102447       12.62971267955262       28.61895697258671
C           -0.91719565714006       14.47284760406497       24.24310882355159
H           -0.26281257824194       15.15000415069808       24.78856697378003
H           -0.36568024585049       14.06262691475555       23.39889629833810
H           -1.20656976573446       13.66017013621461       24.90008328313093
N           -2.08559449579209       16.25892899615078       22.93126134597962
H           -1.24430892682016       16.66924395497828       22.55632578232028
C           -2.13302103474258       15.18005927503704       23.77498737018750
C           -3.35949285366526       16.65012599160419       22.69234644103775
H           -3.60494887860737       17.48924704528316       22.07115172905379
N           -4.20761542568512       15.87926851999811       23.32709157103459
C           -3.46093708182376       14.97051566210531       24.01162886714097
H           -3.94527242055933       14.24175101065928       24.62701477396988
C          -11.68761229956559       17.11539014733650       25.52739781037816
H          -12.04444136023200       16.41170103446058       26.27841876864422
H          -12.51778167909478       17.35738252314805       24.86550593551079
H          -11.36369274694557       18.02046358917799       26.02869704859030
N          -10.69304092840590       15.37759056499750       24.03310445551212
H          -11.53749091324190       14.83552753656006       23.94747275357645
C          -10.55682579138942       16.52896927311203       24.76365578608590
C           -9.49254801543182       15.09666677013976       23.48056243452399
H           -9.31415066499743       14.25545021511432       22.84293453632133
N           -8.60001626839166       15.99020060720277       23.82291197356980
C           -9.24982745033749       16.89892150949798       24.60787914835008
H           -8.73512756831326       17.75202482697338       24.99981847222614
87
 energy: -128.449707981418 gnorm: 0.016556871598 xtb: 6.7.1 (edcfbbe)
Fe          -6.44383814311490       15.72646891212991       23.59467763679045
N           -6.66846358061527       13.67626578818999       23.37473705498958
N           -6.66341372085661       15.93561120256498       21.60085115880485
N           -6.22134319420968       17.69235146875683       23.84162861672965
N           -6.22240880056536       15.42609666836894       25.62895499735373
C           -6.66783837617034       12.73909727291615       24.36470166774326
C           -6.90376799561200       11.42014788859391       23.80435370480490
C           -7.06547963925580       11.59488401079415       22.46142272093660
C           -6.91283337293301       13.01337186936649       22.21102706697276
C           -6.89776620658744       14.95999928384033       20.68229575267689
C           -7.01265878108058       15.53932014824007       19.36020943132972
C           -6.83269089584962       16.88483110066921       19.51347725803676
C           -6.61395337431586       17.11113054282723       20.92815642904088
C           -6.22222866920123       18.62089159087891       22.85102050439165
C           -5.97667853243358       19.93328346065192       23.40634144720633
C           -5.80798460483958       19.76071771681198       24.75146046263053
C           -5.95441574433392       18.33787038800450       25.00764977984727
C           -5.98146575853163       16.39177823418677       26.55406843196394
C           -5.87170944337332       15.80470133871332       27.87594831238401
C           -6.05545400436397       14.46508999982240       27.72091513212519
C           -6.26743585063828       14.24369800608411       26.30336701169131
C           -6.47894262063681       13.00074736585352       25.71423862260878
H           -6.49966892106300       12.14501860798295       26.37715617151601
C           -7.01771819222397       13.60556319669254       20.96100745556596
H           -7.21395638842359       12.94698041970409       20.12542934968545
C           -6.41073448160795       18.35806199963088       21.50020275399397
H           -6.40107795364960       19.20117065511436       20.82186471529059
C           -5.85411889391994       17.74675134316219       26.26014854075250
H           -5.64949036631296       18.41508349856094       27.08768532117150
C           -7.32964006543534       10.52922583398409       21.44977465547757
H           -7.72256581144991        9.63786088685843       21.93441969838817
H           -6.41069110913878       10.25179032880019       20.93102833482902
H           -8.05010938575889       10.85451763996875       20.70265027825608
C           -6.97096809072889       10.11611536944350       24.52976403116217
H           -8.00766882771617        9.80811588115437       24.68014539430574
H           -6.48969299384431       10.16707308672056       25.50148263830037
H           -6.47760847265443        9.33770618363630       23.94910151055425
C           -7.26348254139150       14.81998740998649       18.07810175814003
H           -8.33323105836835       14.74525066955294       17.87789241809125
H           -6.85191154461203       13.81394143415201       18.09608734667313
H           -6.81213899494503       15.36597983123878       17.25137314038529
C           -6.87722651519019       17.89597916412766       18.46126135918699
H           -5.93946285497105       18.37762102785184       18.19936674705245
C           -7.98610713659009       18.22045791735835       17.81421257909442
H           -8.93087813467018       17.76754418746836       18.06457659550356
H           -8.00239439811446       18.95060858078273       17.02231450641011
C           -5.90657870791809       21.22206312654901       22.66031319842824
H           -6.89364022096281       21.68262466207208       22.59676708541247
H           -5.53991593918501       21.07552654940648       21.64743961362318
H           -5.24337226521019       21.91700179010095       23.17227371657739
C           -5.51042853412471       20.80829197567006       25.72317102832784
H           -6.29090035168775       21.54496337738946       25.89118575088191
C           -4.34830291609576       20.92880372408600       26.34563729544265
H           -3.54873021907772       20.22886421580121       26.16912696464810
H           -4.14178069243316       21.73094259468730       27.03478127604136
C           -5.61106178744649       16.56666884013519       29.13305019306048
H           -6.39400867476414       17.30599359708362       29.30535771375498
H           -4.65946878988816       17.09545734449781       29.07603055020238
H           -5.57552419640602       15.90021283220015       29.99140224515687
C           -6.04107573850740       13.39838055079224       28.76918213034045
H           -6.20900154540297       13.82208175830323       29.75711636114411
H           -5.08135697821734       12.87791503184702       28.78677051140023
H           -6.81766608190365       12.65740459601256       28.58468748641917
C           -0.90481986970870       14.47345097347314       24.24766915784332
H           -0.25403432168896       15.15423943964145       24.79354567421297
H           -0.34810053395333       14.06602927384775       23.40494548218851
H           -1.18744892671410       13.65742994975657       24.90376225376431
N           -2.10409408315216       16.24644734810939       22.93845019583469
H           -1.27087309687962       16.67674622490267       22.56620150720214
C           -2.13112883133023       15.16428967590742       23.78025133486894
C           -3.38898128373026       16.60779582137260       22.69646603350345
H           -3.65231733078669       17.44305434364904       22.07871018511052
N           -4.22140880277757       15.81856215144336       23.32702209329278
C           -3.45566611717880       14.92609494688086       24.01206465226488
H           -3.92391796956466       14.18739721693585       24.62778121288846
C          -11.68274865639943       17.11636726054864       25.52107590217690
H          -12.04763955594884       16.41640279033529       26.27248744377202
H          -12.51115107909382       17.36365591532499       24.85843340316909
H          -11.35580940697411       18.02053303683418       26.02245072119371
N          -10.69266806263613       15.37279324418903       24.02981145509734
H          -11.54190186344380       14.83951539015497       23.93292251218240
C          -10.55131523787123       16.52179131030456       24.76403396879286
C           -9.48519210977950       15.07933812184850       23.49471608770597
H           -9.30585886808364       14.23870784535509       22.85761749494482
N           -8.58719407370195       15.96234923820991       23.84768557595034
C           -9.23752465234307       16.87552068329742       24.62540483097940
H           -8.72207718472854       17.72453181884146       25.02364719935336
87
 energy: -128.453845348403 gnorm: 0.014516706433 xtb: 6.7.1 (edcfbbe)
Fe          -6.44157095339579       15.72889952886590       23.59062497827939
N           -6.65579211477974       13.69398726131243       23.37228489406403
N           -6.66314513268432       15.94324788182634       21.61820249111454
N           -6.22356898462162       17.68027606719804       23.83177828845166
N           -6.22167253662108       15.44299952947332       25.60199218944449
C           -6.65464795829478       12.75892909374870       24.35829458079977
C           -6.89140732285142       11.44326110705132       23.80603867201756
C           -7.05517444138799       11.61623219368371       22.46433098897598
C           -6.89981573096772       13.02966435431335       22.21319124821332
C           -6.89376991177975       14.96931349868732       20.69699026742257
C           -7.01670074261421       15.54393258798449       19.37796239813084
C           -6.84151568202745       16.88838951444176       19.53029552988093
C           -6.61865762335557       17.11526286653858       20.93988976872030
C           -6.23512458583354       18.61851238659823       22.84934113558669
C           -5.98746692089629       19.92579275192363       23.40407592961226
C           -5.80684370905434       19.74695628174634       24.74507604220920
C           -5.95591207589808       18.32974272567642       24.99388019951332
C           -5.98649458021572       16.40627850198690       26.52754051947399
C           -5.88001606276776       15.82231193171354       27.84839697955421
C           -6.06347128308611       14.48007263500630       27.69050675567659
C           -6.27087504985982       14.26262936431058       26.27383423865111
C           -6.47323425222979       13.01911365650829       25.70524704162545
H           -6.49291506315608       12.17162813139439       26.37599789797069
C           -7.00881760565755       13.61631199655429       20.96517436452611
H           -7.20626122580697       12.95980257843798       20.13015711235144
C           -6.42246466516364       18.36442216731460       21.50102351285807
H           -6.41577770771120       19.20615446032659       20.82262800828227
C           -5.85618917117896       17.75394662781707       26.24926920190333
H           -5.65151542982016       18.41922265132614       27.07724229037501
C           -7.32532414677066       10.55976932333290       21.44767930442967
H           -7.71997707010594        9.66686606663792       21.92858050969663