87
 energy: -128.366034216677 gnorm: 0.267470299666 xtb: 6.7.1 (edcfbbe)
Fe          70.28400000000001       42.24400000000000        9.51100000000000
N           70.40700000000000       43.98100000000000        8.43400000000000
N           72.25200000000000       42.26800000000000        9.78900000000000
N           70.11199999999998       40.53700000000000       10.58600000000000
N           68.31699999999999       42.26100000000000        9.23400000000000
C           69.38400000000000       44.74199999999999        7.81900000000000
C           69.97000000000000       45.91200000000000        7.14900000000000
C           71.32700000000000       45.91200000000000        7.31900000000000
C           71.60700000000000       44.71200000000000        8.13300000000000
C           73.22199999999999       43.20700000000000        9.33400000000000
C           74.58000000000000       42.84300000000000        9.78100000000000
C           74.43499999999999       41.66799999999999       10.50400000000000
C           73.00200000000000       41.33000000000000       10.50600000000000
C           71.12900000000000       39.82500000000000       11.20400000000000
C           70.64399999999999       38.64800000000000       11.92000000000000
C           69.29400000000000       38.58100000000000       11.76900000000000
C           68.95699999999998       39.78000000000000       10.91100000000000
C           67.36000000000000       41.30600000000000        9.69600000000000
C           65.99800000000000       41.63200000000000        9.28600000000000
C           66.12100000000000       42.79599999999999        8.59700000000000
C           67.52200000000001       43.21700000000000        8.53200000000000
C           68.02000000000000       44.39000000000000        7.86800000000000
H           67.30200000000001       45.04500000000000        7.37400000000000
C           72.91400000000000       44.33600000000000        8.56100000000000
H           73.74200000000000       44.97900000000000        8.26300000000000
C           72.45600000000000       40.20700000000000       11.15200000000000
H           73.16300000000000       39.56200000000000       11.67300000000000
C           67.67100000000001       40.16800000000000       10.46000000000000
H           66.83900000000000       39.51900000000000       10.73300000000000
C           72.33300000000000       46.93000000000000        6.78900000000000
H           72.60500000000000       47.63900000000000        7.60000000000000
H           71.88300000000000       47.49900000000000        5.94800000000000
H           73.25100000000000       46.40700000000000        6.44500000000000
C           69.22300000000000       46.97500000000000        6.37700000000000
H           68.13000000000000       46.84900000000000        6.53500000000000
H           69.44400000000000       46.87700000000000        5.29300000000000
H           69.52500000000001       47.98199999999999        6.73600000000000
C           75.85099999999998       43.63300000000000        9.48400000000000
H           75.83600000000000       44.58700000000000       10.05300000000000
H           75.90600000000001       43.86199999999999        8.39800000000000
H           76.73999999999999       43.04300000000000        9.79300000000000
C           75.40300000000001       40.87100000000000       11.16800000000000
H           75.95000000000000       41.33200000000000       12.00200000000000
C           75.75499999999998       39.53200000000000       10.88100000000000
H           75.26100000000000       38.98799999999999       10.06300000000000
H           76.52700000000000       39.01900000000000       11.47300000000000
C           71.52199999999999       37.65899999999999       12.72000000000000
H           72.48699999999999       38.14500000000000       12.97800000000000
H           71.72600000000000       36.75600000000000       12.10500000000000
H           71.00200000000000       37.37000000000000       13.65800000000000
C           68.49900000000000       37.56000000000000       12.36000000000000
H           69.03500000000000       36.78600000000000       12.92500000000000
C           67.04600000000001       37.38900000000000       12.32300000000000
H           66.41300000000000       38.10900000000000       11.78300000000000
H           66.57100000000000       36.53900000000000       12.83400000000000
C           64.68000000000001       40.88499999999999        9.54600000000000
H           64.13800000000001       41.36999999999999       10.38600000000000
H           64.89400000000001       39.82900000000000        9.81700000000000
H           64.04200000000000       40.92200000000000        8.63700000000000
C           64.92500000000000       43.51200000000000        8.00700000000000
H           64.13700000000000       43.61900000000000        8.78300000000000
H           64.51700000000000       42.92399999999999        7.15800000000000
H           65.22700000000000       44.52300000000000        7.65800000000000
C           70.94499999999999       44.82500000000000       14.50000000000000
H           70.88800000000001       44.12799999999999       15.36300000000000
H           70.35800000000000       45.73900000000000       14.73500000000000
H           72.00900000000000       45.09200000000000       14.32200000000000
N           69.08299999999998       43.71100000000000       13.21700000000000
H           68.41999999999999       43.76899999999999       13.96300000000000
C           70.38200000000001       44.16300000000000       13.28800000000000
C           68.86499999999999       43.19900000000000       12.02100000000000
H           67.91699999999999       42.77300000000000       11.69500000000000
N           69.97700000000000       43.29699999999999       11.31600000000000
C           70.94100000000000       43.89600000000000       12.08500000000000
H           71.93700000000000       44.07600000000000       11.70200000000000
C           72.46099999999998       39.99900000000000        4.86800000000000
H           71.89899999999999       40.20400000000000        3.93100000000000
H           72.73800000000000       38.92400000000000        4.89400000000000
H           73.37700000000000       40.62800000000000        4.88400000000000
N           70.39599999999999       39.70700000000000        6.27700000000000
H           70.02199999999999       38.96600000000000        5.72000000000000
C           71.60500000000000       40.32700000000000        6.04300000000000
C           69.82400000000000       40.24700000000000        7.34200000000000
H           68.85899999999998       39.94400000000000        7.74600000000000
N           70.62000000000000       41.19300000000000        7.80600000000000
C           71.74299999999998       41.25800000000000        7.01500000000000
H           72.53700000000001       41.96500000000000        7.22100000000000
87
 energy: -128.430753383753 gnorm: 0.118448966620 xtb: 6.7.1 (edcfbbe)
Fe          70.27862055872694       42.25290654909115        9.51242670200263
N           70.42974812778255       44.00470623095215        8.42763680018672
N           72.27078571403287       42.27406316046834        9.79856196799569
N           70.09926012826492       40.50931268653867       10.59830910374167
N           68.28881483690283       42.25375782962016        9.22195332391806
C           69.39999370643241       44.72240143580382        7.83131372879754
C           69.96286321439496       45.88531140691001        7.15162249025678
C           71.31716410362323       45.89667373598577        7.34112268990615
C           71.60711647957716       44.70305144687156        8.13944678282430
C           73.20726414633882       43.20259330013140        9.34039508473039
C           74.55249009896478       42.83590963551279        9.78426044185977
C           74.41940070729002       41.65893806980345       10.49102251848369
C           72.99473787257160       41.32949993672075       10.49208793816481
C           71.12957290129737       39.82792007371841       11.20370939399853
C           70.64617023939640       38.65966288152169       11.91587651381723
C           69.27672995453595       38.60318279962687       11.75366941613801
C           68.95196216081429       39.78886574812802       10.90850505753443
C           67.37512373962963       41.30247344286700        9.68887476969578
C           66.02149866087456       41.63993245953984        9.28280071034924
C           66.13055603489546       42.81134490704145        8.59028674656167
C           67.53091053347015       43.20765936343244        8.53632940248544
C           68.04565289136895       44.35768787826922        7.89075492203785
H           67.32814004957685       45.01278942131173        7.39436989356143
C           72.89159343099648       44.32319260602262        8.56735645183557
H           73.71805775556786       44.96602116056975        8.27096127368760
C           72.46066317507680       40.21661351968895       11.14340376352535
H           73.16945699642172       39.57779551871502       11.66208941472249
C           67.68911632534446       40.17632168376406       10.45513803141349
H           66.85622060055982       39.53772126358414       10.72501369671720
C           72.31420503963353       46.90496800963037        6.80721312193331
H           72.59863670145843       47.62197972899150        7.58970518998105
H           71.88821628082563       47.47514480289701        5.97178797312126
H           73.22914591245792       46.41242272702344        6.45468457476503
C           69.21876126139490       46.95270362180686        6.38892738504654
H           68.13836446142466       46.85321196963269        6.52869208385342
H           69.43660350872975       46.87927673709112        5.31454524288513
H           69.51718300956594       47.95424102462004        6.72860085520469
C           75.81916184984041       43.61575079546949        9.49104851833009
H           75.82905784518570       44.56655874109199       10.04284229319408
H           75.90020265146366       43.85238879848703        8.42170199160542
H           76.71032972833015       43.04754621555004        9.78651237746238
C           75.41628624294754       40.85061673693606       11.15842785576663
H           75.95659662323054       41.32326098378214       11.98306441746605
C           75.73959457649087       39.56613325497772       10.88736836194444
H           75.26452842223780       39.01558052567442       10.08101993858786
H           76.50103915386975       39.04536106976794       11.46168373050107
C           71.51005556121353       37.68359498085613       12.70399817118251
H           72.46942093874200       38.13783244518952       12.97284843233427
H           71.71646554236476       36.77974150123231       12.11426875431469
H           71.01031786415265       37.38104877214909       13.63258987619501
C           68.45677826689780       37.57627809470743       12.34124862924649
H           69.00549563607947       36.81364878517581       12.90185997349530
C           67.09454452297420       37.40199202568480       12.31854033213282
H           66.43826584234409       38.08965555484044       11.80073332730294
H           66.61659786229819       36.56558983143174       12.82173525418174
C           64.71913807032533       40.89790127977856        9.54604651507739
H           64.15901603704724       41.36374641585456       10.36988521248767
H           64.89551003505453       39.84926757461620        9.81034391004930
H           64.07187120193399       40.92405959822363        8.65871247649274
C           64.94039699738113       43.52068159070534        8.00641247199910
H           64.15350091407517       43.62107931678749        8.76576542935852
H           64.52582804080301       42.94283928028891        7.16967936225254
H           65.21544280279723       44.51743367270036        7.65359453952598
C           70.94273081257896       44.82374544392567       14.50491323566143
H           70.89193767415038       44.14226532960808       15.36223708415043
H           70.37291132558164       45.73047866703358       14.74125479655268
H           71.98870544361222       45.08986690383211       14.32727966133576
N           69.08663575104069       43.72085071676693       13.23110527555373
H           68.41813575755693       43.77611382697351       13.97883485364199
C           70.38199805407015       44.16823060634065       13.29533242188996
C           68.87860393869917       43.19973591721035       12.01681718582223
H           67.94089005382843       42.77762391984849       11.69384004987072
N           69.97855462534338       43.28694344651775       11.30158119532895
C           70.92741993828473       43.89106643941171       12.07893974793979
H           71.91763222005612       44.07082319067855       11.70167456002705
C           72.45862877614175       39.99537073465708        4.86637001645040
H           71.91314374682861       40.19686404523207        3.93594598310321
H           72.74185789739821       38.93672648151894        4.88490504338665
H           73.36152360510897       40.61273548684774        4.88378840803712
N           70.39997581658645       39.70159014707870        6.26272976195455
H           70.02221533092425       38.95639009789583        5.70558492899772
C           71.60140171414452       40.32539502102767        6.03435716650842
C           69.83308588412123       40.25287464287767        7.34523232517292
H           68.87822615291782       39.95481893968577        7.74686711108549
N           70.61565267740632       41.19521297659806        7.82318274051265
C           71.72429861562017       41.25639227697634        7.01932072699988
H           72.51558963769732       41.95603812559320        7.22051810978927
87
 energy: -128.449528775512 gnorm: 0.042736543479 xtb: 6.7.1 (edcfbbe)
Fe          70.27797266196768       42.26009811287749        9.51390738898968
N           70.44347321213120       44.01703596217962        8.42675976806431
N           72.28603288852145       42.27578357194287        9.80535330027591
N           70.09263119982829       40.49008224108743       10.61143272253575
N           68.27115476514022       42.24712857533322        9.21322351292257
C           69.41786680408359       44.70747358775905        7.84784170336935
C           69.95328183775288       45.88299058227199        7.17309972063063
C           71.30887362266283       45.85608311531531        7.34489030659415
C           71.59734774096536       44.68528157110663        8.15357888671683
C           73.19034581253332       43.19650977359623        9.35474903255935
C           74.52951243155837       42.83060830697315        9.78496434164419
C           74.40358975583217       41.65770583988066       10.48109105919368
C           72.98611679606336       41.33088029817372       10.48320220089133
C           71.12909153068257       39.83209971590428       11.20269727213718
C           70.64836416000306       38.67281745908846       11.91254551809089
C           69.27382347861180       38.63040601843849       11.73800290106228
C           68.95795227421300       39.79735102088874       10.90368984053836
C           67.39231258984893       41.30407486734002        9.67680150863710
C           66.04353530280295       41.64827114017487        9.27638177400284
C           66.14053878541635       42.82364219409340        8.58369986939852
C           67.54492386803918       43.19227209214424        8.54068499491346
C           68.07411139059444       44.32396920741646        7.91221827600098
H           67.35932750645092       44.97729068317605        7.41630056872139
C           72.86717245987963       44.31003848851049        8.58271485223606
H           73.69107802587989       44.95027508545937        8.28304134989547
C           72.46261951608486       40.22471753580133       11.13570888976792
H           73.17503837702517       39.59253382715172       11.64978702742088
C           67.70710800783587       40.18526294182320       10.44585849556670
H           66.87088422951942       39.55848999595133       10.71598799617069
C           72.29491526976236       46.86634391222385        6.82551214212786
H           72.58107901516556       47.58457714209315        7.59798003915458
H           71.87386290441300       47.43750776129874        5.99794090406132
H           73.20721502048848       46.39097748088292        6.46772504197075
C           69.21038337346414       46.93573034665005        6.40358391626435
H           68.13745916466986       46.84633837023890        6.53383816380768
H           69.43111632148731       46.86459213751839        5.33614676201299
H           69.51348881725814       47.93043101423076        6.73307960466150
C           75.78739473758301       43.60063906932294        9.49613665374758
H           75.80318268521742       44.54753135434179       10.04102598906946
H           75.87703536596631       43.83549689538532        8.43481578372488
H           76.67049432968116       43.03433098776645        9.78920619239261
C           75.42610243788205       40.84991017957563       11.15071147613544
H           75.96001209623040       41.34346745636606       11.96122323760293
C           75.72894050969720       39.59744880117177       10.88388819107935
H           75.25682546956580       39.03787500626659       10.09223635597969
H           76.47891745876730       39.06431389049467       11.44861725443786
C           71.49542554084488       37.70778991981260       12.68874403483982
H           72.45117902911454       38.14861811013300       12.95955854843175
H           71.69971094631509       36.80613949836509       12.10713250020481
H           71.00222108458506       37.39928554114657       13.61024573302343
C           68.43514747635771       37.59824881481223       12.32394934721354
H           69.00390532584696       36.84770468510661       12.87414642887080
C           67.13279882599490       37.42528656878449       12.30655866431199
H           66.44732840265277       38.08557497383398       11.80595379362213
H           66.66035534150174       36.59302947679611       12.80727038999742
C           64.76046693833283       40.91006947076050        9.54461445955505
H           64.19820070330654       41.37106872683781       10.36139289250236
H           64.92520765090143       39.86757081896980        9.80563345616381
H           64.11381797317433       40.93304484063109        8.66548095802082
C           64.95899612612087       43.53253586856918        8.00369500021187
H           64.17447635423548       43.62722941407350        8.75565762139401
H           64.54190541256247       42.95852634122645        7.17398533212679
H           65.21734734180092       44.52176272389451        7.64632298135702
C           70.94289335744421       44.82422521648970       14.50657161561470
H           70.89403910918925       44.15178272767544       15.36126593978348
H           70.38334192116075       45.72683615177149       14.74699937645324
H           71.97893262523856       45.08979252299730       14.33034791794683
N           69.08815438790607       43.72910084482803       13.23957435211262
H           68.41562499482423       43.78240544910586       13.98707726383139
C           70.38205712313852       44.17291046322020       13.29711711609577
C           68.88904673818774       43.19743025249794       12.01468463627085
H           67.95840217272132       42.77748955677675       11.69525993426398
N           69.97950617689899       43.27323213846640       11.29203418742162
C           70.91619136423834       43.88482950411932       12.07302904198700
H           71.90337239921350       44.06796698857654       11.70250234685464
C           72.45721865615894       39.99429979170694        4.86571579043598
H           71.92437984635475       40.19074932671410        3.93619322299091
H           72.74404806116983       38.94451517194013        4.88153041321485
H           73.35352378096451       40.60391435106114        4.88699020773336
N           70.39866899461956       39.69777187582930        6.25149537206403
H           70.01791624883052       38.94993584034816        5.69567339801725
C           71.59464112556779       40.32643276765978        6.02743605884623
C           69.83886562497064       40.25406720800056        7.34895760495292
H           68.89237697930731       39.95817385464086        7.75126169873827
N           70.60900177439225       41.19565842029645        7.83507959285578
C           71.70614209164594       41.25443396704798        7.02245359683014
H           72.49665796297940       41.94987419678819        7.21452438565745
87
 energy: -128.454263434142 gnorm: 0.015222025108 xtb: 6.7.1 (edcfbbe)
Fe          70.28073061534334       42.25923277259226        9.51580436021088
N           70.44267557536149       44.00497065326498        8.44488349871506
N           72.27902013280702       42.27635512136160        9.81425662238694
N           70.10071695610918       40.49576393234342       10.60528411389829
N           68.28327297276678       42.24064623564254        9.20397824279306
C           69.42278167437065       44.69056020734746        7.86436855558593
C           69.94781385739014       45.86183429830100        7.18343482426797
C           71.29980383146886       45.84070282146406        7.36289848232362
C           71.59011368722292       44.67146526890485        8.16541559995825
C           73.17711921115531       43.19445059760073        9.36388048854345
C           74.51454271956851       42.83184764007281        9.78720798556790
C           74.39497397252225       41.66371194921878       10.48203375342353
C           72.98150456400988       41.33144655968066       10.48320352553757
C           71.13291045617557       39.84104337646232       11.19799653865819
C           70.64919286748426       38.68832576911877       11.90621101389266
C           69.28015026317328       38.65112768389045       11.72519523914694
C           68.96651365021008       39.81010738856578       10.89576402434437
C           67.40620383803270       41.30527475183931        9.66420092910153
C           66.06095170099380       41.65441425290625        9.26583974985945
C           66.15430485435283       42.82867848702710        8.57581745899103
C           67.55883689357715       43.18374053007953        8.54001040820699
C           68.08584497838530       44.31094764328305        7.92142190737911
H           67.37603423979701       44.96063280289372        7.42314620302026
C           72.85870093997458       44.30468966827244        8.59287268811460
H           73.67920369917076       44.94626646436984        8.29702545269615
C           72.46571379181597       40.22630333479034       11.13276951341934
H           73.18211738886694       39.59678491090909       11.64212147367459
C           67.71533610574043       40.19179459579690       10.43576984793477
H           66.87837004902187       39.57026093041785       10.70804171497797
C           72.28524732216935       46.83943590325352        6.84442673362278
H           72.56634807971473       47.55255589143655        7.62196475109737
H           71.85614316682887       47.40162699488470        6.01670251224603
H           73.19358388503365       46.35598606826439        6.48933104823244
C           69.19791192200182       46.90695394994592        6.41867591588162
H           68.12441049939274       46.81612000969754        6.54830238829705
H           69.42079005113978       46.83550558396884        5.35231185565851
H           69.49945360813969       47.90139474959663        6.74874158620495
C           75.76511982699074       43.59548952680331        9.49699458461283
H           75.77556499440561       44.54141807857764       10.04149974060917
H           75.85064159686986       43.82151789419956        8.43447047417707
H           76.63821311861486       43.01867878576083        9.79566388849440
C           75.42818033737092       40.87075938791876       11.14889340525987
H           75.97678651332176       41.38102457401529       11.93792474071197
C           75.71732214118383       39.60582576488196       10.88319607523436
H           75.23148750499418       39.05207021894221       10.09651401423468
H           76.47618629400701       39.07193408872724       11.43395245066525
C           71.48840364627284       37.72497870580008       12.67943022143520
H           72.44450018051832       38.16555236636067       12.94937960587953
H           71.68588471884206       36.82626689455908       12.09183579045257
H           70.98921373315457       37.41918175874003       13.59779310718324
C           68.44617741581651       37.61842460780652       12.30683981934039
H           69.02464752900644       36.87399776756082       12.84929895323706
C           67.12438640948530       37.43967558810963       12.29624234851672
H           66.42601524771862       38.09434875673590       11.80537264939565
H           66.67252577088078       36.60004167235238       12.80094614580537
C           64.79095920997234       40.91571925987394        9.54299715063605
H           64.23950896827215       41.38205858695706       10.36263416614247
H           64.96765275571194       39.87590823502808        9.80410726509869
H           64.14767322788461       40.93942951269916        8.66315511368321
C           64.98188005922808       43.54904901108309        7.99550675897857
H           64.19805919981600       43.64632938965754        8.74743691529715
H           64.56307040107119       42.97881238875568        7.16412212605519
H           65.24127201995731       44.53889692658257        7.63668982837813
C           70.94526060773512       44.82776342418570       14.50589790354169
H           70.89696002712867       44.15626500333238       15.36233439128278
H           70.38945206873427       45.73218500103502       14.75102744935262
H           71.98198943054490       45.09240503450780       14.32957959264243
N           69.08827222843520       43.73299677824884       13.24147810448138
H           68.41531593552132       43.78862313725334       13.98860180341936
C           70.38260827700582       44.17689524628607       13.29587883534480
C           68.89195492823252       43.19223620197977       12.01867907204617
H           67.96317714980914       42.76790760631781       11.70136337511193
N           69.98070395296918       43.26478998408639       11.29392379017243
C           70.91488035824277       43.88233834292993       12.07253806258854
H           71.90152631517492       44.06754886803740       11.70307700979633
C           72.45381217393312       39.99335124447936        4.86546122513589
H           71.93104898916691       40.18572380037596        3.92863338316683
H           72.74405809029140       38.94386109367116        4.88428186116770
H           73.35074311907533       40.60273788416041        4.89325723684892
N           70.38984694416166       39.69468791673828        6.24708991573029
H           70.00921618415811       38.94612513109435        5.69171932629057
C           71.58363550199878       40.32797156071912        6.02182260442784
C           69.83472261501079       40.24679521667571        7.35063903261211
H           68.89276191509182       39.94675217982229        7.75934555830148
N           70.60153173213078       41.19081290403884        7.83636097700339
C           71.69254396210664       41.25534020592929        7.01747938021590
H           72.48130065068320       41.95353668613964        7.20332176193268
87
 energy: -128.456599007424 gnorm: 0.012398528803 xtb: 6.7.1 (edcfbbe)
Fe          70.28270324634947       42.25679093357818        9.51777763671846
N           70.43913255239157       43.98322100005437        8.46400844783199
N           72.26707632519022       42.26996231643741        9.81829859678693
N           70.10924037791251       40.50862942215173       10.59504202091185
N           68.29911916899927       42.23986548623395        9.20195365267875
C           69.42556466383920       44.67101209888123        7.87953289052036
C           69.94270102627063       45.83960350696834        7.19779225225403
C           71.29194836584664       45.82340867070972        7.38085528939627
C           71.58216546437444       44.65926460104333        8.18584484812529
C           73.16286344883837       43.19119415175319        9.37459430090142
C           74.49983377547709       42.83542401847260        9.79385390016133
C           74.38749433320116       41.66636123771437       10.48367162300075
C           72.97623896021902       41.32837919368149       10.48526913823900
C           71.13385382165781       39.84968996148724       11.19299538562416
C           70.64508290586322       38.70173328034947       11.89996970831766
C           69.27965414337051       38.66997972903067       11.71360331947611
C           68.97456522720277       39.82350794712747       10.88407869768235
C           67.41901365124038       41.30686513462781        9.65372685694749
C           66.07624663746230       41.65809528290190        9.25444940734751
C           66.16884734675619       42.83153597699787        8.56820373222841
C           67.57226349172232       43.17767614531198        8.53815670913018
C           68.09241282762555       44.30235248859982        7.92300020780644
H           67.38786878759008       44.95167922483781        7.42318014053051
C           72.85228934502713       44.30369076169729        8.61031811237687
H           73.67041759837250       44.94623363812103        8.31744571587574
C           72.46742283267531       40.22354651758769       11.13313138374103
H           73.18708115512476       39.59532528450544       11.63788106249693
C           67.72130511682690       40.19554727000769       10.42463631440702
H           66.88698258684389       39.57421988071039       10.70055400140502
C           72.28042410918988       46.81196392559636        6.86350406418556
H           72.56112090213077       47.52007984091264        7.64535455063287