78
 energy: -116.057559872596 gnorm: 0.000156552706 xtb: 6.7.1 (edcfbbe)
Fe          -0.57997258461583       36.31508763147087       24.50912651053419
N           -1.68327443043926       34.93533762401553       23.54112032234611
N           -2.02747235091637       37.65881302605040       24.24123729079057
N            0.47907609127125       37.63487201460916       25.55549820140642
N            0.86360327109878       34.94099391637292       24.78160486912625
C           -1.32377594058448       33.65733398376941       23.24311201071504
C           -2.38259101533905       32.98294313417225       22.52698288127518
C           -3.39160821454228       33.88627649007908       22.39414123339189
C           -2.93250009440517       35.10319538141121       23.02401964415481
C           -3.22032244516593       37.46716301436359       23.61653583990370
C           -3.97716012604451       38.69123619929876       23.57321565877852
C           -3.19555842006894       39.64916009211621       24.15982852983471
C           -1.99157519649701       38.96802370057696       24.59674803619103
C            0.12432483107481       38.91737508199257       25.83595557420827
C            1.11693896168240       39.55574113574217       26.66410078123942
C            2.10032820978046       38.62591058844053       26.87119765895896
C            1.67209283633794       37.43064422319443       26.16816254967984
C            2.04791765746719       35.12258763152079       25.42601266896727
C            2.86508754545604       33.93379356826598       25.33783437376417
C            2.14607414662128       33.02834740545899       24.62058178701644
C            0.89873684507585       33.67564285699905       24.28222773054719
C           -0.11811097464010       33.06547970671761       23.57219321733071
H            0.04095137372368       32.04815374881768       23.24937833507812
C           -3.66140522790559       36.27544236645207       23.06496482258710
H           -4.64218660228253       36.26888091027480       22.61408007654181
C           -1.01287800378665       39.55389788115618       25.37443647537008
H           -1.16136666245108       40.58312062185323       25.66116927792696
C            2.42503179841105       36.27266509084658       26.09389106908636
H            3.38633110023963       36.26749758799755       26.58465042721538
C           -4.72299976466832       33.72741800503626       21.74321229347002
H           -4.84935327402235       32.71706042968208       21.36210948407644
H           -4.82990346307158       34.42345000542587       20.91056397705111
H           -5.52399205873432       33.92835106796105       22.45495622237823
C           -2.31377312038940       31.56949527498244       22.05946969429775
H           -2.16845772700662       30.89277820035374       22.90197058632925
H           -1.47958239714659       31.43410756511237       21.37065253804581
H           -3.22995329069780       31.28605883484908       21.54723097212822
C           -5.32082405045449       38.84546152390291       22.94795715480439
H           -6.02925436505552       38.13974594004647       23.38237772182471
H           -5.27226076495136       38.65601057145486       21.87469813413700
H           -5.69829799486297       39.85382610796409       23.09735346736648
C           -3.50836223084138       41.05539884023273       24.30769638620147
H           -4.54861378905983       41.27955722575348       24.51879417160778
C           -2.64930052162297       42.05847820094274       24.16534256343253
H           -1.61771820988364       41.89406799697672       23.90365947887361
H           -2.95596593103922       43.08460379609301       24.28409887422357
C            1.01219721325072       40.93349697222060       27.21772684654802
H           -0.01683700827468       41.15975125980923       27.49195437283662
H            1.33683739883790       41.67386910552185       26.48452920017230
H            1.63877744960276       41.02891646834865       28.10228988815000
C            3.31661373834181       38.73381376244836       27.64572247216178
H            3.64124762823430       37.82303693622707       28.13584949204768
C            4.04590105396909       39.83581504334162       27.78945496884668
H            3.79830622474927       40.75596687370260       27.28980864536435
H            4.93581181445646       39.84712017822802       28.39685746365067
C            4.22072875312735       33.79950290660379       25.94196946504416
H            4.17257454050844       33.92485111827464       27.02407668955849
H            4.89464430352715       34.55867107290561       25.54441630851126
H            4.64391483156254       32.82068195833217       25.73006027906991
C            2.50405947732564       31.63577648481547       24.22854836672345
H            1.79379194946010       30.92319512348063       24.64917787552864
H            3.49829976199349       31.37722432063809       24.58442400660424
H            2.48845042228608       31.52741813751455       23.14387359488208
O           -1.54029182070592       35.50419564434935       26.42776473019749
H           -0.83317804610893       34.92482410203416       26.73216897165912
H           -2.21979426622308       34.94218296568850       26.03943797311857
C            3.00968018244859       37.89907574991320       20.55300845997283
H            2.90822250493062       38.90350201418877       20.14214361043658
H            3.19706087200611       37.21103792802433       19.72866699308250
H            3.86410738992159       37.88167197921695       21.22220912529102
N            0.55244698360185       37.44103404649934       20.70718699031598
H            0.35089186735013       37.64304701249286       19.74170900405105
C            1.78663213125265       37.50851191828394       21.29879112825855
C           -0.33513428856538       37.05981435408608       21.65330646653838
H           -1.38185149523233       36.92387323906760       21.47484854918412
N            0.26183449316783       36.88195054267063       22.80679940115247
C            1.58198697757477       37.15720529715349       22.60230702111812
H            2.29094353658810       37.08447928312595       23.40076006570001
