72
 energy: -105.980606903793 gnorm: 0.000110594736 xtb: 6.7.1 (edcfbbe)
Fe          32.42725177558918       64.77341953767339       21.23774722668449
N           34.01640791009566       63.61265751379940       20.94912028791859
N           32.34099561854509       65.14735298325235       19.26033930533665
N           30.85274412876317       66.00299312322406       21.52654376082797
N           32.55217911628480       64.48069791312777       23.20261294088052
C           34.69403783410288       62.91489132180362       21.89391396199166
C           35.78277105646614       62.16916054712381       21.29884989954481
C           35.75412513369086       62.44878856449881       19.96958682448622
C           34.64166075807046       63.35325254735198       19.77054041796919
C           33.19626748633227       64.68778034143007       18.30420892121441
C           32.81033053806268       65.16174412936981       17.00185828934849
C           31.68455818340472       65.92176411844395       17.18510303742553
C           31.41946024684809       65.90763336780249       18.60893442827329
C           30.10716415448441       66.61642489805830       20.56348643905686
C           29.02920794767532       67.36565597072972       21.15279660174384
C           29.14096305852696       67.19971508882816       22.50845303718455
C           30.27860072701416       66.32784115864965       22.71368158403653
C           31.77084147420976       65.03301309098957       24.16641866116647
C           32.16727709781007       64.56434172365135       25.47753770682010
C           33.19779169562430       63.70211633267423       25.27723256463080
C           33.42529215598319       63.66713928404089       23.84826316920602
C           34.41714576682026       62.91884286680099       23.24723491088028
H           35.03977641021453       62.31121223555293       23.88523526081709
C           34.27566346950834       63.85272203908494       18.53741102036120
H           34.86815752180593       63.55720749816470       17.68568087421814
C           30.36187348452876       66.56884734449702       19.20407981748389
H           29.69022120199117       67.11105044784489       18.55732471231508
C           30.72015459045675       65.90339103179733       23.95281989742196
H           30.18829836059490       66.26043273984787       24.82060853793988
C           36.64663795637161       61.96253630754764       18.88032674100081
H           37.40717453258114       61.29330846592977       19.27443857939426
H           37.14645488881981       62.80004784041252       18.39346552174094
H           36.07387361847308       61.42410853385344       18.12461311344908
C           36.71669228137707       61.29474669121683       22.06169943375225
H           36.16752590123697       60.51457648966787       22.58910611359501
H           37.26828426015749       61.87776697920729       22.79930618626902
H           37.43280919391653       60.81970873300068       21.39581062502477
C           33.55960724769312       64.90620447953951       15.74162307339075
H           33.30309557933257       63.93028236487862       15.32575546900897
H           34.63328479052991       64.92402579112401       15.92209817168790
H           33.31722199532034       65.66779366069211       15.00329993657288
C           30.89979661095189       66.64359098163750       16.20761270114976
H           30.46110861754032       67.57309601771722       16.55162377166728
C           30.68058190295647       66.25153628608805       14.95711073941545
H           31.05171496145072       65.31619537743464       14.57596822706983
H           30.09559550531349       66.84609357835271       14.27543414211069
C           27.98504023412483       68.10555698497103       20.39295186511155
H           27.70324414165825       67.56006172488830       19.49345422808085
H           28.34537827478835       69.09074541772689       20.09172250390682
H           27.09980958546585       68.23855959554106       21.01124452049537
C           28.30695411572892       67.72779976086983       23.56587051314816
H           28.18178615433058       67.08386278588426       24.42824049584590
C           27.71058266355462       68.91506408506702       23.55401998435086
H           27.83812946036004       69.61320081716600       22.74506447004871
H           27.09052712524853       69.24154194317757       24.37216172196433
C           31.51701055833635       64.98287289634960       26.75068395689969
H           30.46705355823710       64.68936895610196       26.75787353497908
H           31.56700958369368       66.06531658343620       26.86977198430542
H           32.00697780356727       64.52136892204526       27.60424757834111
C           33.98668247740394       62.92286698484899       26.27169921926638
H           33.90390658184317       61.85437761946707       26.07251095928049
H           33.63038321190201       63.11155440703848       27.28122495639670
H           35.04082635563511       63.19615260779485       26.22236782569884
O           33.69899582890662       66.60882195704696       21.43627833781272
H           33.54179492403153       67.03933552015189       20.58826844219085
H           33.21099668800679       67.10584491097140       22.10246038286468
C           31.57439037117665       61.80044761477425       19.81236382218280
H           30.77536319376270       61.14744768318652       19.47496648761766
H           32.33117255967688       61.22673870542225       20.33710590242379
H           32.02679289420461       62.33305850781753       18.98295916731714
S           30.89983763465692       62.99846722857023       21.01581853968246
H           30.07967527216768       63.59485744122534       20.14375195628564
