72
 energy: -105.863545518482 gnorm: 0.310561934304 xtb: 6.7.1 (edcfbbe)
Fe          22.01600000000000        7.73200000000000       43.05100000000000
N           23.78700000000000        6.77900000000000       43.42700000000000
N           21.47300000000000        7.35100000000000       44.91600000000000
N           20.21500000000000        8.48200000000000       42.61500000000000
N           22.55600000000000        7.82100000000000       41.11700000000000
C           24.93200000000000        6.68600000000000       42.60500000000000
C           25.98100000000000        5.95800000000000       43.25500000000000
C           25.56900000000000        5.64100000000000       44.51700000000000
C           24.20400000000000        6.14000000000000       44.61199999999999
C           22.21500000000000        6.78300000000000       45.99399999999999
C           21.44200000000000        6.76100000000000       47.25300000000000
C           20.31000000000000        7.31500000000000       46.96299999999999
C           20.33100000000000        7.70500000000000       45.55200000000000
C           19.18700000000000        8.71700000000000       43.49000000000000
C           18.06100000000000        9.46400000000000       42.84700000000000
C           18.45900000000000        9.61700000000000       41.51299999999999
C           19.76800000000000        9.02100000000000       41.38100000000000
C           21.77100000000000        8.24400000000000       40.06800000000000
C           22.50000000000000        8.18100000000000       38.84300000000000
C           23.71400000000000        7.71000000000000       39.12899999999999
C           23.74800000000000        7.49800000000000       40.56000000000000
C           24.81800000000000        6.87100000000000       41.26199999999999
H           25.64000000000000        6.49600000000000       40.65300000000000
C           23.45600000000000        6.14000000000000       45.84900000000000
H           23.87400000000000        5.61700000000000       46.70900000000000
C           19.27000000000000        8.36900000000000       44.84300000000000
H           18.40500000000000        8.64000000000000       45.44700000000000
C           20.49100000000000        8.84900000000000       40.20500000000000
H           20.02700000000000        9.21700000000000       39.29000000000000
C           26.38700000000000        4.98800000000000       45.70100000000000
H           26.55200000000000        5.74400000000000       46.49900000000000
H           27.37300000000000        4.63700000000000       45.32700000000000
H           25.81600000000000        4.13500000000000       46.12600000000000
C           27.39800000000000        5.68900000000000       42.72200000000000
H           27.57300000000000        6.29900000000000       41.81000000000000
H           27.50300000000000        4.61400000000000       42.46200000000000
H           28.14800000000000        5.96900000000000       43.49200000000000
C           22.04000000000000        6.23700000000000       48.64200000000000
H           22.66500000000000        7.03300000000000       49.10000000000000
H           22.67100000000000        5.34000000000000       48.46400000000000
H           21.21000000000000        5.98600000000000       49.33700000000000
C           19.15500000000000        7.67500000000000       47.81600000000000
H           18.22300000000000        7.96800000000000       47.31200000000000
C           19.11500000000000        7.68500000000000       49.13999999999999
H           20.00200000000000        7.40600000000000       49.72700000000000
H           18.19400000000000        7.97200000000000       49.66900000000000
C           16.81600000000000       10.07000000000000       43.68100000000000
H           17.19800000000000       10.66000000000000       44.54100000000000
H           16.18300000000000        9.24200000000000       44.06499999999999
H           16.21400000000000       10.73600000000000       43.02600000000000
C           17.70000000000000        9.93500000000000       40.38100000000000
H           17.69400000000000        9.18100000000000       39.58499999999999
C           16.96000000000000       11.03200000000000       40.09700000000000
H           16.88800000000000       11.85900000000000       40.81900000000000
H           16.42200000000000       11.11000000000000       39.14100000000000
C           21.93600000000000        8.64100000000000       37.45100000000000
H           21.84000000000000        9.74800000000000       37.43699999999999
H           20.93400000000000        8.19000000000000       37.28400000000000
H           22.63200000000000        8.33000000000000       36.64300000000000
C           24.87200000000000        7.51200000000000       38.12400000000000
H           24.89700000000000        8.36600000000000       37.41400000000000
H           24.71600000000000        6.57300000000000       37.55200000000000
H           25.83900000000000        7.46800000000000       38.66900000000000
O           21.11700000000000        5.61900000000000       42.69800000000000
H           20.79600000000000        5.32300000000000       43.54999999999999
H           21.07400000000000        5.16700000000000       41.93399999999999
C           24.29000000000000        9.94900000000000       43.94600000000000
H           24.51900000000000       10.77200000000000       44.65700000000000
H           24.86000000000000       10.13500000000000       43.01100000000000
H           24.63800000000000        8.99700000000000       44.40000000000000
S           22.56800000000000        9.86400000000000       43.60100000000000
H           22.23000000000000        9.42900000000000       44.80600000000000
72
 energy: -105.933176225624 gnorm: 0.128134799650 xtb: 6.7.1 (edcfbbe)
Fe          22.00254561880897        7.66859847833430       43.04237945075560
N           23.81394809594492        6.78249069189123       43.46527162079947
N           21.48163927674819        7.35487530179599       44.95634854086256
N           20.20629654155661        8.48650647491735       42.61826573753954
N           22.55316459426931        7.83080397365829       41.10967519104949
C           24.90326869820969        6.63873251223268       42.60437400342902
C           25.99027638523331        5.96308933093852       43.27147233394312
C           25.56478629759035        5.65136785681120       44.53353560353796
C           24.20969574886657        6.16248630045668       44.63454793694127
C           22.22128685355791        6.75367845258730       45.98778092596586
C           21.47240070103040        6.76622034701023       47.24940907097879
C           20.28719802629690        7.34624764922305       46.95840485366655
C           20.30594651734067        7.70995468279539       45.53892384313087
C           19.20381024394320        8.74299861887541       43.50750821694064
C           18.08582360016207        9.47245913758869       42.87221835763669
C           18.45654162375680        9.59410068881110       41.53971168741364
C           19.76916577446564        8.98636422991308       41.39701764442627
C           21.76650983125417        8.27367674253608       40.07757006087066
C           22.48635128252849        8.19460494728176       38.83318598769035
C           23.72284338281972        7.71293112174547       39.12325184537124
C           23.74577712292266        7.47967133324699       40.55510183049349
C           24.81026375370730        6.87496507059633       41.24907112656223
H           25.64155096264432        6.52331475634690       40.64605029614000
C           23.45626549894572        6.14592110767020       45.82840745894607
H           23.87728911666767        5.63114735344224       46.68473610221891
C           19.26640906750697        8.37131906929593       44.84995841391444
H           18.40238343767850        8.63720023893637       45.44526069249091
C           20.49036659848550        8.84340269299444       40.21966552077127
H           20.03155099644569        9.21515324725477       39.30718354279655
C           26.36328524325211        5.00181617903954       45.67455235290677
H           26.54030427156026        5.73400823468120       46.47436559909075
H           27.33976067757328        4.64703626612650       45.32303228857118
H           25.82059209467619        4.15322192711606       46.10805069437128
C           27.37908926325224        5.69802509470511       42.72213165221718
H           27.56910144998263        6.29117013849837       41.82129645653625
H           27.49913742476011        4.63597512799905       42.46966509539676
H           28.13164479686691        5.96379483889029       43.47448603228093
C           22.03103971804132        6.24590172965448       48.59795611208501
H           22.64821641483314        7.02040581759570       49.07372824668004
H           22.65514782279710        5.35762924281397       48.45408151764524
H           21.22827128171963        5.98291644041959       49.29699290409511
C           19.14567255948867        7.67318740040993       47.81329719577283
H           18.22974720141767        7.96254190585158       47.30442342898704
C           19.11375901680083        7.68238302624847       49.14066811599515
H           19.98267900758782        7.42447123492631       49.73186364433250
H           18.21028743173117        7.96525874000967       49.66958264674417
C           16.85970979530356       10.04536283878951       43.64936276074258
H           17.20727424409835       10.63789378576342       44.50732580326630
H           16.21285856727085        9.24942396821140       44.04326147231905
H           16.24457673739993       10.70434330103957       43.02351117384114
C           17.68515972646039        9.93982436332658       40.37849964758004
H           17.70120898634706        9.18794391084272       39.58591429595113
C           16.96115859078694       11.02811736375223       40.10846627243085
H           16.89053345993998       11.85216612947655       40.80983717072701
H           16.42861279059155       11.11577517188057       39.16651234835633
C           21.94224120484543        8.63517543333657       37.47369752532988
H           21.84297667765470        9.72773884659163       37.44448965418857
H           20.95500152827584        8.19543041730207       37.29153867442811
H           22.61873201465478        8.33114499383950       36.66729109780059
C           24.86254838460836        7.51419826728734       38.14023171286689
H           24.89530135086935        8.35115661603915       37.43200296195543
H           24.71949792664986        6.58919936707127       37.56705210499388
H           25.82417767245250        7.46647232814419       38.66054117760577
O           21.12285762412846        5.63830080205043       42.71161572996823
H           20.79245767320646        5.31228423534595       43.54625540745275
H           21.06795581670091        5.14499270605221       41.91492695113539
C           24.31203343590038        9.94957564984598       43.95572685763425
H           24.52105113690710       10.77053115514193       44.65254609102328
H           24.85502873324326       10.13015403736968       43.02219692640959
H           24.64714222074829        9.00367063254960       44.39317663691318
S           22.56795455937970        9.85434650117654       43.59902287824954
H           22.22685781584668        9.46075142359957       44.82353478583863
72
 energy: -105.957473829614 gnorm: 0.035031045193 xtb: 6.7.1 (edcfbbe)
Fe          22.00411913108593        7.63699017737314       43.04393836209542
N           23.82266320775000        6.75440083759260       43.47522588847708
N           21.47515342833255        7.33129746569204       44.98262122164225
N           20.19638888810124        8.47687160033018       42.62182240287198
N           22.54430257551527        7.82339018516726       41.10822938483201
C           24.87036281597555        6.60064713923812       42.60340123642774
C           25.98796732627205        5.96324445883605       43.27890199919497
C           25.56201904628975        5.66911680108526       44.54464151616873
C           24.21325028998654        6.19013807483040       44.64920728677617
C           22.21014577269458        6.73799980985136       45.98287906888558
C           21.47883274921307        6.76272263110525       47.23703990671869
C           20.27076992414759        7.36627327052490       46.95471340388860
C           20.29105537118591        7.71515805273086       45.53369516777271
C           19.21934141659930        8.75927253301051       43.52508144216742
C           18.11202534297098        9.47406867031036       42.89079865925888
C           18.45448350539287        9.56136350791409       41.56092729374584
C           19.76976808160397        8.94384271191312       41.41725660028211
C           21.76462721855271        8.29257948468682       40.09255120500255
C           22.48024277126892        8.21062573754901       38.83469881753603
C           23.72303353260377        7.71547311225248       39.12537979675311
C           23.73745772137834        7.45912676167729       40.55635188592714
C           24.80271107723735        6.88639398284256       41.24413097552411
H           25.64899702288475        6.56623606296016       40.64875090336345
C           23.45636295313183        6.16443424080541       45.81204884487259
H           23.88219010913278        5.65277074132391       46.66411404528894
C           19.26918038835073        8.38022691643803       44.86275840881288
H           18.39999977270276        8.63743597578310       45.44762860692786
C           20.49115987446883        8.83411858020451       40.23711680550008
H           20.03355875490244        9.21280842579338       39.33070213073793
C           26.33879505088855        5.02359852943709       45.65060983360144
H           26.52505595347704        5.73668172336468       46.45629649355843
H           27.30426799158394        4.66326326642871       45.30075745034456
H           25.80707812777058        4.17548534002289       46.08076796692827
C           27.35498742721074        5.70423841900299       42.72292809835196
H           27.54794265226424        6.29039129415283       41.82966199449583
H           27.48468687562005        4.65008588314949       42.47332118042470
H           28.11226744501981        5.96197278024958       43.46312411085371
C           22.01651554550051        6.25808255384387       48.54358287422510
H           22.62892186654098        7.01960956474577       49.03424113481331
H           22.64119618307269        5.37635773432334       48.41444600148188
H           21.22389459426685        5.98535882569295       49.23725969089159
C           19.14872181767601        7.67719756783462       47.81192984566866
H           18.23961321800381        7.95222542415350       47.29567998578931
C           19.11865239730801        7.68644129547016       49.14239110781833
H           19.97225789359674        7.44441685266296       49.74309695788210
H           18.21933318410947        7.95132904300020       49.66986038779461
C           16.91621361796163       10.01920508317407       43.62053321125678
H           17.23598770358367       10.61747031864469       44.47800447904370
H           16.26526666668746        9.23276910500895       44.00960858189340
H           16.30120241883176       10.66157794588439       42.99170123370514
C           17.68025010548615        9.93748375975850       40.38113998022743
H           17.71280345157207        9.18555330456951       39.59495310758800
C           16.96699029875554       11.02540017006154       40.13041371792756
H           16.89214540329585       11.84719422078944       40.81911940810707
H           16.43742463951256       11.12771240292432       39.19698531850674
C           21.94997504499136        8.63266421659170       37.50269693259800
H           21.84475119458485        9.71714038400100       37.45810291650223
H           20.97136566200024        8.19640318718971       37.31033345801754
H           22.61631312402517        8.32785635830133       36.69928533348664
C           24.84774179796247        7.51548454704219       38.15921603674502
H           24.88789173877838        8.34221123350544       37.45098827402511
H           24.71575707422465        6.59721249458969       37.58521072860549
H           25.80672024462099        7.46428589247704       38.66556849884888
O           21.13714322232120        5.66014335776982       42.71566049561351
H           20.78669432326706        5.29136269204863       43.52778556356768
H           21.06300581153577        5.13551356716555       41.91749867514547
C           24.34181769800201        9.95063805648615       43.96580381027837
H           24.52848770795322       10.77108615529038       44.65251706316746
H           24.85862593273460       10.12755770930676       43.02887695575886
H           24.66316670780210        9.00652755275573       44.39017922118310
S           22.57424603650958        9.85711971049032       43.59791814249320
H           22.21965407935734        9.50666252681524       44.83833047333110
72
 energy: -105.964450519340 gnorm: 0.024998722865 xtb: 6.7.1 (edcfbbe)
Fe          22.00310953439453        7.61633585456584       43.04124319507314
N           23.81707872080718        6.75207154893000       43.46629468899767
N           21.46391906756200        7.32830977145975       44.98281626875419
N           20.20102777209703        8.45785715071966       42.62806857494937
N           22.53890400393783        7.81019440709969       41.11406292082707
C           24.85125579676744        6.58840676308907       42.59823997305043
C           25.97547181650899        5.96618666371051       43.27538630079822
C           25.55649734829523        5.69329586629258       44.54453607795952
C           24.20653463493666        6.20595639488977       44.64625746850638
C           22.19248851977568        6.73447484529955       45.97229761297874
C           21.47246231999604        6.76827576785477       47.22228320720601
C           20.26353407640611        7.38084728354130       46.95241509878038
C           20.28453427012413        7.72178320474039       45.53429830686660
C           19.23491673987476        8.76004984647173       43.53382776108553
C           18.13955324216781        9.46665450573186       42.89185524965606
C           18.46262003845864        9.53191521921341       41.56265916018607
C           19.77214757476231        8.90603321687270       41.42628539726245
C           21.76541077101698        8.29063045048985       40.10525408243224
C           22.48275639555285        8.22238452668665       38.84819027574082
C           23.71956982834421        7.72029955558827       39.13548697464001
C           23.73107414204824        7.45133621325868       40.56203676773584
C           24.79876794715528        6.89113711929451       41.24339015103682
H           25.66749679281407        6.61772966472267       40.65417069628199
C           23.45068547645895        6.17747844782189       45.80395480743602
H           23.89206573131975        5.68688868180148       46.66007927836989
C           19.26910975996749        8.39235068533220       44.87089802703405
H           18.39741818315071        8.65501682948416       45.45003067152160
C           20.48973478590647        8.81487953625389       40.24546323046491
H           20.03038692954941        9.20644114329065       39.34774461608330
C           26.32375773096068        5.04187936531569       45.64243214062602
H           26.51267054081467        5.74702494571946       46.45405260499528
H           27.28206667340492        4.67860278253231       45.27825196658146
H           25.78010052956709        4.19386000886235       46.05782882373772
C           27.33443913023056        5.70604283065288       42.71571199677931
H           27.51914116342093        6.29451027336766       41.82225912436609
H           27.46197967195567        4.65191391294188       42.46610127979997
H           28.09504751681107        5.96431238259766       43.45258145234238
C           22.00780002373465        6.25121816080068       48.50991243689466
H           22.60948321989228        7.01868452200026       49.00421519985454
H           22.64200470352989        5.37952409820250       48.36083025890445
H           21.20702506464146        5.96280883313320       49.18607025488861
C           19.14689361547079        7.67907528078648       47.81486292518378
H           18.23401024948950        7.93844703180702       47.29516981718434
C           19.11579716636962        7.69098054395145       49.14598523343080
H           19.97504292350562        7.48925736568100       49.75740490475196
H           18.21049874277956        7.93928831552150       49.67223884870887
C           16.94692427774022        9.99960663464214       43.60320245105044
H           17.25907145249962       10.60658503218884       44.45597566708598
H           16.31147903895786        9.19813933736041       43.98426190112592
H           16.34377621332600       10.62170544552725       42.94511326530814
C           17.68523274612561        9.92432573168230       40.38824003442331
H           17.72218520270865        9.18033634041194       39.59722368281665
C           16.97512332126956       11.02124684092750       40.16263266050050
H           16.90432763651406       11.83674690360810       40.85976090578914
H           16.44589007852944       11.14698905701020       39.23097267109377
C           21.95111604015663        8.63881823881661       37.52154687375667
H           21.84080808104484        9.72293148255660       37.47182812438430
H           20.97451041911054        8.19490396540965       37.33356470639107
H           22.62194580512936        8.32748009721433       36.72444170654276
C           24.84083714115561        7.51378983235103       38.17392716404455
H           24.88184059420639        8.33937605406873       37.46454504043788
H           24.70691977262746        6.59285592139197       37.60438024627675
H           25.79878779022882        7.46077527602608       38.68282218389795
O           21.14926411212414        5.64898604922467       42.70854895869331
H           20.77318476460733        5.25617656817632       43.50093126969540
H           21.05463677414265        5.11945098099882       41.91350284514586
C           24.37083518994753        9.94869807378327       43.97560453382072
H           24.54945134192932       10.77624512666727       44.65466542539410
H           24.87652547131925       10.12150235704005       43.03219247958632
H           24.69309287520950        9.00652831297088       44.40148270834904
S           22.59277540274146        9.84945076032142       43.60474495352859
H           22.21916756991252        9.59369776124195       44.87345143011575
72
 energy: -105.968484418467 gnorm: 0.019124196992 xtb: 6.7.1 (edcfbbe)
Fe          22.00770035266866        7.61315827487443       43.04289323565180
N           23.80036771454293        6.75360672379711       43.45155242414020
N           21.44921529586123        7.32945219024817       44.97216908256636
N           20.21379388799028        8.43118806235079       42.63287424212511
N           22.53489322896379        7.79405235418031       41.12331305910523
C           24.83437668549046        6.58691550455390       42.59325379601226
C           25.95917447760832        5.97365817411976       43.27041627790697
C           25.54558000419902        5.72001688965226       44.54180284487037
C           24.19529092657228        6.22724791843594       44.64117598540120
C           22.17619803310520        6.74078790813803       45.95885528460415
C           21.46244309576528        6.77472476356557       47.20479705827631
C           20.25821224073918        7.39494356892479       46.94818598999591
C           20.27869933517187        7.72995377609863       45.53371836625272
C           19.25229211475454        8.75369964993073       43.53597390468794
C           18.16759234412632        9.45496171637212       42.88692177972010
C           18.47514539227412        9.49691869984265       41.55707922041521
C           19.77801179972046        8.86508886594817       41.43028360271614
C           21.76764699840720        8.28112271885365       40.11668100420845
C           22.48704926098768        8.22973370819735       38.86302229889718
C           23.71783629120402        7.72547664174060       39.14660268272146
C           23.72723262450943        7.44849602229620       40.56854458441082
C           24.80090101224188        6.90308585398744       41.24499356273994
H           25.68416697040228        6.66698210251635       40.66352888323677
C           23.44561761571564        6.20133704341895       45.79925152739093
H           23.90069868758534        5.73125847484240       46.65901678359538
C           19.26829784466237        8.40834721073695       44.87539365842669
H           18.39933271711342        8.68919872578220       45.45067732114489
C           20.48930361323575        8.79037024701642       40.24875274398939
H           20.02430544734090        9.19004159683131       39.35971881135790
C           26.30775796437624        5.06045027271791       45.63800349700732
H           26.49859639091543        5.75729138315757       46.45553299167620
H           27.26192648780232        4.69422095202175       45.26683970411185
H           25.75178259780693        4.21337559780756       46.04016547269804
C           27.31199685764372        5.70730030592508       42.70296795693515
H           27.48967803500705        6.29764479352200       41.80832887775541
H           27.43257823537219        4.65307094348046       42.44989350837156
H           28.07861686504515        5.96350926882377       43.43483487360136
C           21.99366570467931        6.24020742942519       48.48657233274107
H           22.58398132931139        7.00659956536435       48.99617015362033
H           22.63913772691926        5.38037262210806       48.31494434225259
H           21.18483480946291        5.93252535362448       49.14444223610239
C           19.14589898965497        7.68459071834828       47.81811084838495
H           18.21999773884980        7.90941341201220       47.30002671943017
C           19.12167070296204        7.70916343390189       49.14907021438815
H           19.98496935082223        7.53172468472442       49.76500804931521
H           18.20569323702169        7.92355167231156       49.67706626540649
C           16.96365311845258        9.98121379397504       43.58474030528308
H           17.26190319104925       10.60264443366447       44.43063603438387
H           16.34619851878103        9.16689458183587       43.96669990751109
H           16.36173228288434       10.57996245612735       42.90540606683742
C           17.69682560358210        9.90738150810073       40.39432640073521
H           17.73131572294756        9.17824454156342       39.59084202002698
C           16.99079124203887       11.01530779304396       40.20385076744188
H           16.92551296216803       11.81367707902545       40.92333060630150
H           16.45197295687625       11.16929584370728       39.28026771082425
C           21.95001242143235        8.64601885489645       37.53824516770381
H           21.83350760191522        9.72945708433276       37.48832736416924
H           20.97513881816509        8.19430760311486       37.35696787422772
H           22.62351162727382        8.33404637249858       36.74344792464682
C           24.83886221503349        7.51073065146102       38.18781044195685
H           24.88143886645760        8.33225564570902       37.47368301857569
H           24.70087859751108        6.58432646193077       37.62755379741689
H           25.79572011293960        7.45770129853542       38.70011846084387
O           21.18173465463760        5.62231402039199       42.70067162195677
H           20.74967637580837        5.22167072718457       43.46467939250127
H           21.03572669878766        5.10503184977746       41.90372770707297
C           24.40458338496465        9.94643601500425       43.98475590932352
H           24.58059266524813       10.77831971392829       44.65866755361078
H           24.90526060969571       10.11540681617939       43.03769133362321
H           24.72911922795316        9.00610057032497       44.41473288096345
S           22.62003349726011        9.85168309750517       43.60685011277378
H           22.22813798952403        9.66873338965144       44.88754155892278
72
 energy: -105.970532862231 gnorm: 0.025068883958 xtb: 6.7.1 (edcfbbe)
Fe          22.00516276846784        7.60408970930478       43.04117262322405
N           23.78774108450166        6.77206886276576       43.44461803152024
N           21.44133083156471        7.34360131897384       44.96330894535470
N           20.22420799679974        8.40798242479159       42.63600714368757
N           22.53613128082150        7.78666415293167       41.13005341984805
C           24.82567729160852        6.59757457399875       42.59093951731721
C           25.94736844608361        5.98588047642877       43.26767696365609
C           25.53604991085537        5.74470008117464       44.54043753131204
C           24.18580998771274        6.25009313284054       44.63726367387453
C           22.16809682047631        6.75515736125745       45.95082221267536
C           21.45530065599711        6.78292988556932       47.19481257485133
C           20.25625484514434        7.40698067310516       46.94656813656668
C           20.27693593431883        7.74560655723608       45.53608015168219
C           19.26302854989179        8.74843902578906       43.53534744904957
C           18.18086253182323        9.44167916562269       42.88023732343614
C           18.48245913012307        9.46476610985122       41.54950943273568
C           19.78168112218419        8.83151326447494       41.43006113071300
C           21.77087391383496        8.27144125275914       40.12171855889850
C           22.49174000170943        8.23296199100398       38.87111804580265