78
 energy: -116.057051558569 gnorm: 0.000157043235 xtb: 6.7.1 (edcfbbe)
Fe          18.49049938991232       -1.45954393916876       -0.30878031080480
N           18.18912056475744       -3.38217186516480       -0.73370547124642
N           20.30407829873815       -1.88341979766890        0.39813373140944
N           18.82109502342362        0.49449729109288        0.00199082829736
N           16.65936644878344       -1.02382026940469       -1.01322314233970
C           17.06171991443286       -3.94399884424796       -1.24189972931080
C           17.24386985578004       -5.36569926135157       -1.44339800228756
C           18.51190220382291       -5.64809012521888       -1.04400314370239
C           19.08269447813474       -4.39701581593176       -0.59233558010700
C           20.89567191321638       -3.10575600585870        0.43572990796892
C           22.18103759087230       -3.03227733852832        1.08047106633701
C           22.34334106211431       -1.73102834622193        1.47195858955226
C           21.16573392317606       -1.02505519757326        1.00302749679204
C           19.93174669014518        1.04833972810442        0.56291417808728
C           19.83337839453621        2.48284132809405        0.57609485042481
C           18.63525569035564        2.79665359835783       -0.01020661833921
C           18.00564175716301        1.53148156921803       -0.33040165763287
C           16.07755367568667        0.20584481659081       -1.07184723770183
C           14.70328032740709        0.09935667674807       -1.50645841006096
C           14.46885225929807       -1.22536737432677       -1.71063836631070
C           15.70287218176725       -1.91008826523159       -1.39908935646740
C           15.88616918629598       -3.27422312125378       -1.52552311362026
H           15.05129612394157       -3.85843682199830       -1.88100637932751
C           20.34730223959356       -4.28020153901308       -0.05242346496844
H           20.94899179517917       -5.17423617728043        0.01132098137600
C           21.01708201862211        0.34636860434670        1.05649458641061
H           21.82377503586731        0.91812885083612        1.48762808066483
C           16.70557465294728        1.40433304573683       -0.78814340228740
H           16.12935785706332        2.30939136936837       -0.89952327780413
C           19.23417882647716       -6.95174058005739       -1.03894285780266
H           18.61113932038982       -7.74112261512975       -1.45219913827800
H           19.51508271885371       -7.23324567293717       -0.02341816029185
H           20.14445145921929       -6.88522282817987       -1.63466985521385
C           16.20099212280307       -6.27728884938264       -1.99351710385657
H           15.90217517391516       -5.95886429501131       -2.99238149833810
H           15.31448681103044       -6.27350096693180       -1.35864567424552
H           16.57242210405191       -7.29717774783499       -2.05626181554240
C           23.09273082882398       -4.18893339980053        1.30540805369864
H           23.32296840332159       -4.68316849243597        0.36145359735710
H           22.62983840628285       -4.92354477659790        1.96578165574727
H           24.02265189825822       -3.86020898658681        1.76251223968161
C           23.46106316856264       -1.17703910846351        2.20727150553662
H           24.43288211150267       -1.58609597170596        1.95208196442268
C           23.37903359000006       -0.26563533253447        3.17020757343039
H           22.43456441240217        0.13367610579060        3.49935256815395
H           24.25627772463514        0.09667193750521        3.68034235056240
C           20.88423246510484        3.40532536134661        1.08863311226161
H           21.80263269205068        3.29974035280078        0.51024087971428
H           21.11681014875524        3.18072488028193        2.12981952491459
H           20.55480690195711        4.43905378232910        1.01970242462255
C           18.11271317102080        4.12254850922766       -0.26489927224239
H           18.34338256485795        4.86376357794295        0.49279835348215
C           17.43166233394825        4.49624905564186       -1.34265478015616
H           17.22076610590852        3.81737523313409       -2.15158045587228
H           17.08003806048974        5.50734867297264       -1.46429551531610
C           13.78512522771372        1.26053378626891       -1.67835870785238
H           14.17188284883659        1.94839888633310       -2.43089886645276
H           13.68238837636711        1.81005355862365       -0.74243525832433
H           12.79813227680321        0.93032262837225       -1.99272737008414
C           13.22331631824854       -1.90457786768327       -2.16683777678580
H           12.42120288431936       -1.18525181327386       -2.31274491105153
H           12.89684835487804       -2.63943925896370       -1.43083597912881
H           13.39309710930415       -2.42441806544623       -3.11026414640102
O           19.25589679018552       -1.08929320485864       -2.44136519999970
H           18.42303227916069       -1.16043429868449       -2.92036992632507
H           19.47129605149582       -0.15166983457862       -2.38626440238732
C           15.74463499259182       -0.81181225926855        4.49529470312315
H           16.32880325294044       -0.66325291499094        5.40336701220665
H           14.93764252042760       -1.50932140668454        4.71959779352710
H           15.31105402112214        0.13869651285295        4.20081598865331
N           17.28435310198432       -2.51261197395014        3.49133098455296
H           17.28304697430780       -3.13157181568218        4.28537676924289
C           16.59930179450733       -1.32958339374234        3.39710206668722
C           17.95758920993312       -2.68990349115936        2.33210996233392
H           18.58155846831764       -3.53424979814920        2.12203956757032
N           17.74006770969672       -1.69164637263492        1.51057637135001
C           16.89741304874353       -0.83752184678641        2.15880699581734
H           16.56407231047309        0.06705962568000        1.69438702030874
