78
 energy: -115.949590565259 gnorm: 0.287253877554 xtb: 6.7.1 (edcfbbe)
Fe          18.40200000000000       -1.44600000000000       -0.12200000000000
N           18.16100000000000       -3.39300000000000       -0.67100000000000
N           20.35300000000000       -1.87400000000000        0.43400000000000
N           18.86700000000000        0.58600000000000       -0.01200000000000
N           16.65300000000000       -1.01200000000000       -1.07400000000000
C           17.04500000000000       -3.88600000000000       -1.30800000000000
C           17.29600000000000       -5.30600000000000       -1.59500000000000
C           18.53100000000000       -5.58000000000000       -1.15400000000000
C           19.13300000000000       -4.39900000000000       -0.57100000000000
C           20.96200000000000       -3.15600000000000        0.47000000000000
C           22.21600000000000       -3.05300000000000        1.10800000000000
C           22.43600000000000       -1.73300000000000        1.44300000000000
C           21.25300000000000       -1.01500000000000        1.01400000000000
C           20.02500000000000        1.06800000000000        0.54000000000000
C           19.87900000000000        2.50800000000000        0.42000000000000
C           18.71000000000000        2.86100000000000       -0.12300000000000
C           18.03100000000000        1.60200000000000       -0.43400000000000
C           16.08400000000000        0.26400000000000       -1.10700000000000
C           14.67600000000000        0.17900000000000       -1.38600000000000
C           14.43200000000000       -1.21600000000000       -1.68700000000000
C           15.66700000000000       -1.91000000000000       -1.52400000000000
C           15.84900000000000       -3.25100000000000       -1.67400000000000
H           15.04000000000000       -3.85000000000000       -2.09200000000000
C           20.38100000000000       -4.32600000000000       -0.03000000000000
H           20.96800000000000       -5.24300000000000        0.01700000000000
C           21.11500000000000        0.36600000000000        1.09200000000000
H           21.88900000000000        0.93500000000000        1.60600000000000
C           16.72800000000000        1.47300000000000       -0.85500000000000
H           16.15500000000000        2.38800000000000       -1.00300000000000
C           19.29300000000000       -6.97100000000000       -1.15500000000000
H           18.63800000000000       -7.75200000000000       -1.59600000000000
H           19.54700000000000       -7.26000000000000       -0.11300000000000
H           20.21900000000000       -6.89100000000000       -1.76400000000000
C           16.30200000000000       -6.28300000000000       -2.25000000000000
H           15.75800000000000       -5.76500000000000       -3.06900000000000
H           15.56700000000000       -6.63300000000000       -1.49400000000000
H           16.85200000000000       -7.15000000000000       -2.67500000000000
C           23.17900000000000       -4.23500000000000        1.31400000000000
H           23.73800000000000       -4.42600000000000        0.37300000000000
H           22.60300000000000       -5.14600000000000        1.58200000000000
H           23.90400000000000       -3.99300000000000        2.12100000000000
C           23.62400000000000       -1.14500000000000        2.15700000000000
H           24.57500000000000       -1.69600000000000        2.14000000000000
C           23.61400000000000        0.03500000000000        2.83300000000000
H           22.66600000000000        0.55700000000000        3.03100000000000
H           24.55400000000000        0.48200000000000        3.19000000000000
C           21.00500000000000        3.47600000000000        0.88100000000000
H           21.99200000000000        2.97900000000000        0.76400000000000
H           20.85900000000000        3.73900000000000        1.95000000000000
H           20.98800000000000        4.39500000000000        0.25800000000000
C           18.23700000000000        4.34500000000000       -0.31300000000000
H           18.53400000000000        5.13000000000000        0.39800000000000
C           17.49900000000000        4.65500000000000       -1.30100000000000
H           17.18800000000000        3.89000000000000       -2.02700000000000
H           17.16200000000000        5.69300000000000       -1.44300000000000
C           13.65700000000000        1.32500000000000       -1.35500000000000
H           13.84800000000000        2.01400000000000       -2.20500000000000
H           13.75700000000000        1.89000000000000       -0.40400000000000
H           12.62800000000000        0.91500000000000       -1.44700000000000
C           13.10800000000000       -1.86000000000000       -2.00600000000000
H           12.38600000000000       -1.08200000000000       -2.33400000000000
H           12.70800000000000       -2.36400000000000       -1.10000000000000
H           13.23800000000000       -2.59900000000000       -2.82500000000000
O           19.37800000000000       -1.28400000000000       -2.55100000000000
H           19.17200000000000       -2.11800000000000       -2.97400000000000
H           19.81300000000000       -0.60100000000000       -2.91800000000000
C           15.19500000000000       -1.11000000000000        4.61300000000000
H           15.70600000000000       -0.74100000000000        5.52800000000000
H           14.57600000000000       -1.99300000000000        4.87800000000000
H           14.55000000000000       -0.30100000000000        4.20900000000000
N           17.16700000000000       -2.48300000000000        3.83400000000000
H           17.24600000000000       -3.01500000000000        4.67700000000000
C           16.21900000000000       -1.49800000000000        3.59100000000000
C           17.93900000000000       -2.58400000000000        2.74800000000000
H           18.76900000000000       -3.28300000000000        2.64600000000000
N           17.52700000000000       -1.71400000000000        1.85400000000000
C           16.45700000000000       -1.01700000000000        2.35300000000000
H           15.96600000000000       -0.24300000000000        1.77700000000000
78
 energy: -116.016699345977 gnorm: 0.116510358099 xtb: 6.7.1 (edcfbbe)
Fe          18.44383712762043       -1.44488129626986       -0.21022981038058
N           18.16028363475621       -3.38959515137873       -0.68470120543482
N           20.35375746886796       -1.88390057234138        0.45259609996011
N           18.84939642211535        0.57116522871780       -0.00312311648843
N           16.64843493740641       -0.99838385296265       -1.06473016821159
C           17.05848620079577       -3.90496817405832       -1.30828856643454
C           17.29549862381740       -5.32292203220120       -1.59407956819349
C           18.54089281992058       -5.60783097633805       -1.14567069539261
C           19.10574695653180       -4.39890477278282       -0.57445790652201
C           20.95277879626437       -3.14105559213419        0.48381543602063
C           22.23140019343373       -3.04770932447997        1.10990888685728
C           22.43412072953841       -1.72776328735305        1.46809401292074
C           21.24333516547753       -1.01693920751650        1.01840297357249
C           20.00180795779808        1.07766597981751        0.52763094749106
C           19.90668548391471        2.52611327270386        0.44156203915991
C           18.71734362252675        2.87476776445523       -0.10616353387296
C           18.03692753973071        1.60564958675633       -0.39909602405632
C           16.07345921470787        0.25255602327721       -1.08425221673684
C           14.66931081468302        0.15842577630982       -1.39738673387100
C           14.42928716966412       -1.18947636241001       -1.67833386734421
C           15.66981370614675       -1.88585634319162       -1.48553386387946
C           15.87309382996832       -3.24560580970916       -1.65315073425385
H           15.06664318678822       -3.83865861825263       -2.07775678679033
C           20.36646693840810       -4.30617247967462       -0.02372655349321
H           20.95793335747579       -5.21827266301536        0.01395045462912
C           21.07929056819846        0.36713468318589        1.06664931405098
H           21.85846573555597        0.94076541186918        1.55105692119357
C           16.73211318754268        1.46147348255555       -0.84007901866000
H           16.16047078078024        2.37058157043105       -0.99565423615895
C           19.27963281791071       -6.95257089402536       -1.15859744641828
H           18.64691554754626       -7.73486428684935       -1.58884194192377
H           19.53927369866342       -7.24650501880514       -0.13494222659007
H           20.19955772969080       -6.88459600578690       -1.75119315963651
C           16.31119884223187       -6.26937019146128       -2.24629586493817
H           15.76772165400557       -5.77175156240804       -3.05724122887803
H           15.58145450128906       -6.62545270264303       -1.50797322457416
H           16.83924864437900       -7.13282239648922       -2.66516017536563
C           23.17146770108697       -4.21894021057757        1.31225516449475
H           23.72828819609223       -4.42136048476324        0.38792809690244
H           22.61501305782232       -5.12508637819612        1.57995116666583
H           23.89039834916906       -3.99800762804539        2.10791869006005
C           23.60451941240791       -1.14048123005164        2.15230402721322
H           24.54613228781824       -1.69184478607557        2.10909060065416
C           23.61433793571499        0.01415158280738        2.83407976854206
H           22.69838825052027        0.54973091370459        3.04879307854368
H           24.53865675937251        0.45328263915128        3.19774449886360
C           21.00527078349055        3.47307370793254        0.88166094929345
H           21.98010146289090        2.98996815506783        0.76575164731313
H           20.86435360077373        3.73917697453984        1.93536327660881
H           20.98759293985443        4.38220864584106        0.27266795969329
C           18.24664287565641        4.29959229672731       -0.30421764133002
H           18.55506523271487        5.06937538594511        0.40603933392477
C           17.48629352956856        4.64742354308529       -1.31905346785841
H           17.17934104124019        3.91241589055755       -2.05036004474748
H           17.15832077363067        5.67582888244419       -1.45388228426159
C           13.67524893923313        1.30102721870167       -1.36297605809775
H           13.84849529937354        1.99951806642145       -2.19275542481111
H           13.75889972442471        1.86894161598940       -0.42601542077786
H           12.65073490545433        0.92107631218148       -1.44510036724692
C           13.11948207764111       -1.84478491182805       -2.00610772306673
H           12.39082984260427       -1.09554912297228       -2.33265360747046
H           12.71522678320151       -2.35570380763980       -1.12041754611688
H           13.23600045951115       -2.58466008456854       -2.80814277581122
O           19.35730916505672       -1.30165835187893       -2.50891034737248
H           19.17209202662985       -2.11567161012114       -2.97247857571882
H           19.81720118375603       -0.59041594414087       -2.91749322150762
C           15.20074386479079       -1.11311161988809        4.61314292886950
H           15.69346136096019       -0.74528568959038        5.52151355840674
H           14.57965007404505       -1.97688999202512        4.87859569183243
H           14.56133438433846       -0.31892999043789        4.21629970106559
N           17.15978404191646       -2.47585875489885        3.82973676391589
H           17.24082511172570       -3.01258447695064        4.67688448306299
C           16.22082745186043       -1.49638470302370        3.59454743962620
C           17.93574642579354       -2.57075166741589        2.73063018698726
H           18.75574608934802       -3.26538938218505        2.63683105542855
N           17.54693308388348       -1.70760577706285        1.81791942862259
C           16.47524370651469       -1.02648289402759        2.34223135291296
H           15.97991420195964       -0.25782153827378        1.77667644533539
78
 energy: -116.038720552063 gnorm: 0.032500935412 xtb: 6.7.1 (edcfbbe)
Fe          18.47343291371123       -1.43735462615141       -0.27244298795847
N           18.17220855801610       -3.37723577055768       -0.71122706083067
N           20.34976498738645       -1.88735489644187        0.45421291929863
N           18.83701778811462        0.55701661760406       -0.00907467377680
N           16.64443904711681       -0.98878034426940       -1.04468136497997
C           17.07456309433808       -3.91320760424792       -1.31211562933583
C           17.29729302799669       -5.32654567670523       -1.59082863629598
C           18.54827960917004       -5.61985768536054       -1.13508715550331
C           19.08771990509016       -4.38898787185452       -0.58200215615739
C           20.93536455580768       -3.12143087716426        0.49160203120452
C           22.23144068353388       -3.03967584001028        1.11397568851950
C           22.41884939338214       -1.72207744359331        1.48409156791186
C           21.22303759940190       -1.01695552418477        1.02383585917026
C           19.97884909860272        1.08167763869161        0.51358377577188
C           19.91973376494334        2.53118359961411        0.45603895704803
C           18.71361401870768        2.87317416671875       -0.09519987852734
C           18.03749038228248        1.60149935128886       -0.37288074093090
C           16.07108884657508        0.24429628619642       -1.05958097208672
C           14.66705123702476        0.14110492386207       -1.40045817279665
C           14.43213767207648       -1.17312653753480       -1.66250283531538
C           15.68226298634254       -1.86938092233097       -1.44816295012642
C           15.89978088197918       -3.23454653186706       -1.63022294366424
H           15.09232423740250       -3.81956863484538       -2.05477996029005
C           20.35157383666949       -4.28184558874459       -0.01911715214535
H           20.94445325836327       -5.18906279027565        0.01571613902464
C           21.04557913198811        0.36534566500035        1.04270889565707
H           21.83820459930857        0.94617336237876        1.48798209108763
C           16.73285991162966        1.44966739254266       -0.82085752689752
H           16.16106452942383        2.35386657775099       -0.97903978681852
C           19.26606023741213       -6.92851852767468       -1.15579262229824
H           18.64522874264689       -7.71077527319215       -1.58414352169318
H           19.53446027184555       -7.23259120030765       -0.14447464526689
H           20.18314003907542       -6.86735325887862       -1.74117581451358
C           16.32144289925037       -6.25400876886233       -2.23928893933595
H           15.78027969171096       -5.76503441205016       -3.04582498147109
H           15.59074985161945       -6.61327766540867       -1.51323033505180
H           16.83427272303301       -7.11847976821779       -2.65520526467229
C           23.15998920507804       -4.19782294585977        1.31210199597170
H           23.71438115967100       -4.40870388100474        0.39559386023865
H           22.61358052182357       -5.10076346203019        1.58001367375162
H           23.87886350204701       -3.99049185578889        2.10020971445175
C           23.57696824212210       -1.14236394340178        2.14083989873762
H           24.51059465605988       -1.69542243152314        2.05601208001337
C           23.60972639811737       -0.00706388303568        2.83765537315546
H           22.72054552878061        0.55197389951146        3.06411900410644
H           24.52859579863146        0.40849382076463        3.21938301193494
C           21.00154817272962        3.46242623977247        0.88334002256849
H           21.97675888667557        2.99826863163772        0.76988292100001
H           20.87212233188491        3.73909685951556        1.92944479034327
H           20.98238143803604        4.36940121410432        0.28479807947552
C           18.24615347418652        4.23625722134669       -0.30857323377927
H           18.57344548102668        4.98818560255130        0.40461978169248
C           17.48302075287131        4.62682893518513       -1.32770494082712
H           17.17124830953574        3.92510477641824       -2.07682141426193
H           17.16727541921126        5.65150493120873       -1.44658215705036
C           13.69268607759869        1.27951678686788       -1.37218081047881
H           13.86323183118379        1.97948336823194       -2.19178658739561
H           13.77553426868185        1.84259823137335       -0.44089112789576
H           12.67084117990798        0.91481375451053       -1.44898531909005
C           13.13328126166534       -1.83338744659044       -2.00475738705816
H           12.40113518421918       -1.09952478221052       -2.33160161289596
H           12.72829894148828       -2.34989098048272       -1.13151592497820
H           13.25141308492944       -2.56991423206868       -2.79824191636198
O           19.34324457329121       -1.31493983768711       -2.44885162050071
H           19.17565614695911       -2.10108708560023       -2.97319491885828
H           19.80058194655984       -0.60040681457275       -2.89506687558699
C           15.20763329707573       -1.11383002544703        4.60678067213033
H           15.68913516182414       -0.74892085954846        5.51335358610118
H           14.58655416375730       -1.96822474738587        4.87279206016026
H           14.56975261015289       -0.32892196169823        4.21504145656590
N           17.15914585853305       -2.46966631792922        3.81856038279968
H           17.24300195319339       -3.01009351885503        4.66598417332769
C           16.22539783139553       -1.49283922629556        3.59035754211693
C           17.93517648815506       -2.56011528267053        2.71321143957846
H           18.74897652385118       -3.25090706178007        2.62253592391917
N           17.55762422402034       -1.70405738241777        1.79442433455857
C           16.49071075084020       -1.03161583602234        2.33071261326164
H           15.99067334924853       -0.26595001201021        1.77363823910473
78
 energy: -116.044334649117 gnorm: 0.021637964217 xtb: 6.7.1 (edcfbbe)
Fe          18.47801249137025       -1.43272321747682       -0.28936095622166
N           18.18290968764822       -3.36591543307534       -0.72555937110697
N           20.33221242175189       -1.88219389661072        0.45525072004706
N           18.82781924131124        0.54337458787084       -0.00802411030117
N           16.64732259752134       -0.98596323059369       -1.02659338651734
C           17.08291989313805       -3.90793711733230       -1.31399212643343
C           17.29894622091834       -5.31727285157826       -1.58431943560427
C           18.54857166407488       -5.61109579648199       -1.12630859136007
C           19.08691596865173       -4.37718609277769       -0.58702335014158
C           20.91740067873129       -3.10880376646614        0.49351414750919
C           22.21388045773060       -3.02910139724498        1.11831879867349
C           22.39526721260418       -1.71437205315273        1.48481751023764
C           21.20360210245223       -1.01158154201211        1.02234371553848
C           19.96968878670072        1.07541565549779        0.50244439784237
C           19.91631100912491        2.51866137559486        0.45958028251736
C           18.70551646553379        2.85191701031234       -0.09145935636918
C           18.03032251999406        1.58722435683508       -0.36002551524298
C           16.07105924625914        0.24270680750394       -1.03458578037358
C           14.67002426870459        0.13687446648521       -1.38989324003493
C           14.43686697468160       -1.17862458350439       -1.64332210673188
C           15.69165654100780       -1.86898352660062       -1.42033450040070
C           15.90961084772938       -3.22831046511748       -1.61033863420491
H           15.09789862624763       -3.80893174990268       -2.02573171794915
C           20.34518810618436       -4.26872295867069       -0.01757883293779
H           20.93769920315252       -5.17254116924228        0.02342244102989
C           21.03827896325193        0.36550134620481        1.01949189733783
H           21.84630981204796        0.95502130180821        1.42461764799615
C           16.72409864844661        1.44432374599615       -0.79545110033374
H           16.15119106664404        2.34768594293181       -0.94490458462161
C           19.26523548384137       -6.91587543787506       -1.14922118771228
H           18.64108690749425       -7.69410131881558       -1.58132750297310
H           19.53677323635117       -7.22432657564108       -0.13950874815473
H           20.18182660597842       -6.84875679761546       -1.73593655886327
C           16.32310751103795       -6.23952268503506       -2.23327133441254
H           15.78843276036726       -5.74528656901304       -3.04120945982962
H           15.58810697039287       -6.59545420996171       -1.50968595706795
H           16.83312459986500       -7.10707791858830       -2.64699500215012
C           23.14488072335155       -4.17957165717638        1.31494036801170
H           23.69519787934964       -4.39003809002298        0.39557854094756
H           22.60007173980113       -5.08194184369142        1.58712614725091
H           23.86696041633465       -3.96913726872798        2.09974798365076
C           23.55898183143428       -1.14503757592832        2.12490131107937
H           24.48387151256948       -1.70497827254912        1.99481924865496
C           23.61353499670863       -0.03132026303344        2.85737940001042
H           22.73853143388376        0.54447007498233        3.10542465224428
H           24.54147983427782        0.34411656717522        3.26078219478433
C           20.99671421403252        3.45271164732958        0.88673319227344
H           21.97780904196057        2.99872380312588        0.77071259027836
H           20.87503963352094        3.73213840552009        1.93467121698998
H           20.97125700608980        4.36290326496319        0.29142036108061
C           18.23420469467375        4.19797695544430       -0.31913730521524
H           18.57728495886899        4.93578213067267        0.40009040618488
C           17.47463728251391        4.60682484154488       -1.33523606022719
H           17.16219875836690        3.92590013363891       -2.10780604382498
H           17.17165566104383        5.63497274757744       -1.44340135426017
C           13.70389037785746        1.27396302117349       -1.38061076109840
H           13.88864251541257        1.96477545481690       -2.20341261917018
H           13.79059704558665        1.83349744626840       -0.44927577275571
H           12.68257936993453        0.90997708402545       -1.46188882988766
C           13.14533136193629       -1.83637686368842       -2.00352939516404
H           12.41556796518662       -1.10129569902042       -2.33374785766674
H           12.73604984790731       -2.35801522305514       -1.13648726573149
H           13.27898402815301       -2.56532257928085       -2.80016292634834
O           19.35623032835955       -1.33044551263439       -2.39399977673835
H           19.16951953564051       -2.08151258172486       -2.97031933294863
H           19.77189895903766       -0.59962637265984       -2.86072321322941
C           15.21741330575817       -1.11358920663379        4.59129561650921
H           15.69516698444083       -0.75006297047699        5.50094091479878
H           14.59674759453953       -1.96911084020244        4.85615311964986
H           14.57707143421796       -0.32993163009115        4.20101453233479
N           17.16852982022735       -2.46579295045464        3.79845888680030
H           17.25324923195494       -3.00903687742810        4.64343227524887
C           16.23507399078553       -1.48758546219014        3.57369658927038
C           17.94258305948792       -2.55387228104885        2.69218445099916
H           18.75544886284451       -3.24396177079751        2.59744274528497
N           17.56455168515324       -1.69692041206021        1.77841124107809
C           16.50094543083199       -1.02628534317606        2.31390746988156
H           15.99841984702025       -0.26100826716002        1.75963394829033
78
 energy: -116.047175899608 gnorm: 0.027434118425 xtb: 6.7.1 (edcfbbe)
Fe          18.47656439221305       -1.42960802936145       -0.28148065014408
N           18.18820817326797       -3.35551949691002       -0.72589371045230
N           20.31186633616406       -1.87442748457644        0.45507870316034
N           18.82571146671856        0.52790002661355       -0.00693539724344
N           16.65629316186637       -0.98657772482713       -1.00220160079057
C           17.08744771485826       -3.90081574800444       -1.31016998038528
C           17.29982576587549       -5.30643588155378       -1.57593571196644
C           18.54755751203506       -5.59936690826589       -1.11755826512531
C           19.08634273980996       -4.36692292651159       -0.58544045132848
C           20.89734352209056       -3.09895468573607        0.49791400023067
C           22.19429390445119       -3.01919664887049        1.11990038726496
C           22.37574027668586       -1.70642415318248        1.47667912115831
C           21.18924105795299       -1.00559425299002        1.01594199422844
C           19.96759682153835        1.06885687449753        0.49527257438698
C           19.91229669284827        2.50550096151431        0.45835752777855
C           18.69761829069078        2.82958864447259       -0.08966915161780
C           18.02591968985900        1.57044680967113       -0.34959297704666
C           16.07345797249416        0.23973211271508       -1.01031810704913
C           14.67573219262602        0.13081893614050       -1.37178694364656
C           14.44511367010267       -1.18671541561095       -1.62152172158624
C           15.70223859503206       -1.87019406435326       -1.39210143229088
C           15.91364780210774       -3.22335630357508       -1.58840766658122
H           15.09411309961193       -3.80046273349788       -1.98970578794778
C           20.33840773164049       -4.26108430909918       -0.01068955077099
H           20.93305208949359       -5.16113680267126        0.03450272178474
C           21.04421829820001        0.36631815583959        0.99958295941283
H           21.86566700094568        0.95658150183369        1.37440583993492
C           16.71519197648384        1.44005639602406       -0.76859159239923
H           16.14022277548501        2.34410786748782       -0.90088582503612
C           19.26698200860860       -6.90419682617209       -1.14166313898066
H           18.64172496705278       -7.68002077010739       -1.57759151797193
H           19.53840270580982       -7.21441957060367       -0.13233956859713
H           20.18358341750745       -6.82960309720899       -1.72842513710741
C           16.32064370634991       -6.22307857516391       -2.22713631609078
H           15.79494811727301       -5.72155633796430       -3.03747725076970
H           15.57930220907303       -6.57239207889732       -1.50626509956077
H           16.82723634268747       -7.09432685457017       -2.63837762320005
C           23.12653485484870       -4.16515404935172        1.31988488201419
H           23.67117591382894       -4.37679460210173        0.39690920078681
H           22.58414545581596       -5.06640639856540        1.60135184387124
H           23.85203451793598       -3.94537622420932        2.09975587772516
C           23.54430539440865       -1.15007632971398        2.11455178786739
H           24.46088528617128       -1.71138110104319        1.94340017635245
C           23.61200844766747       -0.06331854840411        2.88428677298453
H           22.74713185514159        0.52039587603099        3.15169282623168
H           24.54978429728170        0.28007439425914        3.29318510314584
C           20.98923710625158        3.44425951530103        0.88791206516780
H           21.97416429880388        2.99757154081853        0.76611255118988
H           20.86988673778233        3.71629732081038        1.93913792762449
H           20.95494991133420        4.35824470420561        0.29708082746180
C           18.22075363623757        4.17147651549240       -0.33178943141934
H           18.56527040362591        4.90069374315748        0.39427039763475
C           17.46996024928889        4.58599526043514       -1.34825103740226
H           17.14357561925334        3.91679359135194       -2.12693910621750
H           17.16948709976249        5.61542300216677       -1.44602860906034
C           13.71601101336598        1.27058692411054       -1.38795133305942
H           13.91918605518287        1.94896669981052       -2.21685555299134
H           13.79674669962803        1.83743613478397       -0.46106142309278
H           12.69379429832191        0.91130638008702       -1.48038773378218
C           13.16165472078202       -1.84366985754184       -2.00287497344928
H           12.43453860812870       -1.10643426143720       -2.33605584905047
H           12.74258387183669       -2.37590298682015       -1.14683138059980
H           13.31156273565754       -2.56223196892513       -2.80646203614517
O           19.41939410272385       -1.34552205851490       -2.34130204897379
H           19.14794153072144       -2.04324287248466       -2.96172872314703
H           19.72553364719016       -0.58005876217788       -2.86509777288549
C           15.22926777721156       -1.11317197151314        4.57009099091158