78
 energy: -115.979048784489 gnorm: 0.275617358144 xtb: 6.7.1 (edcfbbe)
Fe         -38.54000000000000      -71.58499999999998        0.45100000000000
N          -37.95300000000000      -73.37800000000000       -0.31300000000000
N          -40.24299999999999      -71.71099999999998       -0.66100000000000
N          -39.21600000000000      -69.87500000000000        1.35100000000000
N          -36.91800000000000      -71.60100000000000        1.65300000000000
C          -36.77999999999999      -74.04900000000001        0.01800000000000
C          -36.82899999999999      -75.33100000000000       -0.62800000000000
C          -37.92900000000000      -75.38200000000001       -1.36400000000000
C          -38.70000000000000      -74.14700000000001       -1.19600000000000
C          -40.61400000000000      -72.71599999999998       -1.54900000000000
C          -41.85799999999999      -72.39800000000000       -2.16400000000000
C          -42.22600000000000      -71.15700000000000       -1.74000000000000
C          -41.23400000000000      -70.72199999999999       -0.76700000000000
C          -40.42500000000000      -69.25400000000000        1.01900000000000
C          -40.55799999999999      -68.13699999999999        1.92400000000000
C          -39.49800000000000      -68.13600000000000        2.75200000000000
C          -38.62200000000000      -69.23899999999999        2.40600000000000
C          -36.58100000000000      -70.57299999999999        2.52800000000000
C          -35.25500000000000      -70.71599999999999        3.02000000000000
C          -34.72899999999999      -71.93600000000001        2.37600000000000
C          -35.80000000000000      -72.45600000000000        1.56000000000000
C          -35.79700000000000      -73.60100000000000        0.85300000000000
H          -34.91800000000000      -74.23699999999999        0.95800000000000
C          -39.90800000000000      -73.85400000000000       -1.74400000000000
H          -40.34900000000000      -74.60400000000000       -2.40100000000000
C          -41.28500000000000      -69.58299999999998       -0.00900000000000
H          -42.07800000000000      -68.87100000000000       -0.23800000000000
C          -37.36400000000000      -69.50500000000000        2.95100000000000
H          -36.98299999999999      -68.85200000000000        3.73600000000000
C          -38.40600000000000      -76.55500000000001       -2.29200000000000
H          -37.66600000000000      -77.38299999999998       -2.25300000000000
H          -38.48899999999999      -76.19499999999998       -3.34000000000000
H          -39.39000000000000      -76.93400000000000       -1.94200000000000
C          -35.75500000000000      -76.39500000000000       -0.48700000000000
H          -35.27400000000000      -76.30600000000000        0.51000000000000
H          -34.98300000000000      -76.25499999999998       -1.27300000000000
H          -36.21200000000000      -77.40400000000000       -0.57800000000000
C          -42.56800000000000      -73.26700000000000       -3.21800000000000
H          -42.31800000000000      -74.33600000000000       -3.04700000000000
H          -42.22800000000000      -72.97600000000000       -4.23500000000000
H          -43.66800000000000      -73.13600000000000       -3.13300000000000
C          -43.40100000000000      -70.30700000000000       -2.10600000000000
H          -43.77700000000000      -69.56200000000000       -1.38900000000000
C          -44.03200000000000      -70.40800000000000       -3.28700000000000
H          -43.69600000000000      -71.13700000000000       -4.03900000000000
H          -44.89300000000000      -69.76300000000001       -3.51700000000000
C          -41.77500000000000      -67.20200000000000        1.93200000000000
H          -42.67600000000000      -67.76399999999998        1.60600000000000
H          -41.60400000000000      -66.35700000000000        1.23100000000000
H          -41.94400000000000      -66.81399999999999        2.95900000000000
C          -39.22000000000000      -67.27300000000000        3.95000000000000
H          -38.74100000000000      -67.73399999999999        4.82600000000000
C          -39.50500000000000      -65.98600000000000        4.04600000000000
H          -39.98500000000000      -65.45699999999999        3.21000000000000
H          -39.26600000000000      -65.42800000000000        4.96300000000000
C          -34.44599999999999      -69.79000000000001        3.93100000000000
H          -34.87100000000000      -69.81500000000000        4.95700000000000
H          -34.49399999999999      -68.74900000000000        3.54600000000000
H          -33.39000000000000      -70.13100000000000        3.97000000000000
C          -33.32300000000000      -72.55100000000000        2.53100000000000
H          -33.27400000000000      -73.12900000000000        3.47800000000000
H          -32.56100000000000      -71.74299999999998        2.56200000000000
H          -33.11700000000000      -73.23500000000000        1.68000000000000
O          -39.54800000000000      -73.01800000000000        2.04100000000000
H          -39.20100000000000      -73.89300000000000        1.86500000000000
H          -40.13100000000000      -72.80100000000000        2.67700000000000
C          -35.21200000000000      -68.00600000000000       -2.39500000000000
H          -35.69799999999999      -67.06900000000000       -2.74000000000000
H          -34.59400000000000      -68.41700000000000       -3.22200000000000
H          -34.56999999999999      -67.77700000000000       -1.51800000000000
N          -37.21400000000000      -69.46100000000000       -2.90900000000000
H          -37.29599999999999      -69.17299999999999       -3.86300000000000
C          -36.25900000000000      -68.99700000000000       -2.00800000000000
C          -37.97800000000000      -70.33799999999999       -2.27600000000000
H          -38.77199999999999      -70.91000000000000       -2.75500000000000
N          -37.62300000000000      -70.39899999999999       -1.00000000000000
C          -36.54200000000000      -69.57299999999999       -0.81200000000000
H          -36.07300000000000      -69.47199999999999        0.15900000000000
78
 energy: -116.032698171193 gnorm: 0.109802409081 xtb: 6.7.1 (edcfbbe)
Fe         -38.55450235365212      -71.60202274689554        0.46331927950521
N          -37.94963011133397      -73.36647349351331       -0.31861621134295
N          -40.24802270154550      -71.69890409030367       -0.66874683350153
N          -39.22169604080234      -69.90111417441244        1.34959574108729
N          -36.90642352413187      -71.57335411619535        1.64090620219844
C          -36.80310213668886      -74.05080227756788        0.01629328873191
C          -36.81966533756139      -75.34024474392260       -0.63815608601652
C          -37.94123796592736      -75.40194684741857       -1.38264453011748
C          -38.67392934027158      -74.15816995565666       -1.18112783030695
C          -40.62025686368151      -72.70359669370518       -1.53400688715863
C          -41.86048587254160      -72.38248229704494       -2.18129389525478
C          -42.23323390873143      -71.14083749313592       -1.73837799461003
C          -41.22840029889764      -70.73212404645992       -0.76480744571878
C          -40.39414657568369      -69.24566993432957        1.02499101726676
C          -40.56308429205583      -68.12993393940857        1.93185926592718
C          -39.49623943435798      -68.13244187920110        2.77717459640641
C          -38.63563034348177      -69.24145351931347        2.39004575916461
C          -36.56812137299434      -70.57742173043377        2.52172689707530
C          -35.22623464747610      -70.74411527811637        3.00115826642692
C          -34.73390066078024      -71.91288136636410        2.39033877213964
C          -35.80772857526225      -72.41909707499347        1.57364876697341
C          -35.80476595538350      -73.59296806762944        0.85334491760908
H          -34.92813503288912      -74.22818379605908        0.95424618949677
C          -39.89633659796389      -73.85963505950009       -1.73642466437697
H          -40.33134535692396      -74.60210188827681       -2.39874409399411
C          -41.26582551745825      -69.58241649812086       -0.00167737820093
H          -42.06845356181893      -68.88222805343354       -0.21662149347246
C          -37.38088212671871      -69.51833572216545        2.93065184101733
H          -37.00022895970474      -68.86491855233038        3.70982535825938
C          -38.40260930918389      -76.54297814345951       -2.28073634429505
H          -37.67945437027454      -77.36381940784139       -2.25292364134937
H          -38.49038122661577      -76.19649186931873       -3.31603558129006
H          -39.37465428340805      -76.92248140992271       -1.94818596986318
C          -35.75668701032006      -76.39079518291808       -0.48681681757479
H          -35.27853475588418      -76.31285994221653        0.49450330273745
H          -34.99054552334646      -76.26412637275232       -1.26032699757734
H          -36.19612540561962      -77.38930218986184       -0.57919112366166
C          -42.55852315006372      -73.25828726817109       -3.20166374232215
H          -42.32142636597710      -74.31636551176010       -3.04603523347881
H          -42.23557426138607      -72.98404019141215       -4.21426494976053
H          -43.64460303717625      -73.13629990299707       -3.13110466827634
C          -43.39599910801181      -70.32212043668831       -2.10949652579254
H          -43.75212836144848      -69.58334825312664       -1.39228420470522
C          -44.02839864745934      -70.41154096640656       -3.27977443745865
H          -43.70539944047592      -71.11235475314137       -4.03802014644099
H          -44.87665848510554      -69.77580657382003       -3.51289645155409
C          -41.76364625772415      -67.21222473070475        1.93422794919898
H          -42.65916373529845      -67.75483277248593        1.61259099387151
H          -41.60642216376736      -66.37174145873341        1.24667781092761
H          -41.93785935619525      -66.81849998278635        2.94090745924892
C          -39.22317555457024      -67.27610748987115        3.94432156135950
H          -38.74187895858177      -67.74840699498220        4.80026715313852
C          -39.51149703054372      -65.98538819140018        4.04191992883012
H          -39.97509753373360      -65.45037740614359        3.22229931545347
H          -39.27665446422922      -65.42800435683873        4.94301019292790
C          -34.45903753915000      -69.81405223712422        3.91404518370701
H          -34.86770775067428      -69.82153695939297        4.93352045924870
H          -34.49617753224933      -68.77847178766257        3.54917514190993
H          -33.41185209872711      -70.12594302141557        3.96810348722281
C          -33.35569128484931      -72.53371219540172        2.53393845700646
H          -33.28141875691182      -73.11431637635582        3.46297180794857
H          -32.58216666647065      -71.75727797318498        2.56058465564817
H          -33.13217871107189      -73.20869609098266        1.69893916884955
O          -39.53256824323437      -73.00828227822069        2.01834304986290
H          -39.20627230218877      -73.89435143250678        1.87212283281401
H          -40.14764141047807      -72.80161959638143        2.69801312465973
C          -35.21764823735661      -68.00294852711288       -2.39752231232925
H          -35.68360699382444      -67.07217090033403       -2.74002095875884
H          -34.59783353220548      -68.40294408411208       -3.20904098903192
H          -34.58118224078621      -67.78161528854498       -1.53664001741180
N          -37.19707723884406      -69.46162544401896       -2.90675546264770
H          -37.28096943244906      -69.17371597324166       -3.86649007899202
C          -36.26456333389270      -68.98547256967564       -2.00874931164500
C          -37.97821802955512      -70.33828644552531       -2.25908817614855
H          -38.76735076250075      -70.89850089220027       -2.73337819669558
N          -37.62102954654706      -70.43104531992358       -0.99424829574356
C          -36.55638472329596      -69.58412358322940       -0.82002205534444
H          -36.08568036961579      -69.48181392778274        0.14134883836407
78
 energy: -116.046163898681 gnorm: 0.029766037321 xtb: 6.7.1 (edcfbbe)
Fe         -38.55983256714256      -71.60820584742326        0.46712140374927
N          -37.95539961082105      -73.36207043998026       -0.30986326221180
N          -40.25435950284321      -71.69820465983673       -0.66345037990837
N          -39.22749730164893      -69.92351313948400        1.34576655852585
N          -36.89867354446173      -71.55568840953399        1.63180621293101
C          -36.82208277232731      -74.04528861705180        0.01638600326654
C          -36.81322515241316      -75.33909476176238       -0.63886004097281
C          -37.94875317663945      -75.40778792758228       -1.38694415580077
C          -38.65627478252726      -74.16140101843838       -1.16561827094110
C          -40.61513850585030      -72.69491403600603       -1.52134992275526
C          -41.85076295571815      -72.37220419953687       -2.19218691262701
C          -42.22636347237911      -71.13031951695260       -1.73495337572174
C          -41.21772138141849      -70.74373241964632       -0.75660430459694
C          -40.37375639831254      -69.25131335770122        1.03396418783214
C          -40.55993960756060      -68.12969599372919        1.93009867042100
C          -39.49041400770844      -68.13675906728794        2.78837933539694
C          -38.65050842267411      -69.25639369177649        2.38064593906227
C          -36.56143027443746      -70.57499168680279        2.50804275831897
C          -35.20779781740965      -70.76481343632483        2.98370707163795
C          -34.74459086985752      -71.89541510756248        2.39463612478175
C          -35.82084153027305      -72.39201068417337        1.56864826339667
C          -35.81217172879968      -73.57961774972007        0.84641093724503
H          -34.93979372529615      -74.21258391607627        0.95021094256574
C          -39.88200790099989      -73.85764889867805       -1.73206047896425
H          -40.30962687074659      -74.59379424548715       -2.39909529292776
C          -41.25252580747718      -69.58977961395647        0.01113786439237
H          -42.06163466950885      -68.89870714856256       -0.18936939856850
C          -37.39660708812802      -69.53291429549552        2.90950019864713
H          -37.01773193740694      -68.87590218095012        3.68129633034585
C          -38.40116649386998      -76.52200727445332       -2.26714944967795
H          -37.68685259010795      -77.34034309891855       -2.24543796847471
H          -38.49450338918941      -76.18668613632211       -3.29870038067241
H          -39.36891069225922      -76.90560870083650       -1.94824798616183
C          -35.75697018113384      -76.38227123735051       -0.48705349447275
H          -35.28044234681770      -76.31350002623891        0.48637199008108
H          -34.99054424464800      -76.26666132008647       -1.25289184915163
H          -36.18628626376086      -77.37649103234307       -0.58386466026937
C          -42.54526922726072      -73.24669398941609       -3.18545341511456
H          -42.31192460109243      -74.29648574086232       -3.02685667163371
H          -42.23664142125155      -72.98824869942014       -4.20030509596988
H          -43.62415663570275      -73.12560627438796       -3.11708861332962
C          -43.37512804360131      -70.33267599996918       -2.11121621518778
H          -43.71894207200917      -69.60614974349606       -1.38469555883992
C          -44.01838945939091      -70.41164728305097       -3.27373409180544
H          -43.71048170391405      -71.08902984508379       -4.04723316157788
H          -44.86710285499166      -69.78790915926500       -3.49759131608422
C          -41.74730884635900      -67.22481186620699        1.93459356561409
H          -42.64184104310007      -67.75703159477456        1.61893244741583
H          -41.59941387817383      -66.38571285056638        1.25388629779567
H          -41.91826722872594      -66.82611020320851        2.93187569627678
C          -39.22111580641759      -67.28515492893069        3.93010126285094
H          -38.73471282961231      -67.76735178572436        4.77054599325400
C          -39.51626708951856      -65.99241499290964        4.03125339852943
H          -39.97022140258839      -65.44756233526232        3.22434852724481
H          -39.29030074542160      -65.43504105083572        4.92472655269687
C          -34.47019709158910      -69.83750112979217        3.89863144534023
H          -34.88497739145832      -69.84486669559836        4.90758896901475
H          -34.51180862754872      -68.80886536422886        3.53675804427457
H          -33.42568930384492      -70.13143859569512        3.96537478068362
C          -33.38866155951808      -72.51684240817103        2.53472754166344
H          -33.31064655521596      -73.09756588436787        3.45580150211590
H          -32.61257980654759      -71.75287512004300        2.56209191354544
H          -33.16589138864009      -73.18305025256956        1.70374759073693
O          -39.52554828795930      -72.98436421837258        1.99850413077183
H          -39.22527288766456      -73.88858562994753        1.89505209314254
H          -40.14749397952392      -72.80426586183290        2.70290377203419
C          -35.22445660508694      -67.99935744291633       -2.39553833082383
H          -35.67654463699127      -67.07065521317205       -2.73924108870434
H          -34.60519553540721      -68.39565289109208       -3.19897507790537
H          -34.59033915955875      -67.78399182106770       -1.54302979293378
N          -37.18542949186384      -69.46618488437720       -2.90565831682372
H          -37.26993112815072      -69.18128967823473       -3.86849756608339
C          -36.27033548892554      -68.97973843343526       -2.00825413805111
C          -37.97476140476072      -70.34492978668251       -2.25026541271331
H          -38.76623122170720      -70.89247551854926       -2.71837092654972
N          -37.62203892649751      -70.44767571888110       -0.99296828527846
C          -36.56298684241901      -69.59906702060681       -0.82687588883550
H          -36.09135820541456      -69.49178719292621        0.12797423152302
78
 energy: -116.048586795821 gnorm: 0.017424727836 xtb: 6.7.1 (edcfbbe)
Fe         -38.56220737902151      -71.61187625556099        0.46852955283044
N          -37.95346537897772      -73.35786763645707       -0.30823421643381
N          -40.24662259448606      -71.69757628686905       -0.66249755164625
N          -39.23284070422061      -69.93931947897140        1.34546940823304
N          -36.89586522284149      -71.54470938591700        1.61520662527640
C          -36.82301793136550      -74.04073362273135        0.01579360556130
C          -36.80732218305925      -75.33310748204870       -0.63806746005805
C          -37.94534340752362      -75.40140753955869       -1.38435611959192
C          -38.65048864623262      -74.15842376625807       -1.16063706451847
C          -40.60154298519433      -72.69115806252753       -1.52118148745065
C          -41.83165802003234      -72.36543735312689       -2.19853547150520
C          -42.20904297192706      -71.12587620169160       -1.73868589879560
C          -41.20853998984112      -70.74663949460682       -0.75281272645133
C          -40.37274204287469      -69.26316576829547        1.03723285229194
C          -40.55666476804546      -68.13931358372847        1.92629857312199
C          -39.48680700117477      -68.14728609709363        2.78387837482634
C          -38.65627074668603      -69.26976782311138        2.37637134766911
C          -36.56381983570060      -70.56605487318467        2.49388907714712
C          -35.21081204501538      -70.75876595018615        2.97364923446377
C          -34.75065157383727      -71.89325972828449        2.38322590572425
C          -35.82766884309856      -72.38454092058049        1.55298399821144
C          -35.81194268327148      -73.57365533321779        0.83948068228181
H          -34.93848892865758      -74.20141261863309        0.94376992211746
C          -39.87177564069690      -73.85417567013850       -1.73319947279921
H          -40.29031699386339      -74.58512999997922       -2.40982928078849
C          -41.25356109855736      -69.59793884486479        0.01932060969419
H          -42.07022837720775      -68.91408787007076       -0.16648116083878
C          -37.40204194093203      -69.53593173345462        2.89793410781184
H          -37.02656624128372      -68.87423356899831        3.66517897150418
C          -38.40558219249263      -76.51049637158134       -2.26324219856225
H          -37.69280690191766      -77.33085521219790       -2.24397122937665
H          -38.50190318217279      -76.17113016736181       -3.29405425070760
H          -39.37575121380274      -76.88993315754708       -1.94342498291888
C          -35.75054957992731      -76.37461064330655       -0.48820906149108
H          -35.27596073452033      -76.31117770147185        0.48712641428167
H          -34.98049647173971      -76.25830389777876       -1.25118437281130
H          -36.17881775342342      -77.36929710622555       -0.59184413185179
C          -42.53327985753501      -73.24349814192247       -3.17613943461838
H          -42.30065416104065      -74.29122286223034       -3.00277282854125
H          -42.23339107094290      -72.99851830933405       -4.19744395344440
H          -43.61069580073957      -73.11331005650540       -3.09801694486401
C          -43.35938027030446      -70.33603754403701       -2.10732132310858
H          -43.69535535690258      -69.61703928268128       -1.37000764652253
C          -44.01297966795314      -70.40583460242334       -3.26520198784516
H          -43.70315230855535      -71.05894634953270       -4.06152824439362
H          -44.86761839697744      -69.78457087944803       -3.47178705409722
C          -41.73723798265019      -67.23208485502856        1.93396282290231
H          -42.63549227785694      -67.76303953986378        1.62628860675474
H          -41.59026922660053      -66.39460045013058        1.25066376578216
H          -41.89618958999812      -66.83021480607701        2.93248890954361
C          -39.21379075666895      -67.29335429456802        3.91774805449466
H          -38.71522987138845      -67.77682801452501        4.75040060060316
C          -39.51941392836869      -66.00280307063265        4.02045098662467
H          -39.97140995568762      -65.45407052216497        3.21424185708570
H          -39.29958380669554      -65.44337716801144        4.91397718990014
C          -34.48306419873470      -69.84156106730678        3.89716347195532
H          -34.91394949690060      -69.86311059437200        4.89801832816547
H          -34.52961624080009      -68.81507150389550        3.53379790341349
H          -33.43826925783278      -70.13369407791717        3.97175372459809
C          -33.40338832257636      -72.51633326890556        2.53069603175106
H          -33.33931542037921      -73.09552372672775        3.45284239783976
H          -32.63135719293268      -71.74914237185438        2.56507291231169
H          -33.18445897468923      -73.17736430130145        1.69646544123913
O          -39.53619190284221      -72.96124120593635        1.99910555325502
H          -39.24983664182743      -73.87557752244929        1.92804235696429
H          -40.15028908729223      -72.78893598060333        2.71442429619414
C          -35.23260830943471      -68.00001139415780       -2.38959059906296
H          -35.68236427575354      -67.06984778706655       -2.73399886665409
H          -34.61011757582603      -68.39323227118578       -3.19245010097824
H          -34.60012016461503      -67.78486045430624       -1.53552795535787
N          -37.18419528564387      -69.47722142945581       -2.90580355263331
H          -37.26569091032047      -69.19596439808195       -3.86974660806252
C          -36.27557182325055      -68.98542530793577       -2.00570522522279
C          -37.97358648883777      -70.35829380038028       -2.25062554299613
H          -38.77167291602126      -70.89817022209145       -2.71547513796710
N          -37.61955176629191      -70.46413649800013       -0.99475867961102
C          -36.56577278226377      -69.61168721605107       -0.82686970637352
H          -36.09270247244484      -69.50258564328298        0.12627505652498
78
 energy: -116.049994302139 gnorm: 0.011084595491 xtb: 6.7.1 (edcfbbe)
Fe         -38.56249406994250      -71.61336661921203        0.46664551470152
N          -37.95271389356249      -73.35579260880674       -0.30077146368200
N          -40.23427493811342      -71.69805066921943       -0.65818262997052
N          -39.23541834692885      -69.95385631320515        1.34093921646696
N          -36.90212734318339      -71.54138466045636        1.60068476230383
C          -36.82001745187829      -74.03648299501141        0.01556451914792
C          -36.80013835972009      -75.32646005423626       -0.63780717926844
C          -37.93965968829458      -75.39363627722160       -1.38082968667908
C          -38.64508281739614      -74.15408935264894       -1.15663962803330
C          -40.58257009980593      -72.68587148597597       -1.52472215449983
C          -41.80699608661905      -72.35752252118070       -2.20720314146857
C          -42.18796564288146      -71.12191262432363       -1.74374171008307
C          -41.19747901229068      -70.74909523932808       -0.74943457971091
C          -40.37479360547032      -69.27696427447952        1.03911041932538
C          -40.55253916078983      -68.15078653949254        1.92129958506190
C          -39.48061027698873      -68.15898558883966        2.77501398531892
C          -38.65814547933694      -69.28295702864308        2.36911020690939
C          -36.56869954372994      -70.56175016034858        2.47904234526200
C          -35.21858056796373      -70.75516324687094        2.96212341361083
C          -34.75861064461694      -71.89109067897635        2.36846764706102
C          -35.83594231996283      -72.37822598413040        1.53503089277717
C          -35.80665660994678      -73.56661754978191        0.83006034690369
H          -34.92943514779649      -74.18651765105955        0.93389937502493
C          -39.85816230402948      -73.84765677723018       -1.74028797737980
H          -40.26683860258679      -74.57263382342795       -2.42814761319637
C          -41.25925832275407      -69.60791085489087        0.02773165130181
H          -42.08367356056741      -68.93199316427508       -0.14329944571082
C          -37.40295666629210      -69.53838000239202        2.88551765827714
H          -37.03058575077549      -68.87065169428345        3.64800958577363
C          -38.41073852740817      -76.49902837976784       -2.26157192466548
H          -37.70353781791867      -77.32517032743124       -2.24765991122053
H          -38.51065534720023      -76.15351791415225       -3.29112768663692
H          -39.38358336501808      -76.86985903632272       -1.93637923380297
C          -35.74016943782694      -76.36481570183537       -0.49136088848684
H          -35.27059041774415      -76.30816464033222        0.48816527295361
H          -34.96489164007810      -76.24018775903475       -1.24924318353829
H          -36.16570428373623      -77.36079436259367       -0.60628451772975
C          -42.51957375138389      -73.24066781148946       -3.16966606720423
H          -42.29294835320356      -74.28755442748819       -2.97821743415205
H          -42.22833753751292      -73.01567459504648       -4.19856080168224
H          -43.59557287586004      -73.09679107891164       -3.08202156827961
C          -43.34002703593245      -70.33428661984225       -2.10371309354800
H          -43.67973137260408      -69.63465768762211       -1.34868262516988
C          -43.99937482043502      -70.38806927868333       -3.25909390883594
H          -43.70089349690892      -71.02977680875445       -4.06945260262678
H          -44.86903528509310      -69.77682975406297       -3.43913337644504
C          -41.72788938501800      -67.23872325461249        1.93349876120095
H          -42.63289375916232      -67.76707450592050        1.63863633713825
H          -41.58288137973312      -66.40522294256043        1.24384977400788
H          -41.87149603462701      -66.83096533496187        2.93314887959784
C          -39.20050788785662      -67.30115476589698        3.90278705746112
H          -38.69017527961774      -67.78315033583399        4.72966999627123
C          -39.52001876382707      -66.01443796335985        4.00615889316772
H          -39.98525566511672      -65.46852884408477        3.20435874516647
H          -39.30264730821265      -65.45079554633948        4.89850473239940
C          -34.50281395024788      -69.84528987486917        3.89863833265643
H          -34.94978088498613      -69.88139550121221        4.89217519925225
H          -34.55126356072368      -68.81657748882958        3.54266746962053
H          -33.45737996673319      -70.13369291695821        3.98536259444937
C          -33.41636438181314      -72.51779154817409        2.52570148660149
H          -33.36708539741608      -73.10140533251037        3.44615689974967
H          -32.64387625347582      -71.75113302829018        2.57385208785948
H          -33.19312814174607      -73.17379269453328        1.68934066902440
O          -39.56139698901580      -72.93123153056888        1.99763127237169
H          -39.27920884000110      -73.85262089821128        1.98026017011623
H          -40.14718107190437      -72.76292790595127        2.73864475417510
C          -35.24332142537889      -68.00372867241327       -2.38132575220814