78
 energy: -116.058038458177 gnorm: 0.000073625960 xtb: 6.7.1 (edcfbbe)
Fe         -38.58854291841146      -71.66379964258233        0.48274532112850
N          -37.94765900828464      -73.36879693672455       -0.32587508959320
N          -40.24813735122112      -71.74608780104893       -0.61978230050818
N          -39.24649552046553      -69.97055545226111        1.35388845734943
N          -36.94565380030267      -71.60460208079704        1.64416668293127
C          -36.77984408412411      -74.01246135175769       -0.06912802141146
C          -36.66752916294993      -75.21167730065690       -0.87188671783105
C          -37.79946616474008      -75.27581125694313       -1.62115159397439
C          -38.58613988456074      -74.11373369186585       -1.26635395755652
C          -40.58320911014851      -72.71094297887628       -1.51729980020533
C          -41.85032213905289      -72.41894375795842       -2.13850190848807
C          -42.27835918254443      -71.23531531181372       -1.59937018969510
C          -41.25989470789055      -70.84128945344375       -0.64352064365505
C          -40.38468906416345      -69.28816907489156        1.04530755852436
C          -40.49375199277408      -68.09012506227580        1.83541615423749
C          -39.38288864985979      -68.05429502417724        2.63786578652717
C          -38.61992760585213      -69.24344956887192        2.31648498659575
C          -36.62450580316802      -70.65397467428785        2.56433558311485
C          -35.33860643597523      -70.93508017101300        3.16181794553904
C          -34.88493446261746      -72.07432220017014        2.57242223268582
C          -35.90099541035823      -72.47551978237644        1.62606320110533
C          -35.81497419697317      -73.60259206168001        0.83157698885698
H          -34.92818808741778      -74.21052352290010        0.92454497924239
C          -39.81301345667643      -73.81931256123706       -1.82587419550918
H          -40.19876525802483      -74.50439941857184       -2.56558264940839
C          -41.32286576837332      -69.68547665212660        0.10913523905335
H          -42.17158303117320      -69.03701462822117       -0.04490401154745
C          -37.39961342041183      -69.55599369591661        2.88922798709200
H          -37.00788190701197      -68.87675592931765        3.63075963333994
C          -38.21747903841151      -76.30220208266512       -2.61774155375925
H          -37.46036163193584      -77.07613247324807       -2.71692321752546
H          -38.37409867632945      -75.84822046966738       -3.59677278091947
H          -39.15124782057194      -76.77362339740833       -2.31088186226537
C          -35.50888483005863      -76.14798971665327       -0.82776503288913
H          -35.39327892669046      -76.56694182062208        0.17204847620163
H          -34.58550739297229      -75.62852831486951       -1.08526168090543
H          -35.64720354566848      -76.96820748250754       -1.52790815041209
C          -42.55147264666945      -73.30060423783222       -3.11232353905454
H          -42.41550148008240      -74.34822963095536       -2.84866532334344
H          -42.16582024347950      -73.15325899377929       -4.12283447956866
H          -43.61653472612601      -73.07812686515874       -3.11632980510791
C          -43.49742864115199      -70.50166530028207       -1.85693059009604
H          -43.91215709866698      -69.96961288426883       -1.00860906924660
C          -44.12330043757309      -70.43039783152263       -3.02743653631165
H          -43.73480746631827      -70.89854185142399       -3.91501885272536
H          -45.03940297872755      -69.87523947927301       -3.14336420906729
C          -41.64548642288926      -67.14723104003448        1.80908706155160
H          -42.58340099607118      -67.68759532927137        1.68991960943868
H          -41.55392687978673      -66.44433877054838        0.97943071660392
H          -41.68584009039503      -66.58053851193121        2.73720256791131
C          -39.00561424541517      -67.07914752193622        3.63680068997828
H          -38.47092516452222      -67.47032242850746        4.49503087255138
C          -39.25325153221195      -65.77480716674955        3.57400418489034
H          -39.73688217785756      -65.32387782841764        2.72521961070093
H          -38.95470271364361      -65.10615706674567        4.36435486845201
C          -34.69777712758727      -70.09419309707545        4.21228459565269
H          -35.33274264689154      -70.03343752483313        5.09668395241879
H          -34.53301863094994      -69.08077317418626        3.84520624936630
H          -33.73828417987048      -70.51064603327976        4.50874168000583
C          -33.61382549570795      -72.81626976501201        2.80549858963818
H          -33.81914515150825      -73.83381720700152        3.13902995255470
H          -33.01069991040865      -72.32279875293716        3.56367820292293
H          -33.03045395396331      -72.87366919624962        1.88633997483165
O          -39.59431944272870      -72.78182516197171        2.21752351177987
H          -38.82144990488449      -72.96368300884356        2.76330105401144
H          -40.06901651837251      -72.05318198299398        2.63225671691316
C          -35.60935224316270      -67.89092726662516       -2.33878463890676
H          -36.14528017567525      -67.21929679667045       -3.00934109008912
H          -34.70204731591865      -68.22347982232894       -2.84299196852424
H          -35.32991053052385      -67.34072702339520       -1.44582885704491
N          -36.96048632580681      -69.92677027374617       -2.88815344197343
H          -36.81331504035089      -69.88069599120539       -3.88306680349265
C          -36.45903662828343      -69.04905195202977       -1.96305524612519
C          -37.68534588254753      -70.85411448941875       -2.22273322073711
H          -38.19659409127093      -71.66879736771045       -2.69323649064650
N          -37.67280823144557      -70.61696345135147       -0.93332479434269
C          -36.91395084742822      -69.49764107113934       -0.75638195662640
H          -36.74718433495635      -69.09168004894258        0.21949439537764
