72
 energy: -105.980401256140 gnorm: 0.000026856532 xtb: 6.7.1 (edcfbbe)
Fe          42.56176465119251       85.62070348707536      123.22916532319408
N           42.65117355293360       84.11769364450350      124.56897358893417
N           44.06698064665867       84.76619624887716      122.19463912328267
N           42.51592730796936       87.12598112700137      121.92734870162836
N           41.14476235588086       86.49575097894420      124.31976006348297
C           41.91593587618336       83.99032233899135      125.70712625775278
C           42.23634597095966       82.75674194071669      126.38622524416516
C           43.18284647849886       82.13691914877788      125.62967255407783
C           43.43570271796537       83.00513158290630      124.50313412154212
C           44.67254894653654       83.57314502420213      122.45698336522912
C           45.68371720791531       83.28656910212968      121.47404059458496
C           45.67705847762320       84.33887826895165      120.59647097418430
C           44.65385205445637       85.24859325409783      121.06812382846127
C           43.29367632711586       87.27727475838533      120.82238827317018
C           42.93772508690078       88.47677185368207      120.10452378022828
C           41.91515274079201       89.05326893707338      120.80664457888871
C           41.66890949862002       88.18272457591621      121.94111234416700
C           40.50864850291824       87.65971819815546      124.03455296601365
C           39.55150100972154       87.98782904421577      125.06958811561562
C           39.63377824753857       86.99440060489457      125.99307324957658
C           40.63453797318820       86.07029420838305      125.50492737502084
C           40.98358074281848       84.90522579028864      126.16037645029249
H           40.48499964624450       84.68681367352241      127.09176334029215
C           44.36993158082730       82.74019306543529      123.52083621948469
H           44.91528164560393       81.81261775972895      123.59627688243843
C           44.29854657433791       86.41622303576997      120.42231231259197
H           44.83899275608586       86.66869482062997      119.52362263050877
C           40.73158870869029       88.44448807462770      122.92090611859790
H           40.14359014058606       89.34369328950145      122.82288351727914
C           43.87006257512275       80.83490837530523      125.85729642731954
H           43.49449676966255       80.35214610018150      126.75593259029390
H           44.94445357416848       80.98238532483893      125.97135414841041
H           43.70915374141972       80.16314705868048      125.01386032381725
C           41.60905864144780       82.31523200031198      127.66321677234724
H           40.52997785614415       82.21159035992302      127.54591969658193
H           41.79412695879692       83.04423348971177      128.45237141882529
H           42.01238975956213       81.35709608807258      127.98106289932089
C           46.58622421256968       82.10305377523872      121.49290717404523
H           46.09575002619864       81.23305909238331      121.05328637271096
H           46.87108808716231       81.84954172859887      122.51302826708495
H           47.48797289784132       82.31346024974603      120.92160222709131
C           46.51011571679171       84.56874502241786      119.43639185246833
H           46.75828037543678       85.60476171296582      119.23680712739436
C           46.97006857650479       83.62616407607699      118.62077807095908
H           46.71505919321835       82.58802021799529      118.74303473408244
H           47.59850360021345       83.86745546751484      117.77976209422711
C           43.54274398328414       88.91594105436309      118.81774026004288
H           43.73394394002748       88.06117462762346      118.17074384975139
H           44.48981827712394       89.43049063685079      118.98839121712885
H           42.86903573045462       89.59806519479865      118.30356563496964
C           41.17280851077150       90.26134527273375      120.51947587554092
H           40.12534056522382       90.24415817906558      120.79708960216621
C           41.67537953668562       91.35803860742675      119.96262161135786
H           42.71798596050658       91.44632642336563      119.71164071370789
H           41.06169090125795       92.22082780585438      119.76356206552151
C           38.68583279928900       89.19978426497399      125.05833555378527
H           38.05004038101128       89.20902189428553      124.17271081598395
H           39.29533463245885       90.10332447367168      125.04641663823584
H           38.04783682174007       89.22785874455661      125.93816607657891
C           38.88075121137128       86.82107762560797      127.26687156298253
H           38.19484814664422       87.64934121797901      127.42519558387704
H           39.56604844559009       86.77677655808650      128.11336605181111
H           38.30330674365654       85.89614084255187      127.24983115330380
O           44.16688760289804       86.63567475448725      124.41995272939238
H           44.91150048481427       86.59217002175005      123.80917720371176
H           44.32285787442203       85.97642892867864      125.10598438450100
C           39.57594963470898       84.01885321897043      122.94157199486297
H           39.00778840570504       83.22371645054331      122.46864509655201
H           38.98577100629280       84.92833829508366      122.98245478964976
H           39.89041123505440       83.74003881404742      123.94137456119203
S           41.04345364784347       84.39527242239680      121.92011874292454
H           41.61279353217209       83.19595569289865      122.08293213881761
