78
 energy: -115.879114081494 gnorm: 0.362153864766 xtb: 6.7.1 (edcfbbe)
Fe         -17.34200000000000        2.79100000000000       26.17400000000000
N          -18.45600000000000        2.93900000000000       28.04700000000000
N          -17.41100000000000        4.96800000000000       25.94400000000000
N          -16.72200000000000        2.67400000000000       24.22300000000000
N          -17.75400000000000        0.76000000000000       26.21900000000000
C          -18.81300000000000        1.85200000000000       28.73000000000000
C          -19.34600000000000        2.40000000000000       30.09300000000000
C          -19.17400000000000        3.70000000000000       30.02700000000000
C          -18.63300000000000        4.11300000000000       28.69100000000000
C          -17.80600000000000        5.84100000000000       26.89099999999999
C          -17.44200000000000        7.17500000000000       26.43000000000000
C          -16.96600000000000        7.03000000000000       25.11100000000000
C          -16.91700000000000        5.62800000000000       24.86900000000000
C          -16.32600000000000        3.76900000000000       23.43900000000000
C          -15.77300000000000        3.20900000000000       22.26000000000000
C          -15.81100000000000        1.86500000000000       22.31200000000000
C          -16.43400000000000        1.45500000000000       23.55399999999999
C          -17.33700000000000       -0.13500000000000       25.22700000000000
C          -17.71100000000000       -1.48000000000000       25.64399999999999
C          -18.36800000000000       -1.34900000000000       26.94500000000000
C          -18.31900000000000        0.02700000000000       27.25200000000000
C          -18.84200000000000        0.55100000000000       28.41200000000000
H          -19.31000000000000       -0.13600000000000       29.11700000000000
C          -18.28600000000000        5.52900000000000       28.20300000000000
H          -18.41400000000000        6.35300000000000       28.90500000000000
C          -16.43700000000000        5.09200000000000       23.68400000000000
H          -16.12900000000000        5.78300000000000       22.89900000000000
C          -16.66600000000000        0.15800000000000       23.96000000000000
H          -16.34300000000000       -0.66600000000000       23.32400000000000
C          -19.49400000000000        4.55500000000000       31.01500000000000
H          -19.22100000000000        4.10800000000000       31.99500000000000
H          -20.58700000000000        4.75300000000000       31.00100000000000
H          -18.93500000000000        5.50600000000000       30.88400000000000
C          -19.86800000000000        1.46700000000000       31.21300000000000
H          -19.01700000000000        0.90300000000000       31.65200000000000
H          -20.59900000000000        0.74500000000000       30.79000000000000
H          -20.35000000000000        2.07100000000000       32.01100000000000
C          -17.73500000000000        8.50100000000000       27.25700000000000
H          -17.72100000000000        8.27100000000000       28.34400000000000
H          -18.73600000000000        8.89900000000000       26.98600000000000
H          -16.95300000000000        9.26000000000000       27.03900000000000
C          -16.47400000000000        8.00500000000000       24.18000000000000
H          -15.95400000000000        7.67500000000000       23.26800000000000
C          -16.62400000000000        9.36000000000000       24.37700000000000
H          -17.13600000000000        9.74100000000000       25.27300000000000
H          -16.23300000000000       10.07800000000000       23.64100000000000
C          -15.21100000000000        4.21100000000000       21.11400000000000
H          -14.39800000000000        4.83900000000000       21.53700000000000
H          -16.03000000000000        4.87300000000000       20.76000000000000
H          -14.80600000000000        3.62000000000000       20.26500000000000
C          -15.35600000000000        0.76500000000000       21.34100000000000
H          -15.54700000000000       -0.27600000000000       21.63600000000000
C          -14.71500000000000        0.92800000000000       20.10100000000000
H          -14.48200000000000        1.93400000000000       19.72100000000000
H          -14.43900000000000        0.05200000000000       19.49600000000000
C          -17.51300000000000       -2.86600000000000       25.01300000000000
H          -16.77600000000000       -3.44400000000000       25.61000000000000
H          -17.12900000000000       -2.75500000000000       23.97600000000000
H          -18.47800000000000       -3.41500000000000       25.00400000000000
C          -18.92400000000000       -2.52700000000000       27.75500000000000
H          -18.22600000000000       -3.38800000000000       27.68400000000000
H          -19.91200000000000       -2.83000000000000       27.34700000000000
H          -19.02700000000000       -2.23400000000000       28.82200000000000
O          -19.29500000000000        2.85800000000000       25.42599999999999
H          -19.86800000000000        2.92500000000000       26.19000000000000
H          -19.55300000000000        2.83100000000000       24.57600000000000
C          -11.87200000000000        3.31900000000000       26.67700000000000
H          -11.23400000000000        2.41500000000000       26.58000000000000
H          -11.51300000000000        3.92200000000000       27.53800000000000
H          -11.80000000000000        3.91300000000000       25.74100000000000
N          -13.69900000000000        2.14900000000000       27.98300000000000
H          -13.08800000000000        1.78900000000000       28.68800000000000
C          -13.29300000000000        2.90600000000000       26.90600000000000
C          -15.00800000000000        1.98200000000000       27.92800000000000
H          -15.59000000000000        1.42300000000000       28.65900000000000
N          -15.46300000000000        2.60000000000000       26.85500000000000
C          -14.41100000000000        3.18200000000000       26.19800000000000
H          -14.55800000000000        3.74100000000000       25.28300000000000
78
 energy: -115.978922760104 gnorm: 0.163010159771 xtb: 6.7.1 (edcfbbe)
Fe         -17.36580954533644        2.78167691404327       26.15178582565802
N          -18.41428744857276        2.95180823118947       28.01655118950278
N          -17.40371161200174        4.94197077711562       25.95591491891812
N          -16.71333689029709        2.66038975616483       24.23085242323958
N          -17.72252075734219        0.74351208695077       26.21192720046531
C          -18.81756116738318        1.88057115842484       28.73282304346887
C          -19.33337362959751        2.37478787216555       30.06101956018613
C          -19.16413673992419        3.70368842176555       29.99644259197067
C          -18.60821262263461        4.11394697551957       28.67721969964242
C          -17.77587290028337        5.82482321742107       26.91625955889605
C          -17.46875831718909        7.18062349676456       26.44240817750970
C          -16.96678252594177        7.04461864755275       25.14275946259376
C          -16.92551664563047        5.62436610797147       24.88714215271423
C          -16.32756548290908        3.72784535466269       23.43347280521860
C          -15.75746598908315        3.20701188437836       22.22162524621775
C          -15.79795491853047        1.84150282813246       22.27803669877328
C          -16.42404045438644        1.47545194603487       23.55585238042332
C          -17.33838869115347       -0.15072266982712       25.23460561313870
C          -17.71565819491710       -1.48745171283044       25.65803402631227
C          -18.34728770359836       -1.36418810414448       26.91414066788293
C          -18.31547325278219        0.02180129299566       27.22439941952966
C          -18.83934495625798        0.55785502899185       28.40037297265125
H          -19.29726685300645       -0.12855323947359       29.10756009283397
C          -18.28552494484138        5.47102729589174       28.19599028017164
H          -18.42676024846006        6.30264806037997       28.89005761978696
C          -16.44613901830350        5.07510489462897       23.69993890902763
H          -16.13339798035994        5.76433190022916       22.91903070865349
C          -16.68301705551090        0.18222879647649       23.99707857915984
H          -16.36717674654256       -0.64445526855692       23.36002935745083
C          -19.50148408169540        4.59760558592537       31.04772353747542
H          -19.23370800987306        4.13847486865216       32.00920815334481
H          -20.58470740567556        4.78275998971277       31.02780849442908
H          -18.95087623600721        5.53156234098242       30.91549377486597
C          -19.85482054782399        1.48379772190891       31.18797265566294
H          -19.02875302205706        0.91451061392134       31.63975010768638
H          -20.58522735853076        0.76303908924179       30.79531242008492
H          -20.33932900617631        2.06415409429590       31.98684015653577
C          -17.73125861496531        8.47160612653770       27.24626244073481
H          -17.72132124047546        8.26613067551710       28.32360920776949
H          -18.71606553254624        8.88687664538946       26.98681159449858
H          -16.96447191502700        9.23291011476860       27.05002878300578
C          -16.48078436858621        8.02755194168414       24.20288755108644
H          -15.97009978671679        7.68408698700638       23.29694174729318
C          -16.62322482468258        9.35425350029303       24.37119486487821
H          -17.13165205285523        9.74646806472403       25.24072591659220
H          -16.23615646949149       10.06537863445912       23.64827448503273
C          -15.21880701411860        4.18652172472663       21.13237179452829
H          -14.41554057040361        4.81750380604875       21.53855198433181
H          -16.01943710441617        4.84818665591651       20.77312009679355
H          -14.81675668237112        3.63304863303012       20.28133827887638
C          -15.34770169656369        0.78575323621206       21.32204576433191
H          -15.54279785431300       -0.24354954309068       21.62936655416076
C          -14.72909280839792        0.93198455159944       20.12838756983932
H          -14.48552940724904        1.90981219529439       19.72779488394506
H          -14.45148665024889        0.07048114102724       19.52198426587179
C          -17.51203111652746       -2.84378222320522       25.01349041481870
H          -16.78789596228307       -3.43102501235412       25.59854642075859
H          -17.13524466935623       -2.75544669881119       23.98792215018604
H          -18.45947975601628       -3.40069971501808       25.00086054208307
C          -18.91046248842839       -2.50889375335111       27.73866136536502
H          -18.23641579135623       -3.37380539749025       27.68374224390497
H          -19.89274763946802       -2.82159533165458       27.35302312282435
H          -19.02501233765134       -2.23549543637361       28.79737942370138
O          -19.30297967645278        2.86739717413602       25.43466982006118
H          -19.89382636337928        2.92598500558922       26.18331554618601
H          -19.58674186232793        2.83154615507431       24.54317011324270
C          -11.87073528455680        3.31410938410124       26.67975574591656
H          -11.23337122714981        2.42652627914384       26.58084839844067
H          -11.51080534818726        3.91578281039419       27.52440263256727
H          -11.80107535074337        3.90351132932164       25.75875948432169
N          -13.68555035254630        2.15248143605009       27.98247185086683
H          -13.07553141555272        1.78797199760290       28.69175662299400
C          -13.28548468272809        2.90758392361789       26.90820311599992
C          -15.01492621154837        1.98976539465360       27.91696807187706
H          -15.59005112528476        1.43368386805328       28.64159677968248
N          -15.48570501099930        2.60751208323647       26.85220907310613
C          -14.41990064227958        3.17922877775671       26.20781581661254
H          -14.55959213113134        3.73452660272314       25.29729297882946
78
 energy: -116.017933448533 gnorm: 0.048452188390 xtb: 6.7.1 (edcfbbe)
Fe         -17.39073928060762        2.77668963581821       26.13246457501102
N          -18.36578506356256        2.95474952816016       27.98617685593471
N          -17.38588825666871        4.90812576075112       25.97415264760936
N          -16.70489816506899        2.64585723445742       24.23552361995833
N          -17.70238311171937        0.73781859397061       26.20370753445730
C          -18.81212753324420        1.90542420467888       28.73843318925973
C          -19.31417683450589        2.37663978948431       30.01936866987635
C          -19.15189456648255        3.72681627844105       29.96845744819142
C          -18.57466886742123        4.11278258225928       28.66798205680134
C          -17.75433737751430        5.79572093146835       26.94005838575259
C          -17.48173331230878        7.16479049861329       26.46393194125389
C          -16.97291775370032        7.04067588687457       25.17925429795820
C          -16.92666184675200        5.60874620288758       24.90944373991312
C          -16.32957555208877        3.69031891228753       23.43694975397360
C          -15.74958957993343        3.20476753787587       22.20004947543925
C          -15.79135206974789        1.82424877100039       22.26269447326090
C          -16.41607343652831        1.49308353700790       23.56387911283974
C          -17.33129039306497       -0.15477598315634       25.24233424994646
C          -17.71533344507777       -1.49172332952407       25.66875303174598
C          -18.32674377653627       -1.36968451733844       26.88539559108545
C          -18.30626593814361        0.02959282377456       27.20414778877682
C          -18.82435559113455        0.56991341877691       28.38529861982373
H          -19.27786935573666       -0.11658069517673       29.08945238609931
C          -18.27721149901785        5.40746916110652       28.19550956390247
H          -18.44826008268415        6.24356245132692       28.87725498161187
C          -16.45353133592065        5.05031096644609       23.72430599720126
H          -16.13985661102940        5.73747196544468       22.94672556144472
C          -16.69526415151957        0.20481285690311       24.03487972380982
H          -16.39500454841917       -0.62128593600059       23.39218782034794
C          -19.50548910555690        4.63623154015974       31.06676076647061
H          -19.24225842889312        4.16930897511173       32.01437609663073
H          -20.58030166286622        4.81416076552054       31.04920718981354
H          -18.96573218394991        5.56383099033281       30.94725643344979
C          -19.83586293809331        1.50900087285090       31.14402244760912
H          -19.02925897622429        0.93494161140207       31.61181198057194
H          -20.57045050340411        0.78559185158743       30.78190726628715
H          -20.31895456459646        2.08024930182490       31.93992577448589
C          -17.72961424941874        8.42731994255297       27.24069968080122
H          -17.72688859121105        8.24323867389326       28.31379436816755
H          -18.69963030485417        8.86548735781509       26.98374076095102
H          -16.96881907453074        9.18662737509562       27.05170879124775
C          -16.49793388706387        8.03580784239702       24.23271580003397
H          -15.98859846534848        7.67623342835468       23.33922626181415
C          -16.62733007726361        9.35119549106419       24.37124131832873
H          -17.13537880141341        9.76829692921784       25.21618157657927
H          -16.23898191459972       10.05163773978623       23.65096025482608
C          -15.23109577223162        4.15163032690587       21.15448987794356
H          -14.43556886731286        4.78694439026839       21.55326567264889
H          -16.01964228653219        4.81725282549821       20.79436086285695
H          -14.82725370559707        3.63132609086344       20.29465625769594
C          -15.34956710128488        0.80497205078448       21.32385259437550
H          -15.54860755921867       -0.21563505927470       21.64078725729770
C          -14.74253087803379        0.94142205496290       20.15303694237828
H          -14.48555043511755        1.89592030407351       19.72871677935252
H          -14.46443909177878        0.08827292885734       19.54857672475126
C          -17.50853525381479       -2.82233964094346       25.00906543522989
H          -16.79335548495695       -3.41559198783367       25.58713681474773
H          -17.13747019149628       -2.74219340645922       23.99196239033402
H          -18.44615631225802       -3.38252800475235       24.99378889219941
C          -18.89431589980101       -2.48937080562667       27.71755140960647
H          -18.23816304913675       -3.35977369664708       27.67652853840145
H          -19.87454797377925       -2.80439124304759       27.34730267299949
H          -19.01481036932607       -2.21918212925074       28.76723112893134
O          -19.31957416424487        2.88551277893804       25.42810200214791
H          -19.94110459701002        2.92357833106924       26.15602467448758
H          -19.62976143964860        2.82842689198847       24.52690526617151
C          -11.87179916674387        3.30948854857561       26.68111358864889
H          -11.23314771968211        2.43304443974085       26.58191685696541
H          -11.50837878464894        3.91012941581486       27.51470428160643
H          -11.80266251795380        3.89656681135854       25.77050652369395
N          -13.67982653041793        2.15497798652615       27.98152805324570
H          -13.07216964416027        1.78556728211131       28.69410437403494
C          -13.28376181558681        2.90965931363373       26.90941125966951
C          -15.02291950196493        1.99958780198420       27.90696672631240
H          -15.59378650017966        1.44497381089863       28.62498518840641
N          -15.50332522272680        2.61655492589483       26.85052960545693
C          -14.42888917831603        3.18087046289964       26.21784753261951
H          -14.55900991961095        3.73482644260108       25.31073395342748
78
 energy: -116.032413333472 gnorm: 0.033888798002 xtb: 6.7.1 (edcfbbe)
Fe         -17.41470733007992        2.77713108677183       26.12433945482196
N          -18.32200927092691        2.94858890720441       27.97066119139345
N          -17.35918378419601        4.87451822343168       25.99685317973079
N          -16.70235033558554        2.63250573442243       24.24687235766921
N          -17.68516241532003        0.74467899609311       26.20128780075341
C          -18.78586200688583        1.91458502713879       28.73303991439104
C          -19.29213058668733        2.39732590408901       29.99352876596457
C          -19.13371765504249        3.75278489373986       29.95679850520372
C          -18.53937850553491        4.10221507350728       28.66584416946585
C          -17.73145721767076        5.76227331060838       26.95907543152088
C          -17.48545466094889        7.13001600017907       26.48622630417396
C          -16.97728179680382        7.01802069325984       25.20892578459035
C          -16.91637583850460        5.58467409810692       24.93275491348621
C          -16.33147405936132        3.67031147933940       23.45127906319092
C          -15.75576102145448        3.19335189018976       22.21033222839557
C          -15.79569695419003        1.81412446328054       22.27426837925901
C          -16.41264584404776        1.49115528768094       23.57601153528871
C          -17.31802566368864       -0.14755294197508       25.24363260306622
C          -17.70195282854828       -1.48756153279999       25.66219399704741
C          -18.31092789209919       -1.36270205375601       26.87388632772500
C          -18.29003888303600        0.04173042384392       27.19581673549871
C          -18.80110450389669        0.57886210137467       28.37096381046721
H          -19.25381117846320       -0.10691355700529       29.07300133436897
C          -18.25963079809870        5.38121741204038       28.20228853784452
H          -18.47586605813514        6.20974442982307       28.87524688090108
C          -16.45383548572399        5.02791510995037       23.74832150684517
H          -16.14344516263908        5.71329007515519       22.97254588993171
C          -16.69597388080851        0.20805107831790       24.04852844391089
H          -16.41559540516242       -0.61617071366758       23.40257964186879
C          -19.50249184923002        4.67102656694319       31.06896635415981
H          -19.24695979573307        4.20910730956613       32.01984765114115
H          -20.57622364976574        4.85371868450593       31.05940789331872
H          -18.97407542377169        5.61026260276914       30.97297212088253
C          -19.82009698281756        1.53576004043717       31.10428651786407
H          -19.01465779999448        0.96262037493319       31.57134965282575
H          -20.55645323041051        0.81710160508613       30.74204543193663
H          -20.29886754434909        2.12152780149061       31.88777639096185
C          -17.73261356828429        8.38222698281879       27.25824648518109
H          -17.74396282744664        8.19944799818096       28.32996282857726
H          -18.69139203342653        8.83243952678980       26.98266274453610
H          -16.95719250235638        9.12422633297642       27.06810773903359
C          -16.51217186352082        8.02402440497541       24.26894873311205
H          -16.00201147602703        7.65102758268142       23.38656869136230
C          -16.64125332275085        9.34630289822594       24.37402172101694
H          -17.16206602119285        9.80364756875612       25.19278382116911
H          -16.23958547100039       10.02548898699669       23.64055323317612
C          -15.24200054711908        4.13001651597052       21.16967633908149
H          -14.44862309422979        4.76105355788059       21.57672905027471
H          -16.03483732662616        4.79280124101670       20.81714549897452
H          -14.83884998710036        3.61767672816437       20.30532108878390
C          -15.35785098183446        0.80731871313358       21.33805233581170
H          -15.55871133793747       -0.20913902539840       21.65736664061088
C          -14.74763670672483        0.94408326295781       20.16278157327612
H          -14.48313413905777        1.89025838383473       19.72742991697507
H          -14.47542788530424        0.08771218642478       19.56689812836660
C          -17.49784692601882       -2.80602680631520       24.99112972023004
H          -16.78541632401825       -3.40247598947038       25.56640870487406
H          -17.12976837553705       -2.71575269310858       23.97589903510887
H          -18.43661115812975       -3.36150526731308       24.97432931961326
C          -18.88085182416999       -2.47299690309481       27.70139299895686
H          -18.23020213986634       -3.34632630410923       27.66372493675417
H          -19.86074591078410       -2.77966924151047       27.32905153899059
H          -18.99996793891824       -2.19024084970474       28.74482874595772
O          -19.35969805994265        2.92769568906938       25.40474270763948
H          -20.01112380487887        2.90928530646522       26.11460021934042
H          -19.68583927417735        2.81661374800923       24.50701869349022
C          -11.87626762942935        3.30528730662216       26.68236099601921
H          -11.23631607747821        2.43023403264747       26.58246840034218
H          -11.50617322300183        3.90582130149179       27.51245035713681
H          -11.80571877536902        3.89269622630305       25.77338416025444
N          -13.68842268121301        2.15670848250510       27.98062680552569
H          -13.08250446757443        1.78209273422265       28.69314076248234
C          -13.29063516062674        2.91316358692936       26.91071483604831
C          -15.03479820247623        2.00899577071961       27.90137906808914
H          -15.60830371792298        1.45338190445966       28.61377862231525
N          -15.51504161791990        2.62880207295188       26.84914031810222
C          -14.43710612188913        3.19130225199414       26.22334328393929
H          -14.55963619710481        3.74900390777326       25.31907249760470
78
 energy: -116.040989134646 gnorm: 0.037569394119 xtb: 6.7.1 (edcfbbe)
Fe         -17.43105230761898        2.78560705258704       26.12495101380139
N          -18.28404986285804        2.94664754670256       27.95634721782793
N          -17.33428922391112        4.83876375913311       26.01716147870212
N          -16.70568141904599        2.62048309136338       24.26152699342095
N          -17.67760491284446        0.76413009753182       26.19457702781542
C          -18.75437303516962        1.92475001623436       28.72318750179483
C          -19.26789537075410        2.41840101448288       29.97441174023652
C          -19.11079835593603        3.77374413232914       29.94739177321432
C          -18.50797479313354        4.09319075599838       28.66383881419810
C          -17.70908127195386        5.72949969604864       26.97303718724838
C          -17.48368578637067        7.08873166979573       26.50756649217170
C          -16.97955084547424        6.98887580409539       25.23361683681286
C          -16.90282293381735        5.55713323939991       24.95396510202206
C          -16.33418473336349        3.65560948452697       23.46651748937267
C          -15.76439051327264        3.17957386367900       22.22844431922062
C          -15.80112563934432        1.80487606282686       22.29029693526872
C          -16.41262535370972        1.48437748049061       23.58510927274344
C          -17.30796679228589       -0.13287443521294       25.24174845069946
C          -17.68632236443006       -1.47421514223766       25.65382963973253
C          -18.29413525810018       -1.34837939281637       26.86649473467881
C          -18.27260652785963        0.05901084757953       27.18911556303888
C          -18.77454945510686        0.59008868398687       28.36009383727264
H          -19.22568131199973       -0.09559022936871       29.06209391402760
C          -18.24382140059543        5.37379509617808       28.20734715550780
H          -18.49486955252215        6.18951131463529       28.87518340747911
C          -16.45058672734052        5.00723162664395       23.76916232840830
H          -16.14338978911494        5.69163554567429       22.99418374567485
C          -16.69443120722725        0.20521534894330       24.04903344142741
H          -16.43032570412875       -0.61914602838824       23.40301751797091
C          -19.49351203648342        4.70234739068650       31.05968786110893
H          -19.24391839866175        4.25089951833787       32.01873385523623
H          -20.56814333709360        4.89177804094011       31.05388480199023
H          -18.97565844238045        5.65397264534883       30.98315528878129
C          -19.80720868175905        1.56193302139688       31.07257520039765
H          -19.00321123865000        0.98673995360322       31.53695626995600
H          -20.54518802661586        0.85205521918998       30.70051947730168
H          -20.28187008505634        2.16289162445758       31.84437570457806
C          -17.73353139211246        8.33800715480181       27.27909535230637
H          -17.76504301856260        8.15071124562047       28.34939215751693
H          -18.68193156927073        8.79551106171142       26.98419964328602
H          -16.94257968298468        9.06313056435430       27.08774007993201
C          -16.52885567573069        8.00631894969628       24.30556571011622
H          -16.00437034324183        7.62617799922357       23.43774287560834
C          -16.66400900131453        9.33095064354820       24.38468448944111
H          -17.19005653640813        9.82541283333304       25.18230954879281
H          -16.24801010537663        9.98562687151526       23.63403730971906
C          -15.25428945958338        4.11674429304055       21.18596803988712
H          -14.45966415254274        4.74213210031957       21.59730389020208
H          -16.05266862698157        4.77531068316301       20.84016346609537
H          -14.85600689757744        3.60114947416594       20.32243331111756
C          -15.36489988821842        0.80185697423561       21.35247588724832
H          -15.56731817916916       -0.21314384359757       21.66879610760355
C          -14.75386101689213        0.93930038648764       20.17544202904735
H          -14.48308336913331        1.88038085053024       19.73504427086180
H          -14.48990415544257        0.07569172274081       19.58920272621530
C          -17.48344073091400       -2.78332465762355       24.96838763456759
H          -16.77062308648657       -3.38759261853962       25.53431022652537
H          -17.11731596762112       -2.67760344906199       23.95346193420487
H          -18.42347705785091       -3.33625292683243       24.94451487170790
C          -18.86719503783038       -2.45416640551254       27.68797984088332
H          -18.22054960187379       -3.33017728081427       27.65076270992963
H          -19.84687811593383       -2.75272155223512       27.30997416158959
H          -18.98543727443640       -2.16307822433856       28.72811554094934
O          -19.40829774478804        3.01643146439879       25.37655827648696
H          -20.09247219944256        2.86758309443143       26.06492659479655
H          -19.75192031560406        2.77211719019701       24.49215056465715
C          -11.88170743053291        3.30133006688934       26.68505336121447