 Entering Gaussian System, Link 0=g16
 Input=1a6k01.com
 Output=1a6k01.log
 Initial command:
 /sw/chem/gaussian/g16_C02/a100.el9/g16/l1.exe "/local/bebjones_9015456/Gau-1568359.inp" -scrdir="/local/bebjones_9015456/"
 Entering Link 1 = /sw/chem/gaussian/g16_C02/a100.el9/g16/l1.exe PID=   1568360.
  
 Copyright (c) 1988-2021, Gaussian, Inc.  All Rights Reserved.
  
 This is part of the Gaussian(R) 16 program.  It is based on
 the Gaussian(R) 09 system (copyright 2009, Gaussian, Inc.),
 the Gaussian(R) 03 system (copyright 2003, Gaussian, Inc.),
 the Gaussian(R) 98 system (copyright 1998, Gaussian, Inc.),
 the Gaussian(R) 94 system (copyright 1995, Gaussian, Inc.),
 the Gaussian 92(TM) system (copyright 1992, Gaussian, Inc.),
 the Gaussian 90(TM) system (copyright 1990, Gaussian, Inc.),
 the Gaussian 88(TM) system (copyright 1988, Gaussian, Inc.),
 the Gaussian 86(TM) system (copyright 1986, Carnegie Mellon
 University), and the Gaussian 82(TM) system (copyright 1983,
 Carnegie Mellon University). Gaussian is a federally registered
 trademark of Gaussian, Inc.
  
 This software contains proprietary and confidential information,
 including trade secrets, belonging to Gaussian, Inc.
  
 This software is provided under written license and may be
 used, copied, transmitted, or stored only in accord with that
 written license.
  
 The following legend is applicable only to US Government
 contracts under FAR:
  
                    RESTRICTED RIGHTS LEGEND
  
 Use, reproduction and disclosure by the US Government is
 subject to restrictions as set forth in subparagraphs (a)
 and (c) of the Commercial Computer Software - Restricted
 Rights clause in FAR 52.227-19.
  
 Gaussian, Inc.
 340 Quinnipiac St., Bldg. 40, Wallingford CT 06492
  
  
 ---------------------------------------------------------------
 Warning -- This program may not be used in any manner that
 competes with the business of Gaussian, Inc. or will provide
 assistance to any competitor of Gaussian, Inc.  The licensee
 of this program is prohibited from giving any competitor of
 Gaussian, Inc. access to this program.  By using this program,
 the user acknowledges that Gaussian, Inc. is engaged in the
 business of creating and licensing software in the field of
 computational chemistry and represents and warrants to the
 licensee that it is not a competitor of Gaussian, Inc. and that
 it will not use this program in any manner prohibited above.
 ---------------------------------------------------------------
  

 Cite this work as:
 Gaussian 16, Revision C.02,
 M. J. Frisch, G. W. Trucks, H. B. Schlegel, G. E. Scuseria, 
 M. A. Robb, J. R. Cheeseman, G. Scalmani, V. Barone, 
 G. A. Petersson, H. Nakatsuji, X. Li, M. Caricato, A. V. Marenich, 
 J. Bloino, B. G. Janesko, R. Gomperts, B. Mennucci, H. P. Hratchian, 
 J. V. Ortiz, A. F. Izmaylov, J. L. Sonnenberg, D. Williams-Young, 
 F. Ding, F. Lipparini, F. Egidi, J. Goings, B. Peng, A. Petrone, 
 T. Henderson, D. Ranasinghe, V. G. Zakrzewski, J. Gao, N. Rega, 
 G. Zheng, W. Liang, M. Hada, M. Ehara, K. Toyota, R. Fukuda, 
 J. Hasegawa, M. Ishida, T. Nakajima, Y. Honda, O. Kitao, H. Nakai, 
 T. Vreven, K. Throssell, J. A. Montgomery, Jr., J. E. Peralta, 
 F. Ogliaro, M. J. Bearpark, J. J. Heyd, E. N. Brothers, K. N. Kudin, 
 V. N. Staroverov, T. A. Keith, R. Kobayashi, J. Normand, 
 K. Raghavachari, A. P. Rendell, J. C. Burant, S. S. Iyengar, 
 J. Tomasi, M. Cossi, J. M. Millam, M. Klene, C. Adamo, R. Cammi, 
 J. W. Ochterski, R. L. Martin, K. Morokuma, O. Farkas, 
 J. B. Foresman, and D. J. Fox, Gaussian, Inc., Wallingford CT, 2019.
 
 ******************************************
 Gaussian 16:  ES64L-G16RevC.02  7-Dec-2021
                13-Jan-2026 
 ******************************************
 %mem=16GB
 %CPU=0-71
 SetSPE:  set environment variable "OMP_PROC_BIND" = "true"
 SetSPE:  set environment variable "OMP_PLACES" = "{0},{1},{2},{3},{4},{5},{6},{7},{8},{9},{10},{11},{12},{13},{14},{15},{16},{17},{18},{19},{20},{21},{22},{23},{24},{25},{26},{27},{28},{29},{30},{31},{32},{33},{34},{35},{36},{37},{38},{39},{40},{41},{42},{43},{44},{45},{46},{47},{48},{49},{50},{51},{52},{53},{54},{55},{56},{57},{58},{59},{60},{61},{62},{63},{64},{65},{66},{67},{68},{69},{70},{71}"
 Will use up to   72 processors via shared memory.
 %gpucpu=0,1,2,3=0,1,2,3
 Will use    4 GPUs:
 Thread  CPU   GPU
      0    0     0
      1    1     1
      2    2     2
      3    3     3
      4    4    -1
      5    5    -1
      6    6    -1
      7    7    -1
      8    8    -1
      9    9    -1
     10   10    -1
     11   11    -1
     12   12    -1
     13   13    -1
     14   14    -1
     15   15    -1
     16   16    -1
     17   17    -1
     18   18    -1
     19   19    -1
     20   20    -1
     21   21    -1
     22   22    -1
     23   23    -1
     24   24    -1
     25   25    -1
     26   26    -1
     27   27    -1
     28   28    -1
     29   29    -1
     30   30    -1
     31   31    -1
     32   32    -1
     33   33    -1
     34   34    -1
     35   35    -1
     36   36    -1
     37   37    -1
     38   38    -1
     39   39    -1
     40   40    -1
     41   41    -1
     42   42    -1
     43   43    -1
     44   44    -1
     45   45    -1
     46   46    -1
     47   47    -1
     48   48    -1
     49   49    -1
     50   50    -1
     51   51    -1
     52   52    -1
     53   53    -1
     54   54    -1
     55   55    -1
     56   56    -1
     57   57    -1
     58   58    -1
     59   59    -1
     60   60    -1
     61   61    -1
     62   62    -1
     63   63    -1
     64   64    -1
     65   65    -1
     66   66    -1
     67   67    -1
     68   68    -1
     69   69    -1
     70   70    -1
     71   71    -1
 SetGPE:  set environment variable "OMP_PROC_BIND" = "true"
 SetGPE:  set environment variable "OMP_PLACES" = "{0},{1},{2},{3},{4},{5},{6},{7},{8},{9},{10},{11},{12},{13},{14},{15},{16},{17},{18},{19},{20},{21},{22},{23},{24},{25},{26},{27},{28},{29},{30},{31},{32},{33},{34},{35},{36},{37},{38},{39},{40},{41},{42},{43},{44},{45},{46},{47},{48},{49},{50},{51},{52},{53},{54},{55},{56},{57},{58},{59},{60},{61},{62},{63},{64},{65},{66},{67},{68},{69},{70},{71}"
 %chk=1a6k_01_opt.chk
 Properties for Device   0
 Minimum vector length:                              32
 Maximum vector length:                            1024
 Number of SMPs:                                    108
 Maximum number of threads per SMP:                2048
 Number of ASync Engines:                             5
 Memory:                                           9206849536
 Properties for Device   1
 Minimum vector length:                              32
 Maximum vector length:                            1024
 Number of SMPs:                                    108
 Maximum number of threads per SMP:                2048
 Number of ASync Engines:                             5
 Memory:                                           9206849536
 Properties for Device   2
 Minimum vector length:                              32
 Maximum vector length:                            1024
 Number of SMPs:                                    108
 Maximum number of threads per SMP:                2048
 Number of ASync Engines:                             5
 Memory:                                           9206849536
 Properties for Device   3
 Minimum vector length:                              32
 Maximum vector length:                            1024
 Number of SMPs:                                    108
 Maximum number of threads per SMP:                2048
 Number of ASync Engines:                             5
 Memory:                                           9206849536
   8286164582 words of memory will be used on each GPU.
 ----------------------------------------------
 # opt polar def2tzvp apfd int=(grid=ultrafine)
 ----------------------------------------------
 1/18=20,19=15,26=4,38=1/1,3;
 2/9=110,12=2,17=6,18=5,40=1/2;
 3/5=44,7=101,11=2,25=1,30=1,71=1,74=-44,75=-5/1,2,3;
 4//1;
 5/5=2,38=5,98=1/2;
 6/7=2,8=2,9=2,10=2,28=1/1;
 7//1,2,3,16;
 1/18=20,19=15,26=4/3(2);
 2/9=110/2;
 99//99;
 2/9=110/2;
 3/5=44,7=101,11=2,25=1,30=1,71=1,74=-44,75=-5/1,2,3;
 4/5=5,16=3,69=1/1;
 5/5=2,38=5,98=1/2;
 7//1,2,3,16;
 1/18=20,19=15,26=4/3(-5);
 2/9=110/2;
 6/7=2,8=2,9=2,10=2,19=2,28=1/1;
 99/9=1/99;
 -----------
 1a6k_01_opt
 -----------
 Symbolic Z-matrix:
 Charge =  0 Multiplicity = 1
 Fe                    14.70292   27.9486   4.77498 
 N                     14.89702   29.27129   6.25179 
 N                     13.8075   26.66884   6.01411 
 N                     14.57456   26.59988   3.28277 
 N                     15.65428   29.21212   3.52821 
 C                     15.48393   30.495    6.19072 
 C                     15.42565   31.15724   7.47643 
 C                     14.7833   30.30252   8.31517 
 C                     14.46041   29.12975   7.53035 
 C                     13.50389   26.88152   7.32131 
 C                     12.84725   25.73163   7.89117 
 C                     12.76467   24.80084   6.89088 
 C                     13.36414   25.41913   5.72217 
 C                     14.02089   25.35666   3.35546 
 C                     14.08764   24.69095   2.0812 
 C                     14.6938   25.56799   1.2197 
 C                     14.9767   26.75929   1.99464 
 C                     15.90979   29.02026   2.20499 
 C                     16.56341   30.17798   1.63844 
 C                     16.69319   31.07806   2.65093 
 C                     16.11632   30.45828   3.82151 
 C                     16.05197   31.06112   5.06423 
 H                     16.47316   32.05032   5.16014 
 C                     13.80247   28.02784   8.03623 
 H                     13.51719   28.05485   9.07676 
 C                     13.47062   24.79428   4.49485 
 H                     13.09274   23.78654   4.41414 
 C                     15.606    27.88025   1.48524 
 H                     15.88154   27.86706   0.44206 
 C                     14.45023   30.46656   9.75829 
 H                     14.79156   31.43054   10.12771 
 H                     14.92525   29.68443   10.35056 
 H                     13.37301   30.40113   9.91353 
 C                     15.98596   32.51084   7.75171 
 H                     15.51217   33.26099   7.11753 
 H                     17.05767   32.52899   7.55292 
 H                     15.82627   32.79124   8.78987 
 C                     12.31939   25.64713   9.28058 
 H                     11.88893   26.59919   9.58753 
 H                     13.11464   25.39375   9.9834 
 H                     11.54968   24.88034   9.34185 
 C                     12.18423   23.4766   6.91846 
 H                     11.71726   23.14908   5.99644 
 C                     12.19001   22.6535   7.96207 
 H                     12.68064   22.90419   8.88612 
 H                     11.7248   21.68269   7.91648 
 C                     13.52728   23.34325   1.78713 
 H                     12.5839   23.19506   2.31067 
 H                     14.21497   22.55729   2.10399 
 H                     13.35264   23.23681   0.71845 
 C                     14.99379   25.40831  -0.18601 
 H                     14.92598   26.30951  -0.78455 
 C                     15.34581   24.26974  -0.77435 
 H                     15.47553   23.35542  -0.22197 
 H                     15.54292   24.21966  -1.83241 
 C                     16.98404   30.29315   0.21342 
 H                     16.12304   30.19865  -0.44879 
 H                     17.69412   29.50632  -0.04251 
 H                     17.45633   31.25431   0.02563 
 C                     17.2966   32.44086   2.63233 
 H                     16.55933   33.19222   2.91686 
 H                     17.66885   32.68566   1.64063 
 H                     18.12783   32.50159   3.33522 
 O                     16.76525   27.04855   5.2169 
 H                     16.73545   26.26231   4.66093 
 H                     17.3209   27.6935   4.76586 
 C                     9.4287    28.73826   3.15228 
 H                     9.26634   29.15417   2.15795 
 H                     8.73966   29.22534   3.84215 
 H                     9.20299   27.67689   3.12633 
 N                     11.3982   30.17933   3.71456 
 H                     10.93556   31.05613   3.53912 
 C                     10.83546   28.93677   3.58366 
 C                     12.67757   30.0095   4.11791 
 H                     13.36144   30.81236   4.30142 
 N                     12.95874   28.73587   4.25009 
 C                     11.82262   28.05615   3.9218 
 H                     11.79153   26.98679   3.94971 
 
 Add virtual bond connecting atoms O64        and Fe1        Dist= 4.33D+00.

 GradGradGradGradGradGradGradGradGradGradGradGradGradGradGradGradGradGrad
 Berny optimization.
 Initialization pass.
                           ----------------------------
                           !    Initial Parameters    !
                           ! (Angstroms and Degrees)  !
 --------------------------                            --------------------------
 ! Name  Definition              Value          Derivative Info.                !
 --------------------------------------------------------------------------------
 ! R1    R(1,2)                  1.992          estimate D2E/DX2                !
 ! R2    R(1,3)                  1.9937         estimate D2E/DX2                !
 ! R3    R(1,4)                  2.0155         estimate D2E/DX2                !
 ! R4    R(1,5)                  2.014          estimate D2E/DX2                !
 ! R5    R(1,64)                 2.2932         estimate D2E/DX2                !
 ! R6    R(1,76)                 1.9843         estimate D2E/DX2                !
 ! R7    R(2,6)                  1.3585         estimate D2E/DX2                !
 ! R8    R(2,9)                  1.3584         estimate D2E/DX2                !
 ! R9    R(3,10)                 1.3587         estimate D2E/DX2                !
 ! R10   R(3,13)                 1.3578         estimate D2E/DX2                !
 ! R11   R(4,14)                 1.3629         estimate D2E/DX2                !
 ! R12   R(4,17)                 1.3588         estimate D2E/DX2                !
 ! R13   R(5,18)                 1.3613         estimate D2E/DX2                !
 ! R14   R(5,21)                 1.361          estimate D2E/DX2                !
 ! R15   R(6,7)                  1.4474         estimate D2E/DX2                !
 ! R16   R(6,22)                 1.3828         estimate D2E/DX2                !
 ! R17   R(7,8)                  1.3589         estimate D2E/DX2                !
 ! R18   R(7,34)                 1.4906         estimate D2E/DX2                !
 ! R19   R(8,9)                  1.4476         estimate D2E/DX2                !
 ! R20   R(8,30)                 1.4901         estimate D2E/DX2                !
 ! R21   R(9,24)                 1.3795         estimate D2E/DX2                !
 ! R22   R(10,11)                1.4416         estimate D2E/DX2                !
 ! R23   R(10,24)                1.3836         estimate D2E/DX2                !
 ! R24   R(11,12)                1.3689         estimate D2E/DX2                !
 ! R25   R(11,38)                1.4887         estimate D2E/DX2                !
 ! R26   R(12,13)                1.4517         estimate D2E/DX2                !
 ! R27   R(12,42)                1.4461         estimate D2E/DX2                !
 ! R28   R(13,26)                1.3813         estimate D2E/DX2                !
 ! R29   R(14,15)                1.4392         estimate D2E/DX2                !
 ! R30   R(14,26)                1.3847         estimate D2E/DX2                !
 ! R31   R(15,16)                1.3707         estimate D2E/DX2                !
 ! R32   R(15,47)                1.4889         estimate D2E/DX2                !
 ! R33   R(16,17)                1.4491         estimate D2E/DX2                !
 ! R34   R(16,51)                1.4462         estimate D2E/DX2                !
 ! R35   R(17,28)                1.3828         estimate D2E/DX2                !
 ! R36   R(18,19)                1.4452         estimate D2E/DX2                !
 ! R37   R(18,28)                1.382          estimate D2E/DX2                !
 ! R38   R(19,20)                1.3609         estimate D2E/DX2                !
 ! R39   R(19,56)                1.4903         estimate D2E/DX2                !
 ! R40   R(20,21)                1.4447         estimate D2E/DX2                !
 ! R41   R(20,60)                1.4905         estimate D2E/DX2                !
 ! R42   R(21,22)                1.3827         estimate D2E/DX2                !
 ! R43   R(22,23)                1.0794         estimate D2E/DX2                !
 ! R44   R(24,25)                1.0793         estimate D2E/DX2                !
 ! R45   R(26,27)                1.0793         estimate D2E/DX2                !
 ! R46   R(28,29)                1.079          estimate D2E/DX2                !
 ! R47   R(30,31)                1.0873         estimate D2E/DX2                !
 ! R48   R(30,32)                1.09           estimate D2E/DX2                !
 ! R49   R(30,33)                1.0903         estimate D2E/DX2                !
 ! R50   R(34,35)                1.0906         estimate D2E/DX2                !
 ! R51   R(34,36)                1.0901         estimate D2E/DX2                !
 ! R52   R(34,37)                1.0871         estimate D2E/DX2                !
 ! R53   R(38,39)                1.089          estimate D2E/DX2                !
 ! R54   R(38,40)                1.0911         estimate D2E/DX2                !
 ! R55   R(38,41)                1.0882         estimate D2E/DX2                !
 ! R56   R(42,43)                1.0842         estimate D2E/DX2                !
 ! R57   R(42,44)                1.3292         estimate D2E/DX2                !
 ! R58   R(44,45)                1.0758         estimate D2E/DX2                !
 ! R59   R(44,46)                1.0775         estimate D2E/DX2                !
 ! R60   R(47,48)                1.089          estimate D2E/DX2                !
 ! R61   R(47,49)                1.0913         estimate D2E/DX2                !
 ! R62   R(47,50)                1.0881         estimate D2E/DX2                !
 ! R63   R(51,52)                1.084          estimate D2E/DX2                !
 ! R64   R(51,53)                1.3291         estimate D2E/DX2                !
 ! R65   R(53,54)                1.0761         estimate D2E/DX2                !
 ! R66   R(53,55)                1.0774         estimate D2E/DX2                !
 ! R67   R(56,57)                1.0903         estimate D2E/DX2                !
 ! R68   R(56,58)                1.0903         estimate D2E/DX2                !
 ! R69   R(56,59)                1.0873         estimate D2E/DX2                !
 ! R70   R(60,61)                1.0904         estimate D2E/DX2                !
 ! R71   R(60,62)                1.0872         estimate D2E/DX2                !
 ! R72   R(60,63)                1.0903         estimate D2E/DX2                !
 ! R73   R(64,65)                0.9634         estimate D2E/DX2                !
 ! R74   R(64,66)                0.9634         estimate D2E/DX2                !
 ! R75   R(67,68)                1.09           estimate D2E/DX2                !
 ! R76   R(67,69)                1.0899         estimate D2E/DX2                !
 ! R77   R(67,70)                1.0854         estimate D2E/DX2                !
 ! R78   R(67,73)                1.4848         estimate D2E/DX2                !
 ! R79   R(71,72)                1.0068         estimate D2E/DX2                !
 ! R80   R(71,73)                1.3703         estimate D2E/DX2                !
 ! R81   R(71,74)                1.3522         estimate D2E/DX2                !
 ! R82   R(73,77)                1.3654         estimate D2E/DX2                !
 ! R83   R(74,75)                1.0705         estimate D2E/DX2                !
 ! R84   R(74,76)                1.311          estimate D2E/DX2                !
 ! R85   R(76,77)                1.364          estimate D2E/DX2                !
 ! R86   R(77,78)                1.0702         estimate D2E/DX2                !
 ! A1    A(2,1,3)               90.5273         estimate D2E/DX2                !
 ! A2    A(2,1,5)               89.7907         estimate D2E/DX2                !
 ! A3    A(2,1,64)              91.7255         estimate D2E/DX2                !
 ! A4    A(2,1,76)              91.0495         estimate D2E/DX2                !
 ! A5    A(3,1,4)               90.1149         estimate D2E/DX2                !
 ! A6    A(3,1,64)              91.8448         estimate D2E/DX2                !
 ! A7    A(3,1,76)              91.3926         estimate D2E/DX2                !
 ! A8    A(4,1,5)               89.5176         estimate D2E/DX2                !
 ! A9    A(4,1,64)              86.4055         estimate D2E/DX2                !
 ! A10   A(4,1,76)              90.7835         estimate D2E/DX2                !
 ! A11   A(5,1,64)              86.6013         estimate D2E/DX2                !
 ! A12   A(5,1,76)              90.1463         estimate D2E/DX2                !
 ! A13   A(1,2,6)              127.3627         estimate D2E/DX2                !
 ! A14   A(1,2,9)              126.6742         estimate D2E/DX2                !
 ! A15   A(6,2,9)              105.9627         estimate D2E/DX2                !
 ! A16   A(1,3,10)             126.714          estimate D2E/DX2                !
 ! A17   A(1,3,13)             127.1436         estimate D2E/DX2                !
 ! A18   A(10,3,13)            106.1381         estimate D2E/DX2                !
 ! A19   A(1,4,14)             126.6421         estimate D2E/DX2                !
 ! A20   A(1,4,17)             127.1925         estimate D2E/DX2                !
 ! A21   A(14,4,17)            106.1291         estimate D2E/DX2                !
 ! A22   A(1,5,18)             127.0139         estimate D2E/DX2                !
 ! A23   A(1,5,21)             126.9692         estimate D2E/DX2                !
 ! A24   A(18,5,21)            105.9506         estimate D2E/DX2                !
 ! A25   A(2,6,7)              110.7814         estimate D2E/DX2                !
 ! A26   A(2,6,22)             125.6512         estimate D2E/DX2                !
 ! A27   A(7,6,22)             123.5631         estimate D2E/DX2                !
 ! A28   A(6,7,8)              106.2312         estimate D2E/DX2                !
 ! A29   A(6,7,34)             124.3597         estimate D2E/DX2                !
 ! A30   A(8,7,34)             129.4089         estimate D2E/DX2                !
 ! A31   A(7,8,9)              106.282          estimate D2E/DX2                !
 ! A32   A(7,8,30)             129.3582         estimate D2E/DX2                !
 ! A33   A(9,8,30)             124.3592         estimate D2E/DX2                !
 ! A34   A(2,9,8)              110.7422         estimate D2E/DX2                !
 ! A35   A(2,9,24)             125.5682         estimate D2E/DX2                !
 ! A36   A(8,9,24)             123.6891         estimate D2E/DX2                !
 ! A37   A(3,10,11)            110.9309         estimate D2E/DX2                !
 ! A38   A(3,10,24)            125.3502         estimate D2E/DX2                !
 ! A39   A(11,10,24)           123.7042         estimate D2E/DX2                !
 ! A40   A(10,11,12)           106.3197         estimate D2E/DX2                !
 ! A41   A(10,11,38)           125.1504         estimate D2E/DX2                !
 ! A42   A(12,11,38)           128.464          estimate D2E/DX2                !
 ! A43   A(11,12,13)           105.8892         estimate D2E/DX2                !
 ! A44   A(11,12,42)           129.2677         estimate D2E/DX2                !
 ! A45   A(13,12,42)           124.8263         estimate D2E/DX2                !
 ! A46   A(3,13,12)            110.7161         estimate D2E/DX2                !
 ! A47   A(3,13,26)            125.6063         estimate D2E/DX2                !
 ! A48   A(12,13,26)           123.6739         estimate D2E/DX2                !
 ! A49   A(4,14,15)            110.8473         estimate D2E/DX2                !
 ! A50   A(4,14,26)            125.1573         estimate D2E/DX2                !
 ! A51   A(15,14,26)           123.9948         estimate D2E/DX2                !
 ! A52   A(14,15,16)           106.3212         estimate D2E/DX2                !
 ! A53   A(14,15,47)           125.177          estimate D2E/DX2                !
 ! A54   A(16,15,47)           128.4239         estimate D2E/DX2                !
 ! A55   A(15,16,17)           106.0362         estimate D2E/DX2                !
 ! A56   A(15,16,51)           129.1977         estimate D2E/DX2                !
 ! A57   A(17,16,51)           124.7568         estimate D2E/DX2                !
 ! A58   A(4,17,16)            110.6552         estimate D2E/DX2                !
 ! A59   A(4,17,28)            125.3809         estimate D2E/DX2                !
 ! A60   A(16,17,28)           123.9385         estimate D2E/DX2                !
 ! A61   A(5,18,19)            110.6745         estimate D2E/DX2                !
 ! A62   A(5,18,28)            125.5387         estimate D2E/DX2                !
 ! A63   A(19,18,28)           123.7845         estimate D2E/DX2                !
 ! A64   A(18,19,20)           106.3372         estimate D2E/DX2                !
 ! A65   A(18,19,56)           124.3632         estimate D2E/DX2                !
 ! A66   A(20,19,56)           129.2995         estimate D2E/DX2                !
 ! A67   A(19,20,21)           106.3201         estimate D2E/DX2                !
 ! A68   A(19,20,60)           129.3472         estimate D2E/DX2                !
 ! A69   A(21,20,60)           124.3327         estimate D2E/DX2                !
 ! A70   A(5,21,20)            110.716          estimate D2E/DX2                !
 ! A71   A(5,21,22)            125.2443         estimate D2E/DX2                !
 ! A72   A(20,21,22)           124.0396         estimate D2E/DX2                !
 ! A73   A(6,22,21)            124.945          estimate D2E/DX2                !
 ! A74   A(6,22,23)            117.5871         estimate D2E/DX2                !
 ! A75   A(21,22,23)           117.4673         estimate D2E/DX2                !
 ! A76   A(9,24,10)            125.116          estimate D2E/DX2                !
 ! A77   A(9,24,25)            117.3633         estimate D2E/DX2                !
 ! A78   A(10,24,25)           117.5075         estimate D2E/DX2                !
 ! A79   A(13,26,14)           125.3125         estimate D2E/DX2                !
 ! A80   A(13,26,27)           117.5044         estimate D2E/DX2                !
 ! A81   A(14,26,27)           117.1829         estimate D2E/DX2                !
 ! A82   A(17,28,18)           125.2326         estimate D2E/DX2                !
 ! A83   A(17,28,29)           117.5455         estimate D2E/DX2                !
 ! A84   A(18,28,29)           117.2218         estimate D2E/DX2                !
 ! A85   A(8,30,31)            110.8835         estimate D2E/DX2                !
 ! A86   A(8,30,32)            110.4762         estimate D2E/DX2                !
 ! A87   A(8,30,33)            110.6168         estimate D2E/DX2                !
 ! A88   A(31,30,32)           108.3458         estimate D2E/DX2                !
 ! A89   A(31,30,33)           108.3598         estimate D2E/DX2                !
 ! A90   A(32,30,33)           108.0669         estimate D2E/DX2                !
 ! A91   A(7,34,35)            110.7269         estimate D2E/DX2                !
 ! A92   A(7,34,36)            110.5469         estimate D2E/DX2                !
 ! A93   A(7,34,37)            110.8149         estimate D2E/DX2                !
 ! A94   A(35,34,36)           108.0354         estimate D2E/DX2                !
 ! A95   A(35,34,37)           108.3055         estimate D2E/DX2                !
 ! A96   A(36,34,37)           108.3152         estimate D2E/DX2                !
 ! A97   A(11,38,39)           110.7075         estimate D2E/DX2                !
 ! A98   A(11,38,40)           110.8491         estimate D2E/DX2                !
 ! A99   A(11,38,41)           110.0807         estimate D2E/DX2                !
 ! A100  A(39,38,40)           108.0323         estimate D2E/DX2                !
 ! A101  A(39,38,41)           108.6978         estimate D2E/DX2                !
 ! A102  A(40,38,41)           108.3984         estimate D2E/DX2                !
 ! A103  A(12,42,43)           115.6764         estimate D2E/DX2                !
 ! A104  A(12,42,44)           125.4717         estimate D2E/DX2                !
 ! A105  A(43,42,44)           118.8506         estimate D2E/DX2                !
 ! A106  A(42,44,45)           122.1453         estimate D2E/DX2                !
 ! A107  A(42,44,46)           121.5245         estimate D2E/DX2                !
 ! A108  A(45,44,46)           116.3075         estimate D2E/DX2                !
 ! A109  A(15,47,48)           110.7473         estimate D2E/DX2                !
 ! A110  A(15,47,49)           110.9395         estimate D2E/DX2                !
 ! A111  A(15,47,50)           110.0562         estimate D2E/DX2                !
 ! A112  A(48,47,49)           107.9554         estimate D2E/DX2                !
 ! A113  A(48,47,50)           108.6514         estimate D2E/DX2                !
 ! A114  A(49,47,50)           108.4122         estimate D2E/DX2                !
 ! A115  A(16,51,52)           115.5907         estimate D2E/DX2                !
 ! A116  A(16,51,53)           125.4368         estimate D2E/DX2                !
 ! A117  A(52,51,53)           118.9705         estimate D2E/DX2                !
 ! A118  A(51,53,54)           122.1809         estimate D2E/DX2                !
 ! A119  A(51,53,55)           121.5331         estimate D2E/DX2                !
 ! A120  A(54,53,55)           116.2668         estimate D2E/DX2                !
 ! A121  A(19,56,57)           110.5596         estimate D2E/DX2                !
 ! A122  A(19,56,58)           110.6404         estimate D2E/DX2                !
 ! A123  A(19,56,59)           110.8597         estimate D2E/DX2                !
 ! A124  A(57,56,58)           108.0095         estimate D2E/DX2                !
 ! A125  A(57,56,59)           108.345          estimate D2E/DX2                !
 ! A126  A(58,56,59)           108.3313         estimate D2E/DX2                !
 ! A127  A(20,60,61)           110.6727         estimate D2E/DX2                !
 ! A128  A(20,60,62)           110.8467         estimate D2E/DX2                !
 ! A129  A(20,60,63)           110.5811         estimate D2E/DX2                !
 ! A130  A(61,60,62)           108.3218         estimate D2E/DX2                !
 ! A131  A(61,60,63)           107.9918         estimate D2E/DX2                !
 ! A132  A(62,60,63)           108.3299         estimate D2E/DX2                !
 ! A133  A(1,64,65)            100.4449         estimate D2E/DX2                !
 ! A134  A(1,64,66)             99.539          estimate D2E/DX2                !
 ! A135  A(65,64,66)           107.0973         estimate D2E/DX2                !
 ! A136  A(68,67,69)           108.2235         estimate D2E/DX2                !
 ! A137  A(68,67,70)           108.6838         estimate D2E/DX2                !
 ! A138  A(68,67,73)           110.8036         estimate D2E/DX2                !
 ! A139  A(69,67,70)           108.7027         estimate D2E/DX2                !
 ! A140  A(69,67,73)           110.8139         estimate D2E/DX2                !
 ! A141  A(70,67,73)           109.5545         estimate D2E/DX2                !
 ! A142  A(72,71,73)           125.7566         estimate D2E/DX2                !
 ! A143  A(72,71,74)           126.5959         estimate D2E/DX2                !
 ! A144  A(73,71,74)           107.6475         estimate D2E/DX2                !
 ! A145  A(67,73,71)           122.5529         estimate D2E/DX2                !
 ! A146  A(67,73,77)           132.1236         estimate D2E/DX2                !
 ! A147  A(71,73,77)           105.3235         estimate D2E/DX2                !
 ! A148  A(71,74,75)           124.1517         estimate D2E/DX2                !
 ! A149  A(71,74,76)           110.795          estimate D2E/DX2                !
 ! A150  A(75,74,76)           125.0533         estimate D2E/DX2                !
 ! A151  A(1,76,74)            126.9151         estimate D2E/DX2                !
 ! A152  A(1,76,77)            126.7325         estimate D2E/DX2                !
 ! A153  A(74,76,77)           106.3333         estimate D2E/DX2                !
 ! A154  A(73,77,76)           109.9007         estimate D2E/DX2                !
 ! A155  A(73,77,78)           129.0443         estimate D2E/DX2                !
 ! A156  A(76,77,78)           121.055          estimate D2E/DX2                !
 ! A157  L(2,1,4,3,-1)         180.6422         estimate D2E/DX2                !
 ! A158  L(3,1,5,2,-1)         180.318          estimate D2E/DX2                !
 ! A159  L(64,1,76,2,-1)       182.775          estimate D2E/DX2                !
 ! A160  L(2,1,4,3,-2)         181.8492         estimate D2E/DX2                !
 ! A161  L(3,1,5,2,-2)         178.455          estimate D2E/DX2                !
 ! A162  L(64,1,76,2,-2)       176.7358         estimate D2E/DX2                !
 ! D1    D(3,1,2,6)            178.6438         estimate D2E/DX2                !
 ! D2    D(3,1,2,9)             -1.6275         estimate D2E/DX2                !
 ! D3    D(5,1,2,6)              0.1888         estimate D2E/DX2                !
 ! D4    D(5,1,2,9)            179.9175         estimate D2E/DX2                !
 ! D5    D(64,1,2,6)            86.7822         estimate D2E/DX2                !
 ! D6    D(64,1,2,9)           -93.4891         estimate D2E/DX2                !
 ! D7    D(76,1,2,6)           -89.9537         estimate D2E/DX2                !
 ! D8    D(76,1,2,9)            89.7751         estimate D2E/DX2                !
 ! D9    D(2,1,3,10)             2.3895         estimate D2E/DX2                !
 ! D10   D(2,1,3,13)          -178.4625         estimate D2E/DX2                !
 ! D11   D(4,1,3,10)          -179.4596         estimate D2E/DX2                !
 ! D12   D(4,1,3,13)            -0.3117         estimate D2E/DX2                !
 ! D13   D(64,1,3,10)           94.133          estimate D2E/DX2                !
 ! D14   D(64,1,3,13)          -86.719          estimate D2E/DX2                !
 ! D15   D(76,1,3,10)          -88.6731         estimate D2E/DX2                !
 ! D16   D(76,1,3,13)           90.4748         estimate D2E/DX2                !
 ! D17   D(3,1,4,14)             0.6251         estimate D2E/DX2                !
 ! D18   D(3,1,4,17)           178.1242         estimate D2E/DX2                !
 ! D19   D(5,1,4,14)           179.0911         estimate D2E/DX2                !
 ! D20   D(5,1,4,17)            -3.4098         estimate D2E/DX2                !
 ! D21   D(64,1,4,14)           92.4663         estimate D2E/DX2                !
 ! D22   D(64,1,4,17)          -90.0346         estimate D2E/DX2                !
 ! D23   D(76,1,4,14)          -90.7692         estimate D2E/DX2                !
 ! D24   D(76,1,4,17)           86.7299         estimate D2E/DX2                !
 ! D25   D(2,1,5,18)          -178.339          estimate D2E/DX2                !
 ! D26   D(2,1,5,21)            -1.7225         estimate D2E/DX2                !
 ! D27   D(4,1,5,18)             3.4923         estimate D2E/DX2                !
 ! D28   D(4,1,5,21)          -179.8912         estimate D2E/DX2                !
 ! D29   D(64,1,5,18)           89.92           estimate D2E/DX2                !
 ! D30   D(64,1,5,21)          -93.4635         estimate D2E/DX2                !
 ! D31   D(76,1,5,18)          -87.29           estimate D2E/DX2                !
 ! D32   D(76,1,5,21)           89.3265         estimate D2E/DX2                !
 ! D33   D(2,1,64,65)          169.7407         estimate D2E/DX2                !
 ! D34   D(2,1,64,66)          -80.7404         estimate D2E/DX2                !
 ! D35   D(3,1,64,65)           79.1573         estimate D2E/DX2                !
 ! D36   D(3,1,64,66)         -171.3238         estimate D2E/DX2                !
 ! D37   D(4,1,64,65)          -10.8419         estimate D2E/DX2                !
 ! D38   D(4,1,64,66)           98.6769         estimate D2E/DX2                !
 ! D39   D(5,1,64,65)         -100.5715         estimate D2E/DX2                !
 ! D40   D(5,1,64,66)            8.9473         estimate D2E/DX2                !
 ! D41   D(2,1,76,74)           45.4868         estimate D2E/DX2                !
 ! D42   D(2,1,76,77)         -136.3203         estimate D2E/DX2                !
 ! D43   D(3,1,76,74)          136.0398         estimate D2E/DX2                !
 ! D44   D(3,1,76,77)          -45.7673         estimate D2E/DX2                !
 ! D45   D(4,1,76,74)         -133.8262         estimate D2E/DX2                !
 ! D46   D(4,1,76,77)           44.3667         estimate D2E/DX2                !
 ! D47   D(5,1,76,74)          -44.3066         estimate D2E/DX2                !
 ! D48   D(5,1,76,77)          133.8863         estimate D2E/DX2                !
 ! D49   D(1,2,6,7)           -179.984          estimate D2E/DX2                !
 ! D50   D(1,2,6,22)             0.7559         estimate D2E/DX2                !
 ! D51   D(9,2,6,7)              0.2423         estimate D2E/DX2                !
 ! D52   D(9,2,6,22)          -179.0178         estimate D2E/DX2                !
 ! D53   D(1,2,9,8)           -179.9605         estimate D2E/DX2                !
 ! D54   D(1,2,9,24)             0.2825         estimate D2E/DX2                !
 ! D55   D(6,2,9,8)             -0.1848         estimate D2E/DX2                !
 ! D56   D(6,2,9,24)          -179.9418         estimate D2E/DX2                !
 ! D57   D(1,3,10,11)          179.446          estimate D2E/DX2                !
 ! D58   D(1,3,10,24)           -1.9087         estimate D2E/DX2                !
 ! D59   D(13,3,10,11)           0.153          estimate D2E/DX2                !
 ! D60   D(13,3,10,24)         178.7984         estimate D2E/DX2                !
 ! D61   D(1,3,13,12)         -179.8765         estimate D2E/DX2                !
 ! D62   D(1,3,13,26)            0.8098         estimate D2E/DX2                !
 ! D63   D(10,3,13,12)          -0.5876         estimate D2E/DX2                !
 ! D64   D(10,3,13,26)        -179.9012         estimate D2E/DX2                !
 ! D65   D(1,4,14,15)          178.8091         estimate D2E/DX2                !
 ! D66   D(1,4,14,26)           -1.4724         estimate D2E/DX2                !
 ! D67   D(17,4,14,15)           0.8828         estimate D2E/DX2                !
 ! D68   D(17,4,14,26)        -179.3988         estimate D2E/DX2                !
 ! D69   D(1,4,17,16)         -179.0045         estimate D2E/DX2                !
 ! D70   D(1,4,17,28)            2.7765         estimate D2E/DX2                !
 ! D71   D(14,4,17,16)          -1.0932         estimate D2E/DX2                !
 ! D72   D(14,4,17,28)        -179.3122         estimate D2E/DX2                !
 ! D73   D(1,5,18,19)          177.5646         estimate D2E/DX2                !
 ! D74   D(1,5,18,28)           -2.971          estimate D2E/DX2                !
 ! D75   D(21,5,18,19)           0.3756         estimate D2E/DX2                !
 ! D76   D(21,5,18,28)         179.84           estimate D2E/DX2                !
 ! D77   D(1,5,21,20)         -177.5925         estimate D2E/DX2                !
 ! D78   D(1,5,21,22)            2.5136         estimate D2E/DX2                !
 ! D79   D(18,5,21,20)          -0.4019         estimate D2E/DX2                !
 ! D80   D(18,5,21,22)         179.7042         estimate D2E/DX2                !
 ! D81   D(2,6,7,8)             -0.2115         estimate D2E/DX2                !
 ! D82   D(2,6,7,34)           179.6392         estimate D2E/DX2                !
 ! D83   D(22,6,7,8)           179.067          estimate D2E/DX2                !
 ! D84   D(22,6,7,34)           -1.0823         estimate D2E/DX2                !
 ! D85   D(2,6,22,21)           -0.4379         estimate D2E/DX2                !
 ! D86   D(2,6,22,23)          179.2609         estimate D2E/DX2                !
 ! D87   D(7,6,22,21)         -179.6078         estimate D2E/DX2                !
 ! D88   D(7,6,22,23)            0.0911         estimate D2E/DX2                !
 ! D89   D(6,7,8,9)              0.0893         estimate D2E/DX2                !
 ! D90   D(6,7,8,30)           179.8077         estimate D2E/DX2                !
 ! D91   D(34,7,8,9)          -179.7512         estimate D2E/DX2                !
 ! D92   D(34,7,8,30)           -0.0328         estimate D2E/DX2                !
 ! D93   D(6,7,34,35)           60.1678         estimate D2E/DX2                !
 ! D94   D(6,7,34,36)          -59.5252         estimate D2E/DX2                !
 ! D95   D(6,7,34,37)         -179.6255         estimate D2E/DX2                !
 ! D96   D(8,7,34,35)         -120.0178         estimate D2E/DX2                !
 ! D97   D(8,7,34,36)          120.2893         estimate D2E/DX2                !
 ! D98   D(8,7,34,37)            0.189          estimate D2E/DX2                !
 ! D99   D(7,8,9,2)              0.0563         estimate D2E/DX2                !
 ! D100  D(7,8,9,24)           179.8187         estimate D2E/DX2                !
 ! D101  D(30,8,9,2)          -179.6799         estimate D2E/DX2                !
 ! D102  D(30,8,9,24)            0.0825         estimate D2E/DX2                !
 ! D103  D(7,8,30,31)            0.4406         estimate D2E/DX2                !
 ! D104  D(7,8,30,32)         -119.6965         estimate D2E/DX2                !
 ! D105  D(7,8,30,33)          120.688          estimate D2E/DX2                !
 ! D106  D(9,8,30,31)         -179.8868         estimate D2E/DX2                !
 ! D107  D(9,8,30,32)           59.9761         estimate D2E/DX2                !
 ! D108  D(9,8,30,33)          -59.6394         estimate D2E/DX2                !
 ! D109  D(2,9,24,10)            1.1448         estimate D2E/DX2                !
 ! D110  D(2,9,24,25)          179.7856         estimate D2E/DX2                !
 ! D111  D(8,9,24,10)         -178.582          estimate D2E/DX2                !
 ! D112  D(8,9,24,25)            0.0588         estimate D2E/DX2                !
 ! D113  D(3,10,11,12)           0.354          estimate D2E/DX2                !
 ! D114  D(3,10,11,38)        -176.9007         estimate D2E/DX2                !
 ! D115  D(24,10,11,12)       -178.3179         estimate D2E/DX2                !
 ! D116  D(24,10,11,38)          4.4274         estimate D2E/DX2                !
 ! D117  D(3,10,24,9)           -0.2789         estimate D2E/DX2                !
 ! D118  D(3,10,24,25)        -178.9179         estimate D2E/DX2                !
 ! D119  D(11,10,24,9)         178.2002         estimate D2E/DX2                !
 ! D120  D(11,10,24,25)         -0.4388         estimate D2E/DX2                !
 ! D121  D(10,11,12,13)         -0.6722         estimate D2E/DX2                !
 ! D122  D(10,11,12,42)       -179.2125         estimate D2E/DX2                !
 ! D123  D(38,11,12,13)        176.461          estimate D2E/DX2                !
 ! D124  D(38,11,12,42)         -2.0793         estimate D2E/DX2                !
 ! D125  D(10,11,38,39)         37.169          estimate D2E/DX2                !
 ! D126  D(10,11,38,40)        -82.7043         estimate D2E/DX2                !
 ! D127  D(10,11,38,41)        157.3737         estimate D2E/DX2                !
 ! D128  D(12,11,38,39)       -139.4655         estimate D2E/DX2                !
 ! D129  D(12,11,38,40)        100.6612         estimate D2E/DX2                !
 ! D130  D(12,11,38,41)        -19.2608         estimate D2E/DX2                !
 ! D131  D(11,12,13,3)           0.8138         estimate D2E/DX2                !
 ! D132  D(11,12,13,26)       -179.8567         estimate D2E/DX2                !
 ! D133  D(42,12,13,3)         179.4372         estimate D2E/DX2                !
 ! D134  D(42,12,13,26)         -1.2333         estimate D2E/DX2                !
 ! D135  D(11,12,42,43)        146.0203         estimate D2E/DX2                !
 ! D136  D(11,12,42,44)        -34.4005         estimate D2E/DX2                !
 ! D137  D(13,12,42,43)        -32.2694         estimate D2E/DX2                !
 ! D138  D(13,12,42,44)        147.3098         estimate D2E/DX2                !
 ! D139  D(3,13,26,14)          -1.5669         estimate D2E/DX2                !
 ! D140  D(3,13,26,27)         178.5896         estimate D2E/DX2                !
 ! D141  D(12,13,26,14)        179.2045         estimate D2E/DX2                !
 ! D142  D(12,13,26,27)         -0.639          estimate D2E/DX2                !
 ! D143  D(4,14,15,16)          -0.3316         estimate D2E/DX2                !
 ! D144  D(4,14,15,47)        -177.345          estimate D2E/DX2                !
 ! D145  D(26,14,15,16)        179.9461         estimate D2E/DX2                !
 ! D146  D(26,14,15,47)          2.9327         estimate D2E/DX2                !
 ! D147  D(4,14,26,13)           1.9173         estimate D2E/DX2                !
 ! D148  D(4,14,26,27)        -178.2387         estimate D2E/DX2                !
 ! D149  D(15,14,26,13)       -178.4001         estimate D2E/DX2                !
 ! D150  D(15,14,26,27)          1.4439         estimate D2E/DX2                !
 ! D151  D(14,15,16,17)         -0.3296         estimate D2E/DX2                !
 ! D152  D(14,15,16,51)       -179.2417         estimate D2E/DX2                !
 ! D153  D(47,15,16,17)        176.5544         estimate D2E/DX2                !
 ! D154  D(47,15,16,51)         -2.3578         estimate D2E/DX2                !
 ! D155  D(14,15,47,48)         37.4349         estimate D2E/DX2                !
 ! D156  D(14,15,47,49)        -82.4274         estimate D2E/DX2                !
 ! D157  D(14,15,47,50)        157.5913         estimate D2E/DX2                !
 ! D158  D(16,15,47,48)       -138.9057         estimate D2E/DX2                !
 ! D159  D(16,15,47,49)        101.2319         estimate D2E/DX2                !
 ! D160  D(16,15,47,50)        -18.7494         estimate D2E/DX2                !
 ! D161  D(15,16,17,4)           0.9036         estimate D2E/DX2                !
 ! D162  D(15,16,17,28)        179.1534         estimate D2E/DX2                !
 ! D163  D(51,16,17,4)         179.8775         estimate D2E/DX2                !
 ! D164  D(51,16,17,28)         -1.8727         estimate D2E/DX2                !
 ! D165  D(15,16,51,52)        145.8399         estimate D2E/DX2                !
 ! D166  D(15,16,51,53)        -34.682          estimate D2E/DX2                !
 ! D167  D(17,16,51,52)        -32.8875         estimate D2E/DX2                !
 ! D168  D(17,16,51,53)        146.5906         estimate D2E/DX2                !
 ! D169  D(4,17,28,18)          -0.8067         estimate D2E/DX2                !
 ! D170  D(4,17,28,29)         179.3007         estimate D2E/DX2                !
 ! D171  D(16,17,28,18)       -178.7979         estimate D2E/DX2                !
 ! D172  D(16,17,28,29)          1.3095         estimate D2E/DX2                !
 ! D173  D(5,18,19,20)          -0.2086         estimate D2E/DX2                !
 ! D174  D(5,18,19,56)         179.8251         estimate D2E/DX2                !
 ! D175  D(28,18,19,20)       -179.6842         estimate D2E/DX2                !
 ! D176  D(28,18,19,56)          0.3495         estimate D2E/DX2                !
 ! D177  D(5,18,28,17)           0.9128         estimate D2E/DX2                !
 ! D178  D(5,18,28,29)        -179.1943         estimate D2E/DX2                !
 ! D179  D(19,18,28,17)       -179.6901         estimate D2E/DX2                !
 ! D180  D(19,18,28,29)          0.2028         estimate D2E/DX2                !
 ! D181  D(18,19,20,21)         -0.0407         estimate D2E/DX2                !
 ! D182  D(18,19,20,60)        179.874          estimate D2E/DX2                !
 ! D183  D(56,19,20,21)        179.9233         estimate D2E/DX2                !
 ! D184  D(56,19,20,60)         -0.162          estimate D2E/DX2                !
 ! D185  D(18,19,56,57)         59.9783         estimate D2E/DX2                !
 ! D186  D(18,19,56,58)        -59.6346         estimate D2E/DX2                !
 ! D187  D(18,19,56,59)       -179.8462         estimate D2E/DX2                !
 ! D188  D(20,19,56,57)       -119.9799         estimate D2E/DX2                !
 ! D189  D(20,19,56,58)        120.4072         estimate D2E/DX2                !
 ! D190  D(20,19,56,59)          0.1956         estimate D2E/DX2                !
 ! D191  D(19,20,21,5)           0.2792         estimate D2E/DX2                !
 ! D192  D(19,20,21,22)       -179.8254         estimate D2E/DX2                !
 ! D193  D(60,20,21,5)        -179.6409         estimate D2E/DX2                !
 ! D194  D(60,20,21,22)          0.2545         estimate D2E/DX2                !
 ! D195  D(19,20,60,61)        119.9786         estimate D2E/DX2                !
 ! D196  D(19,20,60,62)         -0.2337         estimate D2E/DX2                !
 ! D197  D(19,20,60,63)       -120.3958         estimate D2E/DX2                !
 ! D198  D(21,20,60,61)        -60.1205         estimate D2E/DX2                !
 ! D199  D(21,20,60,62)        179.6671         estimate D2E/DX2                !
 ! D200  D(21,20,60,63)         59.505          estimate D2E/DX2                !
 ! D201  D(5,21,22,6)           -1.295          estimate D2E/DX2                !
 ! D202  D(5,21,22,23)         179.0059         estimate D2E/DX2                !
 ! D203  D(20,21,22,6)         178.8248         estimate D2E/DX2                !
 ! D204  D(20,21,22,23)         -0.8744         estimate D2E/DX2                !
 ! D205  D(12,42,44,45)         -2.6725         estimate D2E/DX2                !
 ! D206  D(12,42,44,46)        179.1227         estimate D2E/DX2                !
 ! D207  D(43,42,44,45)        176.8945         estimate D2E/DX2                !
 ! D208  D(43,42,44,46)         -1.3103         estimate D2E/DX2                !
 ! D209  D(16,51,53,54)         -2.4911         estimate D2E/DX2                !
 ! D210  D(16,51,53,55)        179.1678         estimate D2E/DX2                !
 ! D211  D(52,51,53,54)        176.9709         estimate D2E/DX2                !
 ! D212  D(52,51,53,55)         -1.3702         estimate D2E/DX2                !
 ! D213  D(68,67,73,71)         60.4334         estimate D2E/DX2                !
 ! D214  D(68,67,73,77)       -119.5068         estimate D2E/DX2                !
 ! D215  D(69,67,73,71)        -59.7203         estimate D2E/DX2                !
 ! D216  D(69,67,73,77)        120.3395         estimate D2E/DX2                !
 ! D217  D(70,67,73,71)       -179.6585         estimate D2E/DX2                !
 ! D218  D(70,67,73,77)          0.4013         estimate D2E/DX2                !
 ! D219  D(72,71,73,67)          0.0123         estimate D2E/DX2                !
 ! D220  D(72,71,73,77)        179.9663         estimate D2E/DX2                !
 ! D221  D(74,71,73,67)       -179.9356         estimate D2E/DX2                !
 ! D222  D(74,71,73,77)          0.0184         estimate D2E/DX2                !
 ! D223  D(72,71,74,75)          0.0198         estimate D2E/DX2                !
 ! D224  D(72,71,74,76)       -179.9415         estimate D2E/DX2                !
 ! D225  D(73,71,74,75)        179.9672         estimate D2E/DX2                !
 ! D226  D(73,71,74,76)          0.0058         estimate D2E/DX2                !
 ! D227  D(67,73,77,76)        179.9119         estimate D2E/DX2                !
 ! D228  D(67,73,77,78)         -0.0294         estimate D2E/DX2                !
 ! D229  D(71,73,77,76)         -0.0358         estimate D2E/DX2                !
 ! D230  D(71,73,77,78)       -179.9771         estimate D2E/DX2                !
 ! D231  D(71,74,76,1)         178.4632         estimate D2E/DX2                !
 ! D232  D(71,74,76,77)         -0.0277         estimate D2E/DX2                !
 ! D233  D(75,74,76,1)          -1.4977         estimate D2E/DX2                !
 ! D234  D(75,74,76,77)       -179.9886         estimate D2E/DX2                !
 ! D235  D(1,76,77,73)        -178.4548         estimate D2E/DX2                !
 ! D236  D(1,76,77,78)           1.492          estimate D2E/DX2                !
 ! D237  D(74,76,77,73)          0.0397         estimate D2E/DX2                !
 ! D238  D(74,76,77,78)        179.9865         estimate D2E/DX2                !
 --------------------------------------------------------------------------------
 Trust Radius=3.00D-01 FncErr=1.00D-07 GrdErr=1.00D-06 EigMax=2.50D+02 EigMin=1.00D-04
 Number of steps in this run=    468 maximum allowed number of steps=    468.
 GradGradGradGradGradGradGradGradGradGradGradGradGradGradGradGradGradGrad

 Stoichiometry    C34H36FeN6O
 Framework group  C1[X(C34H36FeN6O)]
 Deg. of freedom   228
 Full point group                 C1      NOp   1
 Largest Abelian subgroup         C1      NOp   1
 Largest concise Abelian subgroup C1      NOp   1
                         Standard orientation:                         
 ---------------------------------------------------------------------
 Center     Atomic      Atomic             Coordinates (Angstroms)
 Number     Number       Type             X           Y           Z
 ---------------------------------------------------------------------
      1         26           0        0.210330   -0.080701   -0.385447
      2          7           0        1.515820   -1.584962   -0.417830
      3          7           0       -1.307491   -1.373410   -0.397210
      4          7           0       -1.093113    1.456250   -0.417591
      5          7           0        1.735380    1.233999   -0.427678
      6          6           0        2.871298   -1.499671   -0.450256
      7          6           0        3.468586   -2.818006   -0.465909
      8          6           0        2.437388   -3.702568   -0.437248
      9          6           0        1.225150   -2.911895   -0.406670
     10          6           0       -1.219994   -2.729136   -0.374348
     11          6           0       -2.530406   -3.329935   -0.379472
     12          6           0       -3.427267   -2.296408   -0.414405
     13          6           0       -2.633322   -1.081010   -0.413434
     14          6           0       -2.453188    1.369289   -0.425121
     15          6           0       -3.050180    2.678844   -0.421204
     16          6           0       -2.013082    3.574914   -0.403403
     17          6           0       -0.799823    2.782738   -0.388847
     18          6           0        1.647722    2.592051   -0.395787
     19          6           0        2.964157    3.188220   -0.385786
     20          6           0        3.851693    2.156752   -0.407674
     21          6           0        3.065371    0.944990   -0.429755
     22          6           0        3.605305   -0.327755   -0.452167
     23          1           0        4.681318   -0.411895   -0.467673
     24          6           0       -0.042373   -3.455448   -0.375999
     25          1           0       -0.120610   -4.531872   -0.374113
     26          6           0       -3.176575    0.188720   -0.440768
     27          1           0       -4.252262    0.270002   -0.474694
     28          6           0        0.473778    3.321231   -0.385853
     29          1           0        0.560814    4.396680   -0.373097
     30          6           0        2.469894   -5.192323   -0.441235
     31          1           0        3.493737   -5.557602   -0.464402
     32          1           0        1.946481   -5.582811   -1.313994
     33          1           0        1.983709   -5.589330    0.450283
     34          6           0        4.936026   -3.076312   -0.509117
     35          1           0        5.430153   -2.642050    0.360734
     36          1           0        5.376196   -2.634140   -1.403073
     37          1           0        5.140172   -4.144060   -0.520128
     38          6           0       -2.803860   -4.790761   -0.293172
     39          1           0       -2.097966   -5.275571    0.379584
     40          1           0       -2.713782   -5.261290   -1.273509
     41          1           0       -3.812560   -4.960765    0.078014
     42          6           0       -4.872771   -2.338607   -0.418162
     43          1           0       -5.367809   -1.525984    0.101482
     44          6           0       -5.615632   -3.272267   -1.003892
     45          1           0       -5.181692   -4.074304   -1.574732
     46          1           0       -6.691748   -3.248832   -0.954878
     47          6           0       -4.512409    2.954784   -0.370946
     48          1           0       -5.017791    2.240279    0.277201
     49          1           0       -4.957610    2.881083   -1.364627
     50          1           0       -4.689929    3.957792    0.011645
     51          6           0       -2.054356    5.020302   -0.377786
     52          1           0       -1.260071    5.501551    0.181244
     53          6           0       -2.965331    5.776034   -0.982267
     54          1           0       -3.747529    5.355183   -1.589701
     55          1           0       -2.943440    6.850839   -0.910439
     56          6           0        3.222840    4.655557   -0.356127
     57          1           0        2.787784    5.103064    0.537879
     58          1           0        2.780103    5.141537   -1.225965
     59          1           0        4.290610    4.860525   -0.356457
     60          6           0        5.341794    2.192139   -0.411661
     61          1           0        5.741474    1.675339    0.461410
     62          1           0        5.704500    3.216948   -0.397937
     63          1           0        5.734438    1.701358   -1.302526
     64          8           0        0.207375    0.057453   -2.674440
     65          1           0       -0.531499    0.660181   -2.812082
     66          1           0        1.015455    0.565570   -2.804761
     67          6           0       -1.174763    0.180426    5.007834
     68          1           0       -0.867288    1.066762    5.562719
     69          1           0       -0.994505   -0.693272    5.634007
     70          1           0       -2.238716    0.249291    4.804390
     71          7           0        0.935220   -0.033000    3.675838
     72          1           0        1.554518   -0.051645    4.469383
     73          6           0       -0.429856    0.074879    3.727809
     74          6           0        1.291225   -0.107742    2.373534
     75          1           0        2.301360   -0.198062    2.030897
     76          7           0        0.235259   -0.053648    1.598521
     77          6           0       -0.842835    0.059460    2.426461
     78          1           0       -1.836327    0.122595    2.033691
 ---------------------------------------------------------------------
 Rotational constants (GHZ):           0.0929522           0.0921032           0.0592067
 Standard basis: def2TZVP (5D, 7F)
 There are  1744 symmetry adapted cartesian basis functions of A   symmetry.
 There are  1532 symmetry adapted basis functions of A   symmetry.
  1532 basis functions,  2481 primitive gaussians,  1744 cartesian basis functions
   158 alpha electrons      158 beta electrons
       nuclear repulsion energy      5971.0700216029 Hartrees.
 NAtoms=   78 NActive=   78 NUniq=   78 SFac= 1.00D+00 NAtFMM=   60 NAOKFM=T Big=T
 Integral buffers will be    131072 words long.
 Raffenetti 2 integral format.
 Two-electron integral symmetry is turned on.
 R6APFD:  NTU= -4 IXU= 1 FactS= 1.050
 Nuclear repulsion after empirical dispersion term =     5970.9161020428 Hartrees.
 One-electron integrals computed using PRISM.
   1 Symmetry operations used in ECPInt.
 ECPInt:  NShTT=  186355 NPrTT=  576197 LenC2=  147337 LenP2D=  301590.
 LDataN:  DoStor=T MaxTD1= 6 Len=  172
 Number of processors reduced to  23 by ecpmxn.
 NBasis=  1532 RedAO= T EigKep=  3.03D-06  NBF=  1532
 NBsUse=  1532 1.00D-06 EigRej= -1.00D+00 NBFU=  1532
 ExpMin= 4.20D-02 ExpMax= 3.01D+05 ExpMxC= 2.91D+03 IAcc=3 IRadAn=         5 AccDes= 0.00D+00
 Harris functional with IExCor= 3731 and IRadAn=       5 diagonalized for initial guess.
 HarFok:  IExCor= 3731 AccDes= 0.00D+00 IRadAn=         5 IDoV= 1 UseB2=F ITyADJ=14
 ICtDFT=  3500011 ScaDFX=  1.000000  1.000000  1.000000  1.000000
 FoFCou: FMM=F IPFlag=           0 FMFlag=      100000 FMFlg1=        2001
         NFxFlg=           0 DoJE=T BraDBF=F KetDBF=T FulRan=T
         wScrn=  0.000000 ICntrl=       500 IOpCl=  0 I1Cent=   200000004 NGrid=           0
         NMat0=    1 NMatS0=      1 NMatT0=    0 NMatD0=    1 NMtDS0=    0 NMtDT0=    0
 Petite list used in FoFCou.
 Requested convergence on RMS density matrix=1.00D-08 within 128 cycles.
 Requested convergence on MAX density matrix=1.00D-06.
 Requested convergence on             energy=1.00D-06.
 No special actions if energy rises.
 EnCoef did     3 forward-backward iterations
 EnCoef did   100 forward-backward iterations
 EnCoef did   100 forward-backward iterations
 EnCoef did   100 forward-backward iterations
 Restarting incremental Fock formation.
 SCF Done:  E(RAPFD) =  -2984.04459267     A.U. after   26 cycles
            NFock= 26  Conv=0.16D-08     -V/T= 2.0035

 **********************************************************************

            Population analysis using the SCF Density.

 **********************************************************************

 Orbital symmetries:
       Occupied  (A) (A) (A) (A) (A) (A) (A) (A) (A) (A) (A) (A)
                 (A) (A) (A) (A) (A) (A) (A) (A) (A) (A) (A) (A)
                 (A) (A) (A) (A) (A) (A) (A) (A) (A) (A) (A) (A)
                 (A) (A) (A) (A) (A) (A) (A) (A) (A) (A) (A) (A)
                 (A) (A) (A) (A) (A) (A) (A) (A) (A) (A) (A) (A)
                 (A) (A) (A) (A) (A) (A) (A) (A) (A) (A) (A) (A)
                 (A) (A) (A) (A) (A) (A) (A) (A) (A) (A) (A) (A)
                 (A) (A) (A) (A) (A) (A) (A) (A) (A) (A) (A) (A)
                 (A) (A) (A) (A) (A) (A) (A) (A) (A) (A) (A) (A)
                 (A) (A) (A) (A) (A) (A) (A) (A) (A) (A) (A) (A)
                 (A) (A) (A) (A) (A) (A) (A) (A) (A) (A) (A) (A)
                 (A) (A) (A) (A) (A) (A) (A) (A) (A) (A) (A) (A)
                 (A) (A) (A) (A) (A) (A) (A) (A) (A) (A) (A) (A)
                 (A) (A)
       Virtual   (A) (A) (A) (A) (A) (A) (A) (A) (A) (A) (A) (A)
                 (A) (A) (A) (A) (A) (A) (A) (A) (A) (A) (A) (A)
                 (A) (A) (A) (A) (A) (A) (A) (A) (A) (A) (A) (A)
                 (A) (A) (A) (A) (A) (A) (A) (A) (A) (A) (A) (A)
                 (A) (A) (A) (A) (A) (A) (A) (A) (A) (A) (A) (A)
                 (A) (A) (A) (A) (A) (A) (A) (A) (A) (A) (A) (A)
                 (A) (A) (A) (A) (A) (A) (A) (A) (A) (A) (A) (A)
                 (A) (A) (A) (A) (A) (A) (A) (A) (A) (A) (A) (A)
                 (A) (A) (A) (A) (A) (A) (A) (A) (A) (A) (A) (A)
                 (A) (A) (A) (A) (A) (A) (A) (A) (A) (A) (A) (A)
                 (A) (A) (A) (A) (A) (A) (A) (A) (A) (A) (A) (A)
                 (A) (A) (A) (A) (A) (A) (A) (A) (A) (A) (A) (A)
                 (A) (A) (A) (A) (A) (A) (A) (A) (A) (A) (A) (A)
                 (A) (A) (A) (A) (A) (A) (A) (A) (A) (A) (A) (A)
                 (A) (A) (A) (A) (A) (A) (A) (A) (A) (A) (A) (A)
                 (A) (A) (A) (A) (A) (A) (A) (A) (A) (A) (A) (A)
                 (A) (A) (A) (A) (A) (A) (A) (A) (A) (A) (A) (A)
                 (A) (A) (A) (A) (A) (A) (A) (A) (A) (A) (A) (A)
                 (A) (A) (A) (A) (A) (A) (A) (A) (A) (A) (A) (A)
                 (A) (A) (A) (A) (A) (A) (A) (A) (A) (A) (A) (A)
                 (A) (A) (A) (A) (A) (A) (A) (A) (A) (A) (A) (A)
                 (A) (A) (A) (A) (A) (A) (A) (A) (A) (A) (A) (A)
                 (A) (A) (A) (A) (A) (A) (A) (A) (A) (A) (A) (A)
                 (A) (A) (A) (A) (A) (A) (A) (A) (A) (A) (A) (A)
                 (A) (A) (A) (A) (A) (A) (A) (A) (A) (A) (A) (A)
                 (A) (A) (A) (A) (A) (A) (A) (A) (A) (A) (A) (A)
                 (A) (A) (A) (A) (A) (A) (A) (A) (A) (A) (A) (A)
                 (A) (A) (A) (A) (A) (A) (A) (A) (A) (A) (A) (A)
                 (A) (A) (A) (A) (A) (A) (A) (A) (A) (A) (A) (A)
                 (A) (A) (A) (A) (A) (A) (A) (A) (A) (A) (A) (A)
                 (A) (A) (A) (A) (A) (A) (A) (A) (A) (A) (A) (A)
                 (A) (A) (A) (A) (A) (A) (A) (A) (A) (A) (A) (A)
                 (A) (A) (A) (A) (A) (A) (A) (A) (A) (A) (A) (A)
                 (A) (A) (A) (A) (A) (A) (A) (A) (A) (A) (A) (A)
                 (A) (A) (A) (A) (A) (A) (A) (A) (A) (A) (A) (A)
                 (A) (A) (A) (A) (A) (A) (A) (A) (A) (A) (A) (A)
                 (A) (A) (A) (A) (A) (A) (A) (A) (A) (A) (A) (A)
                 (A) (A) (A) (A) (A) (A) (A) (A) (A) (A) (A) (A)
                 (A) (A) (A) (A) (A) (A) (A) (A) (A) (A) (A) (A)
                 (A) (A) (A) (A) (A) (A) (A) (A) (A) (A) (A) (A)
                 (A) (A) (A) (A) (A) (A) (A) (A) (A) (A) (A) (A)
                 (A) (A) (A) (A) (A) (A) (A) (A) (A) (A) (A) (A)
                 (A) (A) (A) (A) (A) (A) (A) (A) (A) (A) (A) (A)
                 (A) (A) (A) (A) (A) (A) (A) (A) (A) (A) (A) (A)
                 (A) (A) (A) (A) (A) (A) (A) (A) (A) (A) (A) (A)
                 (A) (A) (A) (A) (A) (A) (A) (A) (A) (A) (A) (A)
                 (A) (A) (A) (A) (A) (A) (A) (A) (A) (A) (A) (A)
                 (A) (A) (A) (A) (A) (A) (A) (A) (A) (A) (A) (A)
                 (A) (A) (A) (A) (A) (A) (A) (A) (A) (A) (A) (A)
                 (A) (A) (A) (A) (A) (A) (A) (A) (A) (A) (A) (A)
                 (A) (A) (A) (A) (A) (A) (A) (A) (A) (A) (A) (A)
                 (A) (A) (A) (A) (A) (A) (A) (A) (A) (A) (A) (A)
                 (A) (A) (A) (A) (A) (A) (A) (A) (A) (A) (A) (A)
                 (A) (A) (A) (A) (A) (A) (A) (A) (A) (A) (A) (A)
                 (A) (A) (A) (A) (A) (A) (A) (A) (A) (A) (A) (A)
                 (A) (A) (A) (A) (A) (A) (A) (A) (A) (A) (A) (A)
                 (A) (A) (A) (A) (A) (A) (A) (A) (A) (A) (A) (A)
                 (A) (A) (A) (A) (A) (A) (A) (A) (A) (A) (A) (A)
                 (A) (A) (A) (A) (A) (A) (A) (A) (A) (A) (A) (A)
                 (A) (A) (A) (A) (A) (A) (A) (A) (A) (A) (A) (A)
                 (A) (A) (A) (A) (A) (A) (A) (A) (A) (A) (A) (A)
                 (A) (A) (A) (A) (A) (A) (A) (A) (A) (A) (A) (A)
                 (A) (A) (A) (A) (A) (A) (A) (A) (A) (A) (A) (A)
                 (A) (A) (A) (A) (A) (A) (A) (A) (A) (A) (A) (A)
                 (A) (A) (A) (A) (A) (A) (A) (A) (A) (A) (A) (A)
                 (A) (A) (A) (A) (A) (A) (A) (A) (A) (A) (A) (A)
                 (A) (A) (A) (A) (A) (A) (A) (A) (A) (A) (A) (A)
                 (A) (A) (A) (A) (A) (A) (A) (A) (A) (A) (A) (A)
                 (A) (A) (A) (A) (A) (A) (A) (A) (A) (A) (A) (A)
                 (A) (A) (A) (A) (A) (A) (A) (A) (A) (A) (A) (A)
                 (A) (A) (A) (A) (A) (A) (A) (A) (A) (A) (A) (A)
                 (A) (A) (A) (A) (A) (A) (A) (A) (A) (A) (A) (A)
                 (A) (A) (A) (A) (A) (A) (A) (A) (A) (A) (A) (A)
                 (A) (A) (A) (A) (A) (A) (A) (A) (A) (A) (A) (A)
                 (A) (A) (A) (A) (A) (A) (A) (A) (A) (A) (A) (A)
                 (A) (A) (A) (A) (A) (A) (A) (A) (A) (A) (A) (A)
                 (A) (A) (A) (A) (A) (A) (A) (A) (A) (A) (A) (A)
                 (A) (A) (A) (A) (A) (A) (A) (A) (A) (A) (A) (A)
                 (A) (A) (A) (A) (A) (A) (A) (A) (A) (A) (A) (A)
                 (A) (A) (A) (A) (A) (A) (A) (A) (A) (A) (A) (A)
                 (A) (A) (A) (A) (A) (A) (A) (A) (A) (A) (A) (A)
                 (A) (A) (A) (A) (A) (A) (A) (A) (A) (A) (A) (A)
                 (A) (A) (A) (A) (A) (A) (A) (A) (A) (A) (A) (A)
                 (A) (A) (A) (A) (A) (A) (A) (A) (A) (A) (A) (A)
                 (A) (A) (A) (A) (A) (A) (A) (A) (A) (A) (A) (A)
                 (A) (A) (A) (A) (A) (A) (A) (A) (A) (A) (A) (A)
                 (A) (A) (A) (A) (A) (A) (A) (A) (A) (A) (A) (A)
                 (A) (A) (A) (A) (A) (A) (A) (A) (A) (A) (A) (A)
                 (A) (A) (A) (A) (A) (A) (A) (A) (A) (A) (A) (A)
                 (A) (A) (A) (A) (A) (A) (A) (A) (A) (A) (A) (A)
                 (A) (A) (A) (A) (A) (A) (A) (A) (A) (A) (A) (A)
                 (A) (A) (A) (A) (A) (A) (A) (A) (A) (A) (A) (A)
                 (A) (A) (A) (A) (A) (A) (A) (A) (A) (A) (A) (A)
                 (A) (A) (A) (A) (A) (A) (A) (A) (A) (A) (A) (A)
                 (A) (A) (A) (A) (A) (A) (A) (A) (A) (A) (A) (A)
                 (A) (A) (A) (A) (A) (A) (A) (A) (A) (A) (A) (A)
                 (A) (A) (A) (A) (A) (A) (A) (A) (A) (A) (A) (A)
                 (A) (A) (A) (A) (A) (A) (A) (A) (A) (A) (A) (A)
                 (A) (A) (A) (A) (A) (A) (A) (A) (A) (A) (A) (A)
                 (A) (A) (A) (A) (A) (A) (A) (A) (A) (A) (A) (A)
                 (A) (A) (A) (A) (A) (A) (A) (A) (A) (A) (A) (A)
                 (A) (A) (A) (A) (A) (A) (A) (A) (A) (A) (A) (A)
                 (A) (A) (A) (A) (A) (A) (A) (A) (A) (A) (A) (A)
                 (A) (A) (A) (A) (A) (A) (A) (A) (A) (A) (A) (A)
                 (A) (A) (A) (A) (A) (A) (A) (A) (A) (A) (A) (A)
                 (A) (A) (A) (A) (A) (A) (A) (A) (A) (A) (A) (A)
                 (A) (A) (A) (A) (A) (A) (A) (A) (A) (A) (A) (A)
                 (A) (A) (A) (A) (A) (A) (A) (A) (A) (A) (A) (A)
                 (A) (A) (A) (A) (A) (A) (A) (A) (A) (A) (A) (A)
                 (A) (A) (A) (A) (A) (A) (A) (A) (A) (A) (A) (A)
                 (A) (A) (A) (A) (A) (A) (A) (A) (A) (A) (A) (A)
                 (A) (A) (A) (A) (A) (A) (A) (A) (A) (A) (A) (A)
                 (A) (A) (A) (A) (A) (A) (A) (A) (A) (A) (A) (A)
                 (A) (A) (A) (A) (A) (A) (A) (A) (A) (A) (A) (A)
                 (A) (A) (A) (A) (A) (A)
 The electronic state is 1-A.
 Alpha  occ. eigenvalues -- -256.17751 -30.02715 -25.86877 -25.86482 -25.86466
 Alpha  occ. eigenvalues --  -19.18307 -14.41774 -14.36477 -14.33448 -14.33328
 Alpha  occ. eigenvalues --  -14.33292 -14.33158 -10.25472 -10.23743 -10.21131
 Alpha  occ. eigenvalues --  -10.21098 -10.20977 -10.20959 -10.20928 -10.20867
 Alpha  occ. eigenvalues --  -10.20840 -10.20836 -10.20686 -10.20603 -10.19654
 Alpha  occ. eigenvalues --  -10.19488 -10.19076 -10.18895 -10.18858 -10.18812
 Alpha  occ. eigenvalues --  -10.18777 -10.18731 -10.18714 -10.18594 -10.18574
 Alpha  occ. eigenvalues --  -10.18547 -10.18515 -10.18492 -10.18473 -10.18427
 Alpha  occ. eigenvalues --  -10.18422 -10.18404 -10.18229 -10.18226 -10.18212
 Alpha  occ. eigenvalues --  -10.18039  -3.40302  -2.16934  -2.16160  -2.16114
 Alpha  occ. eigenvalues --   -1.05381  -1.04037  -0.96953  -0.96026  -0.95975
 Alpha  occ. eigenvalues --   -0.95033  -0.90975  -0.82280  -0.81859  -0.81536
 Alpha  occ. eigenvalues --   -0.80807  -0.80419  -0.80285  -0.79640  -0.79543
 Alpha  occ. eigenvalues --   -0.76740  -0.75680  -0.74344  -0.73976  -0.73227
 Alpha  occ. eigenvalues --   -0.71873  -0.70984  -0.70078  -0.68311  -0.67954
 Alpha  occ. eigenvalues --   -0.67834  -0.64631  -0.64169  -0.64127  -0.61362
 Alpha  occ. eigenvalues --   -0.60602  -0.59994  -0.57878  -0.56681  -0.56007
 Alpha  occ. eigenvalues --   -0.55404  -0.54491  -0.53663  -0.53322  -0.52599
 Alpha  occ. eigenvalues --   -0.51114  -0.51064  -0.50574  -0.48718  -0.47957
 Alpha  occ. eigenvalues --   -0.47829  -0.47583  -0.47360  -0.44992  -0.44810
 Alpha  occ. eigenvalues --   -0.44592  -0.44479  -0.44106  -0.43748  -0.43520
 Alpha  occ. eigenvalues --   -0.43394  -0.43281  -0.43062  -0.42847  -0.42615
 Alpha  occ. eigenvalues --   -0.42502  -0.42331  -0.41803  -0.41795  -0.41604
 Alpha  occ. eigenvalues --   -0.41455  -0.41360  -0.40501  -0.40249  -0.39995
 Alpha  occ. eigenvalues --   -0.39749  -0.39476  -0.39140  -0.39000  -0.38665
 Alpha  occ. eigenvalues --   -0.38411  -0.38045  -0.37626  -0.37240  -0.36981
 Alpha  occ. eigenvalues --   -0.36569  -0.36058  -0.36000  -0.35363  -0.34579
 Alpha  occ. eigenvalues --   -0.34308  -0.34042  -0.33754  -0.33405  -0.32314
 Alpha  occ. eigenvalues --   -0.31701  -0.30819  -0.30414  -0.29412  -0.29220
 Alpha  occ. eigenvalues --   -0.28848  -0.26869  -0.26677  -0.24474  -0.24137
 Alpha  occ. eigenvalues --   -0.23117  -0.22722  -0.22094  -0.19333  -0.18567
 Alpha  occ. eigenvalues --   -0.18105  -0.17896  -0.17818
 Alpha virt. eigenvalues --   -0.06596  -0.06473  -0.01966   0.00492   0.01115
 Alpha virt. eigenvalues --    0.01456   0.02175   0.02953   0.03537   0.04445
 Alpha virt. eigenvalues --    0.04816   0.05135   0.05456   0.05626   0.05749
 Alpha virt. eigenvalues --    0.05965   0.06498   0.07153   0.07917   0.07991
 Alpha virt. eigenvalues --    0.08335   0.08855   0.09088   0.09579   0.09692
 Alpha virt. eigenvalues --    0.09889   0.10047   0.10516   0.10832   0.11368
 Alpha virt. eigenvalues --    0.11587   0.11717   0.11916   0.12273   0.12412
 Alpha virt. eigenvalues --    0.12585   0.12638   0.13173   0.13325   0.13478
 Alpha virt. eigenvalues --    0.13568   0.14176   0.14398   0.14499   0.14725
 Alpha virt. eigenvalues --    0.14760   0.15022   0.15286   0.15489   0.15729
 Alpha virt. eigenvalues --    0.15821   0.15998   0.16190   0.16299   0.16613
 Alpha virt. eigenvalues --    0.16928   0.17115   0.17500   0.17901   0.18058
 Alpha virt. eigenvalues --    0.18114   0.18695   0.18952   0.19379   0.19783
 Alpha virt. eigenvalues --    0.19804   0.19923   0.20222   0.20529   0.20930
 Alpha virt. eigenvalues --    0.21028   0.21405   0.21668   0.21832   0.22280
 Alpha virt. eigenvalues --    0.22514   0.22737   0.23039   0.23236   0.23943
 Alpha virt. eigenvalues --    0.24174   0.24455   0.24936   0.25489   0.25631
 Alpha virt. eigenvalues --    0.25769   0.25887   0.26039   0.26369   0.26656
 Alpha virt. eigenvalues --    0.27116   0.27273   0.27476   0.27656   0.27708
 Alpha virt. eigenvalues --    0.28366   0.28639   0.28891   0.29089   0.29305
 Alpha virt. eigenvalues --    0.29655   0.29875   0.30150   0.30423   0.30806
 Alpha virt. eigenvalues --    0.31092   0.31176   0.31343   0.31681   0.32050
 Alpha virt. eigenvalues --    0.32359   0.32580   0.32739   0.33177   0.33301
 Alpha virt. eigenvalues --    0.33626   0.33696   0.34182   0.34484   0.34751
 Alpha virt. eigenvalues --    0.34872   0.35504   0.35704   0.36077   0.36183
 Alpha virt. eigenvalues --    0.36373   0.36620   0.36757   0.36995   0.37449
 Alpha virt. eigenvalues --    0.37836   0.38081   0.38280   0.38550   0.38792
 Alpha virt. eigenvalues --    0.39011   0.39155   0.39439   0.39688   0.39756
 Alpha virt. eigenvalues --    0.40078   0.40367   0.40597   0.40742   0.41027
 Alpha virt. eigenvalues --    0.41290   0.41410   0.41598   0.41849   0.42042
 Alpha virt. eigenvalues --    0.42324   0.42452   0.42748   0.42843   0.43169
 Alpha virt. eigenvalues --    0.43229   0.43753   0.43899   0.44155   0.44334
 Alpha virt. eigenvalues --    0.44599   0.44760   0.44788   0.44991   0.45291
 Alpha virt. eigenvalues --    0.45584   0.46208   0.46215   0.46481   0.46857
 Alpha virt. eigenvalues --    0.46885   0.47153   0.47372   0.47433   0.47498
 Alpha virt. eigenvalues --    0.47770   0.48016   0.48101   0.48299   0.48639
 Alpha virt. eigenvalues --    0.49047   0.49139   0.49230   0.49351   0.49683
 Alpha virt. eigenvalues --    0.49869   0.49995   0.50484   0.50656   0.50968
 Alpha virt. eigenvalues --    0.51002   0.51323   0.51438   0.51729   0.51957
 Alpha virt. eigenvalues --    0.52186   0.52374   0.52802   0.52923   0.53016
 Alpha virt. eigenvalues --    0.53243   0.53641   0.53870   0.54551   0.54628
 Alpha virt. eigenvalues --    0.54797   0.54960   0.55530   0.55637   0.55815
 Alpha virt. eigenvalues --    0.55980   0.56321   0.56405   0.56876   0.57104
 Alpha virt. eigenvalues --    0.57346   0.57732   0.57842   0.58432   0.58580
 Alpha virt. eigenvalues --    0.58799   0.59238   0.59796   0.60041   0.60157
 Alpha virt. eigenvalues --    0.60567   0.61015   0.61192   0.61528   0.61788
 Alpha virt. eigenvalues --    0.61953   0.62536   0.62757   0.63079   0.63225
 Alpha virt. eigenvalues --    0.63330   0.63742   0.64131   0.64399   0.64671
 Alpha virt. eigenvalues --    0.65064   0.65435   0.65536   0.65947   0.66209
 Alpha virt. eigenvalues --    0.66421   0.66681   0.66912   0.66968   0.67569
 Alpha virt. eigenvalues --    0.68030   0.68477   0.68666   0.68980   0.69595
 Alpha virt. eigenvalues --    0.69798   0.70555   0.70687   0.71127   0.71428
 Alpha virt. eigenvalues --    0.71648   0.72220   0.72510   0.72766   0.73138
 Alpha virt. eigenvalues --    0.73215   0.73317   0.73670   0.74113   0.74410
 Alpha virt. eigenvalues --    0.74611   0.74718   0.75600   0.75657   0.75768
 Alpha virt. eigenvalues --    0.76359   0.76739   0.77050   0.77365   0.77765
 Alpha virt. eigenvalues --    0.78000   0.78124   0.78533   0.78624   0.79004
 Alpha virt. eigenvalues --    0.79433   0.79965   0.80484   0.80535   0.80855
 Alpha virt. eigenvalues --    0.80966   0.81444   0.82094   0.82400   0.82921
 Alpha virt. eigenvalues --    0.83098   0.83587   0.84213   0.84484   0.84952
 Alpha virt. eigenvalues --    0.85144   0.85534   0.85837   0.86286   0.86641
 Alpha virt. eigenvalues --    0.86726   0.87206   0.87860   0.88354   0.88863
 Alpha virt. eigenvalues --    0.89013   0.89422   0.89681   0.90029   0.90585
 Alpha virt. eigenvalues --    0.90744   0.90763   0.91671   0.92015   0.92384
 Alpha virt. eigenvalues --    0.92653   0.92760   0.92990   0.93644   0.93957
 Alpha virt. eigenvalues --    0.94338   0.94871   0.95190   0.95414   0.95959
 Alpha virt. eigenvalues --    0.96480   0.96912   0.97032   0.97314   0.97703
 Alpha virt. eigenvalues --    0.98119   0.98819   0.99205   0.99338   0.99532
 Alpha virt. eigenvalues --    0.99725   0.99878   1.00454   1.01177   1.01406
 Alpha virt. eigenvalues --    1.01775   1.01907   1.02120   1.02564   1.02773
 Alpha virt. eigenvalues --    1.03098   1.03340   1.03626   1.03855   1.04200
 Alpha virt. eigenvalues --    1.04471   1.04911   1.05080   1.05246   1.05568
 Alpha virt. eigenvalues --    1.06170   1.06882   1.07100   1.07858   1.08053
 Alpha virt. eigenvalues --    1.08476   1.08661   1.09179   1.09511   1.09886
 Alpha virt. eigenvalues --    1.10419   1.10770   1.11504   1.11841   1.11949
 Alpha virt. eigenvalues --    1.12538   1.12816   1.13273   1.13637   1.13937
 Alpha virt. eigenvalues --    1.14608   1.15425   1.15770   1.16488   1.16727
 Alpha virt. eigenvalues --    1.17165   1.17328   1.18012   1.18601   1.18643
 Alpha virt. eigenvalues --    1.18961   1.19176   1.19705   1.19792   1.20288
 Alpha virt. eigenvalues --    1.20800   1.21069   1.21232   1.21471   1.21739
 Alpha virt. eigenvalues --    1.22366   1.22740   1.23535   1.23910   1.24151
 Alpha virt. eigenvalues --    1.25309   1.25486   1.25915   1.26522   1.27127
 Alpha virt. eigenvalues --    1.27319   1.27631   1.27999   1.28464   1.28726
 Alpha virt. eigenvalues --    1.29377   1.29590   1.29921   1.30230   1.30883
 Alpha virt. eigenvalues --    1.30952   1.31144   1.31890   1.32036   1.32455
 Alpha virt. eigenvalues --    1.32976   1.33067   1.33575   1.33901   1.34440
 Alpha virt. eigenvalues --    1.35077   1.35666   1.37002   1.37435   1.37732
[...]
  1410. RY*(   7) C  77                  0.00044     1.98415   
  1411. RY*(   8) C  77                  0.00027     1.67258   
  1412. RY*(   9) C  77                  0.00020     1.86572   
  1413. RY*(  10) C  77                  0.00016     1.77832   
  1414. RY*(  11) C  77                  0.00012     1.17731   
  1415. RY*(  12) C  77                  0.00008     2.25780   
  1416. RY*(  13) C  77                  0.00005     2.95579   
  1417. RY*(  14) C  77                  0.00003     3.48749   
  1418. RY*(  15) C  77                  0.00003     2.22785   
  1419. RY*(  16) C  77                  0.00003     1.32151   
  1420. RY*(  17) C  77                  0.00001     4.54235   
  1421. RY*(  18) C  77                  0.00001     4.54722   
  1422. RY*(  19) C  77                  0.00000    20.21671   
  1423. RY*(  20) C  77                  0.00001     3.95603   
  1424. RY*(  21) C  77                  0.00000     3.26431   
  1425. RY*(  22) C  77                  0.00000     3.46211   
  1426. RY*(  23) C  77                  0.00000     3.72580   
  1427. RY*(  24) C  77                  0.00001     3.40070   
  1428. RY*(  25) C  77                  0.00001     3.69221   
  1429. RY*(  26) C  77                  0.00000     3.42650   
  1430. RY*(   1) H  78                  0.00053     0.71181   
  1431. RY*(   2) H  78                  0.00033     2.35459   
  1432. RY*(   3) H  78                  0.00025     2.30655   
  1433. RY*(   4) H  78                  0.00008     2.72966   
  1434. RY*(   5) H  78                  0.00001     3.11928   
  1435. BD*(   1)Fe   1 - N   2          0.11123     0.35156  1436(g),1437(g),152(g)
                                                    154(g),191(g),153(g),217(v)
                                                    1380(v),192(g),1381(v)
                                                    1379(v),268(r),269(r),218(v)
                                                    216(v),1438(g),1518(r)
                                                    1239(r),1215(r),1517(r)
                                                    1244(r),1216(r),1218(r)
                                                    1213(r),1217(r)
  1436. BD*(   1)Fe   1 - N   3          0.11177     0.35189  1435(g),1437(g),152(g)
                                                    154(g),217(g),153(g),191(v)
                                                    1378(v),1381(v),218(g)
                                                    242(r),243(r),192(v),190(v)
                                                    167(g),1442(g),1517(r)
                                                    1244(r),1215(r),1216(r)
                                                    1518(r),1239(r),1217(r)
                                                    1218(r),1213(r)
  1437. BD*(   1)Fe   1 - N  76          0.08674     0.31683   
  1438. BD*(   1) N   2 - C   6          0.02665     0.52583   
  1439. BD*(   1) N   2 - C   9          0.02710     0.52545   
  1440. BD*(   2) N   2 - C   9          0.61938     0.02039  1460(v),1451(v),1453(v)
                                                    373(g),189(g),154(v),740(v)
  1441. BD*(   1) N   3 - C  10          0.02695     0.52482   
  1442. BD*(   1) N   3 - C  13          0.02625     0.52643   
  1443. BD*(   1) N   4 - C  14          0.02740     0.50594   
  1444. BD*(   2) N   4 - C  14          0.65397     0.00763  1467(v),1471(v),1476(v)
                                                    503(g),241(g),154(r)
  1445. BD*(   1) N   4 - C  17          0.02569     0.51744   
  1446. BD*(   1) N   5 - C  18          0.02690     0.51110   
  1447. BD*(   1) N   5 - C  21          0.02694     0.51097   
  1448. BD*(   2) N   5 - C  21          0.63723     0.00855  1451(v),1480(v),158(v)
                                                    685(g),267(g),709(v),154(r)
                                                    1518(r)
  1449. BD*(   1) C   6 - C   7          0.03597     0.49633   
  1450. BD*(   1) C   6 - C  22          0.02151     0.58634   
  1451. BD*(   2) C   6 - C  22          0.42850     0.04979  1448(v),1453(v),1440(v)
                                                    709(g),1460(r),297(g),295(g)
  1452. BD*(   1) C   7 - C   8          0.02241     0.61728   
  1453. BD*(   2) C   7 - C   8          0.24516     0.07516  1451(v),1440(v),1490(v)
                                                    1492(v),1493(v),1491(v)
  1454. BD*(   1) C   7 - C  34          0.01752     0.41979   
  1455. BD*(   1) C   8 - C   9          0.03539     0.49759   
  1456. BD*(   1) C   8 - C  30          0.01730     0.42135   
  1457. BD*(   1) C   9 - C  24          0.02098     0.59833   
  1458. BD*(   1) C  10 - C  11          0.03436     0.50601   
  1459. BD*(   1) C  10 - C  24          0.02146     0.58925   
  1460. BD*(   2) C  10 - C  24          0.42331     0.05516  1462(v),1440(v),155(v)
                                                    1467(r),740(g),1451(r)
                                                    399(g),401(g)
  1461. BD*(   1) C  11 - C  12          0.02433     0.60185   
  1462. BD*(   2) C  11 - C  12          0.28914     0.07115  1500(v),1460(v),1467(v)
                                                    1496(v),1497(v)
  1463. BD*(   1) C  11 - C  38          0.01650     0.42368   
  1464. BD*(   1) C  12 - C  13          0.03415     0.49510   
  1465. BD*(   1) C  12 - C  42          0.02709     0.49919   
  1466. BD*(   1) C  13 - C  26          0.02137     0.58732   
  1467. BD*(   2) C  13 - C  26          0.41504     0.05195  1462(v),1444(v),155(v)
                                                    1476(r),1460(r),1500(r)
                                                    771(g),477(g),479(g)
  1468. BD*(   1) C  14 - C  15          0.03470     0.50660   
  1469. BD*(   1) C  14 - C  26          0.02202     0.58501   
  1470. BD*(   1) C  15 - C  16          0.02448     0.59651   
  1471. BD*(   2) C  15 - C  16          0.29805     0.06752  1508(v),1476(v),1444(v)
                                                    1504(v),1505(v)
  1472. BD*(   1) C  15 - C  47          0.01652     0.42060   
  1473. BD*(   1) C  16 - C  17          0.03327     0.49535   
  1474. BD*(   1) C  16 - C  51          0.02695     0.49662   
  1475. BD*(   1) C  17 - C  28          0.02155     0.58633   
  1476. BD*(   2) C  17 - C  28          0.42402     0.05125  1471(v),1444(v),158(v)
                                                    1467(r),1508(r),802(g)
                                                    581(g),583(g)
  1477. BD*(   1) C  18 - C  19          0.03521     0.49625   
  1478. BD*(   1) C  18 - C  28          0.02152     0.59311   
  1479. BD*(   1) C  19 - C  20          0.02257     0.61115   
  1480. BD*(   2) C  19 - C  20          0.25318     0.07130  1448(v),158(v),1514(v)
                                                    1512(v),1516(v),1511(v)
  1481. BD*(   1) C  19 - C  56          0.01725     0.41817   
  1482. BD*(   1) C  20 - C  21          0.03563     0.49726   
  1483. BD*(   1) C  20 - C  60          0.01742     0.41719   
  1484. BD*(   1) C  21 - C  22          0.02169     0.58699   
  1485. BD*(   1) C  22 - H  23          0.01315     0.43290   
  1486. BD*(   1) C  24 - H  25          0.01347     0.43458   
  1487. BD*(   1) C  26 - H  27          0.01455     0.43648   
  1488. BD*(   1) C  28 - H  29          0.01344     0.43289   
  1489. BD*(   1) C  30 - H  31          0.00693     0.39008   
  1490. BD*(   1) C  30 - H  32          0.01156     0.37979   
  1491. BD*(   1) C  30 - H  33          0.01128     0.37843   
  1492. BD*(   1) C  34 - H  35          0.01162     0.37587   
  1493. BD*(   1) C  34 - H  36          0.01167     0.37810   
  1494. BD*(   1) C  34 - H  37          0.00690     0.38933   
  1495. BD*(   1) C  38 - H  39          0.00954     0.38868   
  1496. BD*(   1) C  38 - H  40          0.01361     0.37817   
  1497. BD*(   1) C  38 - H  41          0.00895     0.39069   
  1498. BD*(   1) C  42 - H  43          0.02069     0.42128   
  1499. BD*(   1) C  42 - C  44          0.00748     0.63021   
  1500. BD*(   2) C  42 - C  44          0.08508     0.05813   
  1501. BD*(   1) C  44 - H  45          0.01125     0.43043   
  1502. BD*(   1) C  44 - H  46          0.00824     0.43047   
  1503. BD*(   1) C  47 - H  48          0.00950     0.38672   
  1504. BD*(   1) C  47 - H  49          0.01355     0.37586   
  1505. BD*(   1) C  47 - H  50          0.00899     0.38819   
  1506. BD*(   1) C  51 - H  52          0.02054     0.42029   
  1507. BD*(   1) C  51 - C  53          0.00747     0.62856   
  1508. BD*(   2) C  51 - C  53          0.08378     0.05608   
  1509. BD*(   1) C  53 - H  54          0.01130     0.42832   
  1510. BD*(   1) C  53 - H  55          0.00827     0.42872   
  1511. BD*(   1) C  56 - H  57          0.01134     0.37636   
  1512. BD*(   1) C  56 - H  58          0.01141     0.37726   
  1513. BD*(   1) C  56 - H  59          0.00688     0.38805   
  1514. BD*(   1) C  60 - H  61          0.01157     0.37439   
  1515. BD*(   1) C  60 - H  62          0.00685     0.38732   
  1516. BD*(   1) C  60 - H  63          0.01145     0.37614   
  1519. BD*(   1) C  67 - H  68          0.01237     0.35408   
  1520. BD*(   1) C  67 - H  69          0.01237     0.35410   
  1521. BD*(   1) C  67 - H  70          0.00347     0.36698   
  1522. BD*(   1) C  67 - C  73          0.01358     0.39043   
  1523. BD*(   1) N  71 - H  72          0.01427     0.37056   
  1524. BD*(   1) N  71 - C  73          0.02791     0.42406   
  1525. BD*(   1) N  71 - C  74          0.02154     0.45002   
  1526. BD*(   2) N  71 - C  74          0.65915    -0.04825  1531(v),161(v),1348(g)
                                                    1290(g),1350(g),1293(g)
  1527. BD*(   1) C  73 - C  77          0.02071     0.56807   
  1528. BD*(   1) C  74 - H  75          0.01803     0.38174   
  1529. BD*(   1) C  74 - N  76          0.01915     0.54713   
  1530. BD*(   1) N  76 - C  77          0.01894     0.48166   
  1531. BD*(   2) N  76 - C  77          0.64588    -0.01445  1526(v),161(v),1405(g)
                                                    1379(g),1382(g)
  1532. BD*(   1) C  77 - H  78          0.01453     0.42282   
       -------------------------------
              Total Lewis  296.93102  ( 96.9729%)
        Valence non-Lewis    8.67017  (  2.8315%)
        Rydberg non-Lewis    0.59866  (  0.1955%)
       -------------------------------
            Total unit  1  306.19984  (100.0000%)
           Charge unit  1   -0.19984
 
 Molecular unit  2  (H2O)
    83. BD (   1) O  64 - H  65          1.98433    -0.76279  154(r),163(r),164(r),1247(v)
                                                    152(r),1437(r),153(r),168(r)
                                                    193(r),1379(r),1381(r)
                                                    243(r),1435(r),172(r),167(r)
                                                    179(r)
    84. BD (   1) O  64 - H  66          1.98379    -0.76316  154(r),164(r),163(r),1242(v)
                                                    1437(r),152(r),168(r),153(r)
                                                    1378(r),219(r),1381(r)
                                                    1436(r),269(r),172(r),166(r)
                                                    177(r),1448(r),270(r)
   142. CR (   1) O  64                  1.99984   -18.96646  154(r),1437(r)
   159. LP (   1) O  64                  1.98990    -0.54301  154(r),165(r),153(r),1240(v)
                                                    1245(v),1435(r),1436(r)
                                                    1437(r),1381(r),167(r)
                                                    172(r),164(r),267(r),241(r)
                                                    1448(r),1444(r),1382(r)
                                                    191(r)
   160. LP (   2) O  64                  1.82067    -0.40528  154(r),1437(r),1518(g)
                                                    1517(g),1246(v),1241(v)
                                                    165(r),172(r),1381(r),243(r)
                                                    241(r),215(r),269(r),189(r)
                                                    244(r),270(r),267(r),191(r)
                                                    217(r),155(r),273(r),192(r)
                                                    153(r),248(r),218(r),168(r)
                                                    1439(r),1441(r),1438(r)
                                                    1442(r),167(r),177(r)
  1213. RY*(   1) O  64                  0.00100     0.77436   
  1214. RY*(   2) O  64                  0.00099     0.77880   
  1215. RY*(   3) O  64                  0.00022     1.25896   
  1216. RY*(   4) O  64                  0.00016     1.65170   
  1217. RY*(   5) O  64                  0.00007     2.22298   
  1218. RY*(   6) O  64                  0.00006     2.16211   
  1219. RY*(   7) O  64                  0.00003     3.61984   
  1220. RY*(   8) O  64                  0.00001     2.26480   
  1221. RY*(   9) O  64                  0.00001     3.30843   
  1222. RY*(  10) O  64                  0.00001     2.95485   
  1223. RY*(  11) O  64                  0.00000     6.61800   
  1224. RY*(  12) O  64                  0.00000    42.44992   
  1225. RY*(  13) O  64                  0.00000     6.46488   
  1226. RY*(  14) O  64                  0.00001     3.16801   
  1227. RY*(  15) O  64                  0.00000     6.42915   
  1228. RY*(  16) O  64                  0.00000     4.36022   
  1229. RY*(  17) O  64                  0.00000     6.40695   
  1230. RY*(  18) O  64                  0.00001     2.80360   
  1231. RY*(  19) O  64                  0.00000     6.64442   
  1232. RY*(  20) O  64                  0.00000     5.25972   
  1233. RY*(  21) O  64                  0.00000     5.48836   
  1234. RY*(  22) O  64                  0.00000     5.31213   
  1235. RY*(  23) O  64                  0.00000     5.08755   
  1236. RY*(  24) O  64                  0.00000     5.35369   
  1237. RY*(  25) O  64                  0.00000     5.51352   
  1238. RY*(  26) O  64                  0.00000     5.78535   
  1239. RY*(   1) H  65                  0.00152     1.07329   
  1240. RY*(   2) H  65                  0.00078     2.03650   
  1241. RY*(   3) H  65                  0.00062     2.56146   
  1242. RY*(   4) H  65                  0.00032     1.76523   
  1243. RY*(   5) H  65                  0.00001     2.87727   
  1244. RY*(   1) H  66                  0.00159     1.04862   
  1245. RY*(   2) H  66                  0.00078     2.03436   
  1246. RY*(   3) H  66                  0.00063     2.56797   
  1247. RY*(   4) H  66                  0.00033     1.79517   
  1248. RY*(   5) H  66                  0.00002     2.88063   
  1517. BD*(   1) O  64 - H  65          0.00600     0.42941   
  1518. BD*(   1) O  64 - H  66          0.00640     0.42864   
       -------------------------------
              Total Lewis    9.77854  ( 99.7799%)
        Valence non-Lewis    0.01240  (  0.1266%)
        Rydberg non-Lewis    0.00917  (  0.0935%)
       -------------------------------
            Total unit  2    9.80010  (100.0000%)
           Charge unit  2    0.19990
 Unable to Open any file for archive entry.
 1\1\GINC-BGN1016\SP\RAPFD\def2TZVP\C34H36Fe1N6O1\BEBJONES\13-Jan-2026\
 0\\# apfd/def2TZVP int=(grid=ultrafine) geom=check guess=read pop=nbo 
 scf=qc\\1a6k_01_nbo\\0,1\Fe,0,14.7106059811,27.9531646703,4.7600184783
 \N,0,14.9129111374,29.2643140748,6.2291583243\N,0,13.8416777543,26.669
 6196225,5.9959901368\N,0,14.6082693853,26.6014688235,3.2953140754\N,0,
 15.6786451063,29.1960838068,3.5403958792\C,0,15.5042536782,30.48303333
 77,6.1833082379\C,0,15.4098175402,31.1622704873,7.4571449459\C,0,14.73
 0157199,30.3242135157,8.2787375877\C,0,14.4311256212,29.147504529,7.49
 23217293\C,0,13.4990245831,26.894045311,7.2895908935\C,0,12.8440801438
 ,25.75037337,7.868258963\C,0,12.8045285724,24.8017695616,6.8853721083\
 C,0,13.4197717302,25.4112668858,5.7233501039\C,0,14.0789355361,25.3470
 684434,3.364898949\C,0,14.1250224558,24.6875830352,2.0889659779\C,0,14
 .6953037602,25.5808638589,1.222946924\C,0,14.9798855199,26.7658814926,
 2.0020875649\C,0,15.9144472291,29.0194053751,2.2125238217\C,0,16.57697
 86197,30.1695260397,1.643131987\C,0,16.7385896459,31.0552934655,2.6600
 958567\C,0,16.1651316905,30.4323350134,3.8296272226\C,0,16.0976241702,
 31.0349575981,5.067305303\H,0,16.5292409717,32.0234886804,5.1667114217
 \C,0,13.7581155224,28.0565416655,7.9859402078\H,0,13.4332476086,28.100
 7573523,9.0177390025\C,0,13.5398166886,24.7843106999,4.5025505039\H,0,
 13.1744187068,23.7689767993,4.4259629353\C,0,15.5851752819,27.89570303
 67,1.4911541818\H,0,15.8464075536,27.8901759246,0.4407643614\C,0,14.35
 19030663,30.5127189115,9.7050755548\H,0,14.6743902586,31.4863158867,10
 .0763714968\H,0,14.8051590934,29.7498635222,10.3456258277\H,0,13.26863
 9238,30.4487194868,9.8472051085\C,0,15.9724581158,32.5089106962,7.7464
 102278\H,0,15.5476630901,33.2758276194,7.0908912809\H,0,17.057369199,3
 2.5311944123,7.6037231526\H,0,15.7714277197,32.8101777267,8.7752306799
 \C,0,12.2959030078,25.6767311553,9.2477684489\H,0,11.9703128363,26.656
 4856347,9.60309327\H,0,13.0348756256,25.3008289987,9.9639029176\H,0,11
 .4377013404,25.0018429537,9.2842028678\C,0,12.245036287,23.4662643998,
 6.9129233621\H,0,11.8938553451,23.0795281201,5.9581435004\C,0,12.12398
 59653,22.673855738,7.9810405849\H,0,12.4915711598,22.9606520426,8.9586
 392654\H,0,11.6719601055,21.6923686865,7.8978875098\C,0,13.5947534651,
 23.3294941735,1.7987529473\H,0,12.7639517051,23.0724551428,2.458726875
 \H,0,14.3587214508,22.5543175249,1.9234281363\H,0,13.2383739045,23.268
 8125992,0.76785253\C,0,14.9563726153,25.4511238981,-0.1960783207\H,0,1
 4.9540572655,26.3798211375,-0.7634223719\C,0,15.1968306354,24.31972043
 28,-0.8633892405\H,0,15.2627590862,23.3585783132,-0.3684180453\H,0,15.
 3618854714,24.3293403098,-1.9344810157\C,0,16.9818782949,30.2977479619
 ,0.2171524228\H,0,16.1214233898,30.2186785503,-0.4544752813\H,0,17.688
 1992579,29.5140773644,-0.0737840871\H,0,17.4607846734,31.2586218609,0.
 024814673\C,0,17.3673282427,32.4037794577,2.6377717314\H,0,16.66117057
 21,33.184679109,2.9371183319\H,0,17.7310853072,32.6560698178,1.6409763
 835\H,0,18.2184638277,32.4630142214,3.3231741366\O,0,16.6527527935,27.
 1090822719,5.2358592789\H,0,16.5696381549,26.3516237983,4.6437463284\H
 ,0,17.1475930222,27.7650265538,4.7293329693\C,0,9.4769365597,28.672171
 7967,3.2527202034\H,0,9.2664165372,29.0860364334,2.2616797495\H,0,8.78
 01809536,29.1304350592,3.9614360782\H,0,9.2601140612,27.6047095625,3.2
 186546182\N,0,11.4601468246,30.1234182531,3.7830693525\H,0,10.99900156
 11,31.0029059922,3.6296968699\C,0,10.8891161995,28.8798409618,3.651255
 2738\C,0,12.7491280334,29.9665833477,4.156098353\H,0,13.4417180969,30.
 7717262743,4.3344699933\N,0,13.0234201591,28.6935810392,4.2667301655\C
 ,0,11.8863056986,28.0026896606,3.9588920201\H,0,11.8640713322,26.92655
 46526,3.9811362002\\Version=ES64L-G16RevC.02\State=1-A\HF=-2984.051626
 7\RMSD=1.554e-09\Dipole=-1.2538411,1.5505004,-0.5984482\Quadrupole=1.2
 493647,3.7662973,-5.015662,-3.0633845,0.1197298,-0.2780154\PG=C01 [X(C
 34H36Fe1N6O1)]\\@
 The archive entry for this job was punched.


 DO NOT LET SELFISH MEN OR GREEDY INTERESTS SKIN YOUR COUNTRY OF ITS
 BEAUTY, ITS RICHES, OR ITS ROMANCE. -- THEODORE ROOSEVELT
 Job cpu time:       0 days  0 hours 46 minutes 15.5 seconds.
 Elapsed time:       0 days  0 hours  0 minutes 57.7 seconds.
 File lengths (MBytes):  RWF=    792 Int=      0 D2E=      0 Chk=    544 Scr=      1
 Normal termination of Gaussian 16 at Tue Jan 13 21:26:24 2026.
