78
 energy: -115.988921845785 gnorm: 0.271575486703 xtb: 6.7.1 (edcfbbe)
Fe          14.59400000000000       27.96800000000000        4.72000000000000
N           14.94600000000000       29.20200000000000        6.28000000000000
N           13.85600000000000       26.59500000000000        6.04600000000000
N           14.40000000000000       26.59800000000000        3.23500000000000
N           15.52000000000000       29.25100000000000        3.44700000000000
C           15.44900000000000       30.52300000000000        6.18300000000000
C           15.36300000000000       31.15700000000000        7.45400000000000
C           14.82000000000000       30.25600000000000        8.35300000000000
C           14.53400000000000       29.10000000000000        7.58200000000000
C           13.58000000000000       26.78500000000000        7.39400000000000
C           12.94300000000000       25.63600000000000        7.94200000000000
C           12.79600000000000       24.71500000000000        6.96600000000000
C           13.33400000000000       25.33400000000000        5.73500000000000
C           13.94500000000000       25.28400000000000        3.32000000000000
C           14.14600000000000       24.58900000000000        2.11000000000000
C           14.75000000000000       25.46400000000000        1.25500000000000
C           14.94400000000000       26.69900000000000        1.95700000000000
C           15.74500000000000       29.01800000000000        2.12300000000000
C           16.48200000000000       30.19300000000000        1.60500000000000
C           16.63200000000000       31.05500000000000        2.56100000000000
C           16.01700000000000       30.53200000000000        3.75100000000000
C           15.96600000000000       31.09000000000000        4.99600000000000
H           16.37400000000000       32.09600000000000        5.08600000000000
C           13.91500000000000       27.93600000000000        8.07900000000000
H           13.66900000000000       27.94500000000000        9.14000000000000
C           13.41600000000000       24.75700000000000        4.50700000000000
H           13.01600000000000       23.74600000000000        4.43500000000000
C           15.49100000000000       27.86700000000000        1.46500000000000
H           15.75200000000000       27.85900000000000        0.40700000000000
C           14.55500000000000       30.39800000000000        9.83400000000000
H           14.87300000000000       31.40700000000000       10.17200000000000
H           15.13300000000000       29.63200000000000       10.39400000000000
H           13.46900000000000       30.27600000000000       10.03400000000000
C           15.76400000000000       32.60300000000000        7.75500000000000
H           15.61200000000000       33.22700000000000        6.84800000000000
H           16.83600000000000       32.64300000000000        8.04400000000000
H           15.13400000000000       33.00400000000000        8.57800000000000
C           12.50800000000000       25.52500000000000        9.40300000000000
H           12.08000000000000       26.49400000000000        9.73700000000000
H           13.38600000000000       25.28000000000000       10.03800000000000
H           11.73300000000000       24.73500000000000        9.50500000000000
C           12.25200000000000       23.32100000000000        7.02000000000000
H           11.70000000000000       22.91700000000000        6.15900000000000
C           12.40700000000000       22.54300000000000        8.06900000000000
H           12.95200000000000       22.90200000000000        8.95500000000000
H           11.99400000000000       21.52400000000000        8.07400000000000
C           13.78800000000000       23.13700000000000        1.85300000000000
H           13.03600000000000       22.80300000000000        2.59900000000000
H           14.69600000000000       22.50400000000000        1.94900000000000
H           13.35700000000000       23.03100000000000        0.83400000000000
C           15.34700000000000       25.23699999999999       -0.09900000000000
H           16.00200000000000       26.02300000000000       -0.49900000000000
C           15.18100000000000       24.20500000000000       -0.87100000000000
H           14.54200000000000       23.36800000000000       -0.55400000000000
H           15.67800000000000       24.15500000000000       -1.85100000000000
C           16.95400000000000       30.29799999999999        0.12700000000000
H           16.10400000000000       30.06800000000000       -0.55100000000000
H           17.77100000000000       29.56900000000000       -0.05900000000000
H           17.31100000000000       31.32900000000000       -0.08100000000000
C           17.45300000000000       32.35500000000000        2.53500000000000
H           16.77500000000000       33.21900000000000        2.36500000000000
H           18.19600000000000       32.31300000000000        1.71000000000000
H           17.97200000000000       32.49000000000000        3.50800000000000
O           16.52500000000000       27.10600000000000        4.96200000000000
H           16.54400000000000       26.33700000000000        4.39200000000000
H           17.18700000000000       27.39099999999999        5.48200000000000
C            9.49200000000000       29.44000000000000        2.54100000000000
H            9.53300000000000       30.39099999999999        1.96900000000000
H            8.58500000000000       29.44400000000000        3.18300000000000
H            9.44700000000000       28.59100000000000        1.82600000000000
N           11.00700000000000       30.23800000000000        4.34500000000000
H           10.43900000000000       31.02300000000000        4.59100000000000
C           10.71200000000000       29.31800000000000        3.39300000000000
C           12.18100000000000       29.89699999999999        4.87800000000000
H           12.65500000000000       30.46200000000000        5.68100000000000
N           12.67400000000000       28.80900000000000        4.31100000000000
C           11.76200000000000       28.43700000000000        3.33900000000000
H           11.94300000000000       27.58200000000000        2.69900000000000
78
 energy: -116.030598031405 gnorm: 0.109174050376 xtb: 6.7.1 (edcfbbe)
Fe          14.58382017029104       27.96260906445574        4.72411461540600
N           14.91795172231467       29.23189567257641        6.26632257362987
N           13.81932867418736       26.60152349575602        6.03904099172591
N           14.42280149239674       26.58520639455068        3.23631735171420
N           15.49723440865928       29.26042022905612        3.45502263514317
C           15.43848259586882       30.51763827278484        6.17938359871598
C           15.36071559873100       31.16120753838293        7.45520693442223
C           14.81921739324118       30.25721394305577        8.34037712537574
C           14.53899870794378       29.08447991952103        7.57023819087667
C           13.58131099122610       26.79011630670114        7.38011594782142
C           12.94347696643838       25.63320094041225        7.94618732569891
C           12.79571762388885       24.71373449770177        6.95230713912413
C           13.33850319249053       25.34315581714957        5.74147157522194
C           13.94742390617809       25.29407363341399        3.32899175973115
C           14.14757470143656       24.58971714296016        2.10590557642015
C           14.77191116344136       25.46463521589577        1.24661965354831
C           14.92524533854968       26.70602854088858        1.95986869944165
C           15.75414548526249       29.03146866823675        2.13711805997517
C           16.47849981956211       30.18194282239810        1.58035743393368
C           16.64608787122913       31.06166130790346        2.57576504904809
C           16.01772782040665       30.50858403685421        3.76063281768727
C           15.96098014867333       31.08039504514273        5.00812104538226
H           16.36877203614617       32.08350328485773        5.09559512141100
C           13.92314056031025       27.93471750514294        8.07497158701813
H           13.67418874860235       27.94879256960573        9.13149646867665
C           13.41162980291803       24.75720977124753        4.50367147364945
H           13.02024686740568       23.74710061794163        4.43274203425545
C           15.48426952827953       27.87213540615042        1.45824134471955
H           15.75998421238213       27.85860280022305        0.40879917586560
C           14.55787038680046       30.40280438541143        9.81220711512963
H           14.86777274685515       31.39112794765684       10.16568633763447
H           15.11753056172986       29.64875714700383       10.37868785908426
H           13.49078684055901       30.27616250534146       10.03171615850675
C           15.76240185316002       32.58680911065102        7.74882398557415
H           15.61595927833889       33.21654308618140        6.86526381768740
H           16.81752146818714       32.64331174623739        8.04049099833382
H           15.15259660675090       32.99357488368380        8.56215020197904
C           12.51056769605149       25.52779554586824        9.38758916335414
H           12.08810808091379       26.47813646674050        9.73082145237162
H           13.36693064339786       25.28378633197351       10.02735113830912
H           11.74926417910234       24.75000916582166        9.50140270853311
C           12.25643162286615       23.34464599356173        7.01898513518666
H           11.71981058812595       22.95531016156792        6.15461521889847
C           12.40577231697237       22.55097529268928        8.07192997136384
H           12.95177785582999       22.87977024945004        8.94717470648871
H           12.00351480485453       21.54307722384499        8.08070550272715
C           13.78395712060448       23.15125217839903        1.86334018953688
H           13.04728065585841       22.80499221479942        2.59308547865374
H           14.67468887891049       22.51534494375172        1.94252367279333
H           13.34980731190578       23.02692887448210        0.86781153459001
C           15.34257206629151       25.24695211637982       -0.08888258586649
H           15.98984743336441       26.03599838412439       -0.46765129926804
C           15.17941920868329       24.19601954474318       -0.87708182590579
H           14.55973059603013       23.36093599006966       -0.58846998788088
H           15.66787209826376       24.14336603206884       -1.84267342626491
C           16.94410156896891       30.29056076334100        0.14020520126744
H           16.11550252230083       30.06910512041695       -0.53918548704822
H           17.75433375266173       29.57985308566354       -0.05381757087671
H           17.30265919880786       31.30207061684824       -0.07229745148575
C           17.43935410225331       32.34890550228639        2.54088146584595
H           16.78213694919601       33.20952331248402        2.37271776227982
H           18.17719895053788       32.31521475057404        1.73315400203713
H           17.96466238570857       32.48969969669495        3.48938901192101
O           16.51697014281351       27.09023121423123        4.96210507586028
H           16.57369821328650       26.32169807801309        4.39476668938998
H           17.22838702148058       27.38641405116313        5.50054308391728
C            9.49357430324735       29.43841278952457        2.53769555764345
H            9.52172911182909       30.37545817261304        1.96972617962478
H            8.59378293426945       29.44100812774521        3.16387141933304
H            9.44135114143354       28.60377235092902        1.83609355966955
N           11.00780882005109       30.23436082041581        4.34554847857584
H           10.43522079535300       31.02194726924315        4.59507765447322
C           10.71719046792429       29.32083097772220        3.37636266152521
C           12.19105953400452       29.89273052343211        4.88258737295042
H           12.66116401927326       30.44764493736330        5.67666271384257
N           12.68048086718205       28.81616539163246        4.31106968207422
C           11.76743340891203       28.44518362308774        3.35196733074955
H           11.94301933963488       27.59285084110445        2.72226907923983
78
 energy: -116.042516941124 gnorm: 0.028259843846 xtb: 6.7.1 (edcfbbe)
Fe          14.57747715486687       27.95938435913713        4.72496322178902
N           14.89847307969771       29.25191911671988        6.25255326062682
N           13.79178267033446       26.60971570258867        6.02840987210027
N           14.42578494873494       26.58453230671974        3.23223434976546
N           15.48747944387587       29.25945027012637        3.46246536687884
C           15.41529362852335       30.51186226096688        6.16875460392749
C           15.35523078567882       31.16344996809108        7.45414404062784
C           14.81840182767155       30.25765932106624        8.32617458560829
C           14.52929843295086       29.07584857660072        7.55214672525165
C           13.57291498814548       26.80198082926724        7.35920683692719
C           12.94884657047507       25.63664444826199        7.94570417919772
C           12.80486995485609       24.71992213118868        6.93816557337110
C           13.33106642647316       25.36289144508233        5.73826153991306
C           13.95061312087096       25.30767042735210        3.33686003027620
C           14.14521952703616       24.59395592481800        2.10402714712548
C           14.78244451753098       25.46563945271455        1.24184610582493
C           14.91776717696929       26.71182310060173        1.96943896964452
C           15.75559067162666       29.03912748018883        2.14943803604538
C           16.47193776197775       30.16898087139474        1.57674402665849
C           16.65251626933019       31.05599820155545        2.59316741499474
C           16.00938134313392       30.48328431641175        3.76575690827895
C           15.94554973800153       31.07423348878671        5.01357756078362
H           16.36580824461397       32.06864116653551        5.10269552540868
C           13.91804713869959       27.94100422683245        8.06538013801063
H           13.68600506895704       27.95138517315181        9.12198181905979
C           13.40482250335546       24.76222743211694        4.49691999268606
H           13.02785904342103       23.75046418972193        4.42999447173667
C           15.48077207794637       27.87426874180422        1.45605079677352
H           15.76665250921945       27.85928264801854        0.41388981199929
C           14.56088598608241       30.40496721320376        9.79039601734238
H           14.86900185707540       31.38401793921270       10.14542248860683
H           15.11245669933380       29.65411511671538       10.35541750034735
H           13.50244942944884       30.27652688313274       10.01635716133597
C           15.76272144577552       32.57165605094347        7.74263125400914
H           15.61804655309480       33.20310252895071        6.87018002966266
H           16.81112240323882       32.63026740077561        8.03266120790500
H           15.16652263172313       32.97897122202180        8.55558174908344
C           12.51610363330012       25.53224764718522        9.37046731067990
H           12.09529034520429       26.47389354952800        9.71595626006306
H           13.36037494125835       25.28752175450570       10.01490851417817
H           11.76286609145716       24.75790985125487        9.48475773002513
C           12.27487719423999       23.37111661901477        7.01370125061731
H           11.74314561733333       23.00110779380320        6.14542351167069
C           12.41275438499453       22.56428784634518        8.06460884383501
H           12.95671841195367       22.86556602364284        8.94014423639259
H           12.00053706248513       21.56965901904224        8.07669028909014
C           13.77802851680261       23.16593977888833        1.87315615009609
H           13.05829528981240       22.81761749080663        2.60671187324118
H           14.66226050105195       22.52986681427157        1.93481682024580
H           13.33454314188902       23.03431710913723        0.89136998686998
C           15.33387706402930       25.25081539591143       -0.07538269924104
H           15.96923559952333       26.04794131293701       -0.44015193862170
C           15.18007311302186       24.19248006572142       -0.87264034861572
H           14.57271919774569       23.35120312222530       -0.61168657427327
H           15.66115392331394       24.14763040000470       -1.83301363480578
C           16.92973545843730       30.27919794968360        0.16257975662632
H           16.11536711022376       30.06289078388986       -0.52449026851428
H           17.73798510771389       29.57813068213173       -0.04084921749864
H           17.29094833845010       31.28141810046999       -0.04998875875107
C           17.42265967178953       32.33591255081789        2.55313217963741
H           16.77155775923334       33.19249075712708        2.38557282383040
H           18.15573465855334       32.31052487130065        1.75077936990830
H           17.95379370903926       32.48970267573112        3.48786210321519
O           16.51488970271760       27.05863062325037        4.99940042940480
H           16.64208745053590       26.31117855800003        4.40725191991783
H           17.26783518030413       27.37489788885766        5.50298602031764
C            9.49801712707747       29.43512255103092        2.53462984024711
H            9.51336904135877       30.36430583257525        1.96673608402701
H            8.60493077202779       29.43423912293193        3.15683913201339
H            9.44227319824667       28.60554634117304        1.84157170918365
N           11.01273386165298       30.23295596185467        4.34653816348770
H           10.43721598776136       31.02053362109258        4.59961833199243
C           10.72620383401705       29.32385576474286        3.36318980093436
C           12.20092264763165       29.88866726082342        4.88899982959399
H           12.66839458499598       30.43567979272061        5.67934642513564
N           12.68571518859865       28.81659041781565        4.31676015427543
C           11.77828984630276       28.45229825198588        3.36144236464344
H           11.94737210316620       27.59823611298890        2.74065390533931
78
 energy: -116.046018083701 gnorm: 0.037318256070 xtb: 6.7.1 (edcfbbe)
Fe          14.57895995659693       27.95527227391348        4.72515942081013
N           14.87394334624594       29.26089509693323        6.24044483529109
N           13.76412823468901       26.62693601273785        6.01611603595239
N           14.43039100070717       26.58574357419364        3.23460244346274
N           15.48262820102057       29.25147585282338        3.46813263549678
C           15.39965252949776       30.50894144041817        6.15984392720076
C           15.34712734073886       31.16472159607628        7.44918316035919
C           14.81206844335182       30.25982558006646        8.31510127146437
C           14.51204055024421       29.07739885723766        7.53873117225382
C           13.56036490786399       26.81550125044514        7.34517085260097
C           12.95236992079369       25.64581476321658        7.94031524524246
C           12.81124547765920       24.73069360120675        6.92940553939278
C           13.32300542590538       25.37798111734973        5.73123416674643
C           13.94930097386562       25.31597161320062        3.34130040177377
C           14.13954134913394       24.59781294764651        2.10647501230633
C           14.77762408322739       25.46570979156841        1.24247401985453
C           14.91516386343944       26.71361156984409        1.97552263322974
C           15.75123226554692       29.03516356893581        2.15596300101745
C           16.46501082802770       30.15801872782395        1.58599629527854
C           16.64902689262823       31.04674031191000        2.60652178063812
C           16.00521605199151       30.46697520264526        3.77144572237040
C           15.94066447773003       31.07103991503429        5.01543155171096
H           16.36508455003194       32.06138784911235        5.10423974446484
C           13.90788903326981       27.94928067467501        8.05893744419728
H           13.69292704873745       27.95361329502715        9.11759994412937
C           13.40050511109944       24.76653156948135        4.49300506184878
H           13.03425083474218       23.75237020340389        4.43043370054198
C           15.47807374266979       27.87127082510688        1.45616589892163
H           15.77099219453502       27.85765136904810        0.41750119357666
C           14.56006349084442       30.40532690528461        9.77691389455470
H           14.87182108179652       31.38394355533627       10.12863376010466
H           15.11241920815964       29.65221638472276       10.33711149413907
H           13.50213445273580       30.27760602786390       10.00367499389217
C           15.76799385365349       32.56492411607619        7.73643438270895
H           15.62327215831314       33.19923404427723        6.86632681379033
H           16.81858580944382       32.61309807432425        8.02099964295976
H           15.18102002342409       32.97420239659162        8.55547343303973
C           12.52126677415478       25.53804491533961        9.36003469942076
H           12.09863335511337       26.47879321735564        9.70579766219451
H           13.36310421040525       25.29143503806061       10.00726562830197
H           11.76961132948770       24.76092834593793        9.46824743070913
C           12.28336741488611       23.38895933394192        7.00560219188507
H           11.75942440857140       23.02969788089501        6.12845307262389
C           12.41059720839609       22.57664856307299        8.05344930786403
H           12.96917490488979       22.85732389550747        8.92813733749003
H           11.99162769552667       21.58569918055964        8.06002179280130
C           13.76601328042524       23.17381642787587        1.88385368787232
H           13.06647544821791       22.82575611443876        2.63762162919811
H           14.65250557484609       22.53791121650710        1.92079099729502
H           13.29511962544627       23.04264669573413        0.91383479724248
C           15.32193974230247       25.25444080298923       -0.07229692169445
H           15.94748842595589       26.06209718928646       -0.43075360845250
C           15.18203934567379       24.19656070217849       -0.87491454320264
H           14.59346481549719       23.33615588494845       -0.62737343680696
H           15.66696224662168       24.16387805861975       -1.83416411288453
C           16.92065142301582       30.26716994788190        0.17537164817237
H           16.10662623866219       30.05215808623579       -0.51375110371580
H           17.72854217473604       29.56481402729880       -0.03043757100508
H           17.28353475361902       31.26958944413558       -0.03414276679982
C           17.40576754936462       32.32981172178543        2.56777369209097
H           16.74523170112667       33.18059766986975        2.40375053645936
H           18.13582220162097       32.31133883804149        1.76209350765001
H           17.94103166677236       32.49109277220790        3.49988243211586
O           16.50826622476783       26.99609739212296        5.08592803012709
H           16.72800136416942       26.32472076247454        4.40198228594508
H           17.31316638590858       27.38033380693830        5.48884786237191
C            9.50797224131326       29.42871454495481        2.53377612657780
H            9.51156675415341       30.35537421381948        1.96107389049231
H            8.61768349358958       29.42342908505843        3.15981089543591
H            9.45235404459056       28.59581662984420        1.84372813410672
N           11.02270953984974       30.23358332264838        4.34648315598371
H           10.44485711257504       31.01858934749320        4.60241205101535
C           10.73929732401798       29.32502266816834        3.35863017540506
C           12.21033411891334       29.88782362507314        4.89361217370861
H           12.67465230942524       30.43042483410518        5.68825139642892
N           12.69717618773644       28.81820596726899        4.31873705578594
C           11.79238169553692       28.45437952961717        3.36514626405917
H           11.95781897375422       27.59621634414793        2.74940998840598
78
 energy: -116.047938778618 gnorm: 0.024520828762 xtb: 6.7.1 (edcfbbe)
Fe          14.58284428304919       27.95252151199509        4.72764800260549
N           14.85801131559354       29.26301302531200        6.23196094110566
N           13.74478872339730       26.64562269768119        6.00515957630991
N           14.43686966159296       26.58886711411684        3.24005826229032
N           15.48831859002915       29.23725686511572        3.47643074881252
C           15.38860174439537       30.50868861920191        6.15243442750405
C           15.33990722001852       31.16630624338706        7.44291216575396
C           14.80400922201592       30.26352327622378        8.30631390847035
C           14.49641263716975       29.08276283577623        7.52891796979239
C           13.54844795216331       26.82878369670254        7.33482734688539
C           12.95596554979358       25.65603853268872        7.93316681797185
C           12.81758862947224       24.74183758089305        6.92261937836239
C           13.31532096874351       25.39242474849475        5.72334656082141
C           13.94817435632438       25.32249083131984        3.34440030098831
C           14.13311704621900       24.60231729862323        2.10971774702039
C           14.76913630452796       25.46607601079102        1.24495620134359
C           14.91665319716810       26.71394452044888        1.97969324281340
C           15.75116840308121       29.02594846304719        2.16177567168781
C           16.45967161128792       30.14979159146593        1.59735989065837
C           16.64295067424747       31.03776613885109        2.61627954494448
C           16.00438232998227       30.45547414215235        3.77693543731276
C           15.93824789612746       31.07055984626534        5.01509720880086
H           16.36398920191282       32.05868591394218        5.10265290120260
C           13.89615754940357       27.95837572953705        8.05404089421046
H           13.69469330011904       27.95665434242452        9.11465318558280
C           13.39725010599759       24.77244600069510        4.49090333676109
H           13.03997130907318       23.75562077147444        4.43352741529723
C           15.47977721609383       27.86637193693979        1.45743656861828
H           15.77324329494499       27.85729091178675        0.41953815137591
C           14.55630401619018       30.40611484903705        9.76785302426811
H           14.87228632245908       31.38574832248456       10.11697997883927
H           15.11157987108702       29.65024625959770       10.32302482860839
H           13.49751697458953       30.27957317565698        9.99549403684304
C           15.77684323816424       32.56188269984427        7.72941291464511
H           15.63057485914082       33.19990973857251        6.86060408024173
H           16.83206170159098       32.59584885176454        8.00484716521862
H           15.20034437976864       32.97450479395055        8.55639101277452
C           12.52696703968485       25.54325764721962        9.35248608506243
H           12.10170841949602       26.48388150756438        9.69988128776062
H           13.36945636035834       25.29506562518606       10.00022813363960
H           11.77599880543189       24.76220022384390        9.45462643778750
C           12.29296947030764       23.39966573357171        6.99389544247329
H           11.76715777703381       23.05171585043464        6.11213322818565
C           12.41557419398313       22.58250224314477        8.03642145306080
H           12.97415022005154       22.85369288759995        8.91609820736738
H           11.98197375187402       21.59636206681914        8.03923792056520
C           13.75185159471224       23.18048999994494        1.89005201563893
H           13.07593369298473       22.82935516764498        2.66743189513778
H           14.64116733262958       22.54413958344351        1.89659067829663
H           13.24942021204237       23.05545852540346        0.93175585184449
C           15.31016826084625       25.25709744797108       -0.07278347967296
H           15.92005969134819       26.07722155167038       -0.43398950482207
C           15.18553847963848       24.19917850863556       -0.87489577707080
H           14.61336881331245       23.32238177273842       -0.63290676188962
H           15.66930806996259       24.18097566081975       -1.83784501717209
C           16.91220145654622       30.25733970069160        0.18288999150747
H           16.09374780695014       30.04202947548687       -0.50346664717375
H           17.71865335778648       29.55070209220055       -0.02270616920471
H           17.27625719980229       31.26083432004159       -0.02554792308990
C           17.38597217908754       32.32942253853446        2.58124509168701
H           16.71011195723021       33.17208971616319        2.42500397953083
H           18.11267540659867       32.32248980869011        1.77036929536107
H           17.92374103919358       32.49396900560612        3.51343537272466
O           16.53430825418992       26.97852469564937        5.11688587295626
H           16.76039086221835       26.31043031153236        4.46121646340016
H           17.34776773356482       27.36808758536931        5.48440832182541
C            9.51998570765104       29.41740409624796        2.53496662460652