78
 energy: -116.058025329380 gnorm: 0.000139531962 xtb: 6.7.1 (edcfbbe)
Fe          35.19984908161762        4.23208664520351       10.29407837402116
N           37.08314751768544        3.95554618270261        9.70993828036245
N           34.91550653999493        5.53947953712661        8.81241250378723
N           33.31415684464212        4.54620082098962       10.93599504384580
N           35.49138192179333        2.95879443664644       11.82295074819662
C           38.00104982151526        3.12242525759858       10.26380910000576
C           39.25892093888118        3.19814293722866        9.55143634909460
C           39.07741292368966        4.10217369640864        8.55326445911222
C           37.70893477282058        4.56054964557072        8.66626537582961
C           35.82687357218447        5.92368127248421        7.87920197680377
C           35.25372602936081        6.87435103155870        6.96055664184536
C           33.95789673581459        7.06224604444407        7.36114118551589
C           33.77040140146326        6.20723375885464        8.51861656060976
C           32.37878556701361        5.34491853408741       10.34975222756217
C           31.13632076397426        5.29487787148358       11.07446746550108
C           31.33656421014445        4.43845854319166       12.12597678487926
C           32.70340281563465        3.97244566385819       12.00631463652071
C           34.58957593590910        2.60173128309126       12.77827653999913
C           35.16192483642170        1.63080565765802       13.68362499489495
C           36.42892275416293        1.40061857671033       13.24469028179853
C           36.61583624746186        2.23934932986849       12.08249812322050
C           37.79170311259147        2.30801391357960       11.36053681472388
H           38.61186342636356        1.68590666850480       11.68454335939029
C           37.13555056650578        5.47712744719087        7.80834382775788
H           37.75906728812724        5.88222498309049        7.02581141986214
C           32.58811980089152        6.12688822189457        9.22748208465484
H           31.76197664087922        6.73227710028287        8.88756389249478
C           33.29627924187952        3.08014418782004       12.88203796943418
H           32.69832287539485        2.71321653180894       13.70207771774684
C           40.04103766190453        4.57688538742988        7.52004640265974
H           41.01059030941455        4.10190152912669        7.64803196285428
H           40.17578368198769        5.65612132643074        7.59167923380128
H           39.67681350277025        4.34759351197394        6.51793391522320
C           40.47501631062106        2.41295062078598        9.90588486549599
H           40.26685238710667        1.34347744546181        9.86519367422168
H           40.80534236788688        2.65465037929048       10.91630871657953
H           41.28948558859465        2.62964393899425        9.21900958047357
C           35.95153421094693        7.45589215525446        5.78062580327178
H           36.59556659271036        6.71563715062704        5.30782886086530
H           36.57275155598902        8.30286960099875        6.07585979655415
H           35.22367075619966        7.80235161395949        5.04960910084820
C           32.93270164908868        7.89907222622523        6.77813384371031
H           31.92087261350683        7.51563900106547        6.84484999883007
C           33.13714388257439        9.07362684072858        6.19051644680493
H           34.11193056484306        9.52592294632488        6.13831907519676
H           32.32518260668750        9.63882042609927        5.76360819302240
C           29.88486060070265        5.99796403544624       10.67982132565731
H           29.76612075781612        5.99324570420244        9.59739262472645
H           29.89957118406834        7.03722376447573       11.01275605789991
H           29.02335020927132        5.50614889134448       11.12696864847151
C           30.41083137138352        4.02185107672784       13.15587452415637
H           30.53173781468044        3.00497096876016       13.51157397204039
C           29.45720374280336        4.77917755110806       13.68842747032686
H           29.32084285695600        5.80958458483682       13.41017595739963
H           28.79233581709715        4.39767420220688       14.44555891629964
C           34.44230451491740        1.03870174299137       14.84678899112557
H           33.56105065847175        0.48924777949014       14.51416227651470
H           34.11377935266022        1.81914739986403       15.53368067412095
H           35.08663204296987        0.35300857436739       15.39141706909604
C           37.46959717193478        0.48997499238591       13.79985894026581
H           37.77469242216777       -0.24274344856339       13.05257931472310
H           37.09361233068885       -0.04371444798332       14.66930507901497
H           38.35295012923766        1.05464500582306       14.09929855993726
O           35.80825053977292        5.90591347932896       11.74050206269738
H           34.95125825441436        6.31581793741367       11.90060248952219
H           36.02071655676721        5.38014126939163       12.51940379313666
C           32.69866209209297       -0.29686248038577        8.21766821360897
H           33.31978141767775       -1.15767986017330        7.97014275595427
H           31.97507927493161       -0.15653987222428        7.41472523982256
H           32.16150300935602       -0.50805334216218        9.13693266749867
N           34.31632750632370        1.42924882053168        7.39602610241822
H           34.40937056509335        1.04771471610259        6.46897566049238
C           33.53038668345560        0.92002654366430        8.39636363534248
C           34.93538438797844        2.52935664604831        7.88073879513909
H           35.61492544390686        3.13451789230800        7.31642016495657
N           34.58933629635741        2.74707774657668        9.12646530901439
C           33.71606471627371        1.75438989231459        9.46108548581667
H           33.28272985010483        1.70685035202679       10.43820301291064
