77
 energy: -118.908777519725 gnorm: 0.274741132130 xtb: 6.7.1 (edcfbbe)
Fe          27.85300000000000       31.57500000000000       10.15000000000000
N           26.04900000000000       32.51600000000000       10.40300000000000
N           28.64100000000000       32.76600000000000       11.61600000000000
N           29.70200000000000       30.63500000000000        9.94400000000000
N           27.07200000000000       30.37700000000000        8.73400000000000
C           24.88300000000000       32.22000000000000        9.73400000000000
C           23.82100000000000       33.08800000000000       10.21300000000000
C           24.34300000000000       33.88300000000000       11.14500000000000
C           25.74600000000000       33.55400000000000       11.27900000000000
C           27.97300000000000       33.77700000000000       12.28800000000000
C           28.92400000000000       34.42200000000000       13.17000000000000
C           30.09700000000000       33.78700000000000       13.04800000000000
C           29.94500000000000       32.74400000000000       12.06200000000000
C           30.85500000000000       30.94200000000000       10.64500000000000
C           31.92900000000000       30.10300000000000       10.14100000000000
C           31.43000000000000       29.33000000000000        9.17400000000000
C           30.01100000000000       29.63800000000000        9.03700000000000
C           27.78200000000000       29.40600000000000        8.01400000000000
C           26.90000000000000       28.81200000000000        7.03900000000000
C           25.56000000000000       29.49100000000000        7.22700000000000
C           25.75400000000000       30.45000000000000        8.28600000000000
C           24.75500000000000       31.26000000000000        8.76300000000000
H           23.76400000000000       31.12800000000000        8.32900000000000
C           26.65300000000000       34.14400000000000       12.13600000000000
H           26.29400000000000       34.97300000000000       12.74600000000000
C           30.94400000000000       31.88800000000000       11.64200000000000
H           31.90300000000000       31.97000000000000       12.15300000000000
C           29.10300000000000       29.06500000000000        8.17300000000000
H           29.47300000000000       28.25300000000000        7.54800000000000
C           23.58600000000000       34.97799999999999       11.92500000000000
H           22.51899999999999       34.68800000000000       12.02900000000000
H           23.64600000000000       35.94100000000000       11.37400000000000
H           24.02900000000000       35.09200000000000       12.93700000000000
C           22.35500000000000       33.06700000000000        9.74100000000000
H           21.77100000000000       32.36700000000000       10.37600000000000
H           22.30500000000000       32.72400000000000        8.68600000000000
H           21.91700000000000       34.08400000000000        9.83000000000000
C           28.53400000000000       35.60300000000000       14.08300000000000
H           27.52700000000000       35.42100000000000       14.51500000000000
H           28.50700000000000       36.54200000000000       13.49100000000000
H           29.26900000000000       35.69700000000000       14.91000000000000
C           31.44400000000000       34.07600000000000       13.74400000000000
H           32.12000000000000       33.25600000000000       14.02800000000000
C           31.80600000000000       35.33100000000000       14.01100000000000
H           31.15000000000000       36.17099999999999       13.73900000000000
H           32.76500000000000       35.54199999999999       14.50700000000000
C           33.39600000000000       30.10900000000000       10.62500000000000
H           33.55900000000000       29.26300000000000       11.32600000000000
H           33.61300000000000       31.06200000000000       11.15400000000000
H           34.07800000000000       29.99299999999999        9.75600000000000
C           32.24700000000000       28.28800000000000        8.38000000000000
H           33.18300000000000       27.88800000000000        8.79700000000000
C           31.85300000000000       27.84600000000000        7.18300000000000
H           31.02000000000000       28.33200000000000        6.65500000000000
H           32.35700000000000       26.99000000000000        6.71000000000000
C           27.22900000000000       27.70800000000000        6.02000000000000
H           27.55700000000000       26.79300000000000        6.55800000000000
H           28.05000000000000       28.04600000000000        5.35200000000000
H           26.32500000000000       27.46900000000000        5.42000000000000
C           24.27200000000000       29.22800000000000        6.43700000000000
H           23.60300000000000       28.56600000000000        7.02800000000000
H           24.51700000000000       28.72700000000000        5.47600000000000
H           23.74800000000000       30.18800000000000        6.24200000000000
O           28.25100000000000       32.86400000000000        8.86000000000000
O           29.37200000000000       33.31300000000000        8.89100000000000
C           27.10100000000000       26.88800000000000       13.22800000000000
H           26.10900000000000       26.41100000000000       13.07800000000000
H           27.32500000000000       26.91700000000000       14.31600000000000
H           27.87200000000000       26.29000000000000       12.69700000000000
N           26.20799999999999       29.24900000000000       13.13900000000000
H           25.54500000000000       29.11600000000000       13.87600000000000
C           27.07500000000000       28.27800000000000       12.68000000000000
C           26.39900000000000       30.36500000000000       12.45200000000000
H           25.84900000000000       31.29100000000000       12.61300000000000
N           27.35100000000000       30.15000000000000       11.56400000000000
C           27.78700000000000       28.85100000000000       11.68000000000000
H           28.56500000000000       28.45700000000000       11.03800000000000
77
 energy: -118.966043212477 gnorm: 0.122422256310 xtb: 6.7.1 (edcfbbe)
Fe          27.87141292308363       31.60576755812490       10.12546821803344
N           26.04089689949590       32.51440568599187       10.40833296367850
N           28.64117210895891       32.76263075715425       11.62377293673052
N           29.70795419310466       30.63157141589364        9.93635643534232
N           27.07244682458160       30.37953704124686        8.73660721534359
C           24.88650486515812       32.21764739999464        9.73779714881385
C           23.81324590532603       33.08125237706334       10.20518666694859
C           24.34298544800685       33.89171092988340       11.15010072086834
C           25.74653576901182       33.54534133317630       11.27246627554990
C           27.99222777499962       33.77530279872423       12.28453424331024
C           28.92513599090829       34.42883624680737       13.18380246018730
C           30.11803194735728       33.78817023192086       13.05857104821368
C           29.93505007748007       32.74185217298355       12.06855047824305
C           30.84889359877196       30.93189935228401       10.63375800881172
C           31.93824569402732       30.10258279336070       10.14372207892424
C           31.43551991605854       29.31713562024149        9.15512461252674
C           30.01372213587883       29.64601778325630        9.03351515530358
C           27.74640463775314       29.41810590658081        8.01252039013606
C           26.85633296567778       28.82385905125061        7.04409309012880
C           25.59789866722480       29.46733610056524        7.21388053501364
C           25.77708751858455       30.42306452150383        8.27723321449567
C           24.76709567634566       31.24751705591744        8.76033445640107
H           23.78074485970922       31.12298270149599        8.32465589122592
C           26.66116710963093       34.13570925177114       12.13069358614403
H           26.30134855498314       34.96183149500146       12.73662655414808
C           30.93501578095472       31.88207992492958       11.63938113203606
H           31.89448163007565       31.97582577655874       12.13882143977447
C           29.08503506812296       29.07135813828518        8.17652767331742
H           29.44360580994262       28.25592155033958        7.56096659524708
C           23.60051342630522       34.96489154476031       11.92125914426827
H           22.54497395212281       34.69061442513770       12.02717419216015
H           23.65216386146356       35.92117099069027       11.38706023959707
H           24.02529819989661       35.09378240708666       12.92100967077744
C           22.37260398272259       33.06126306645650        9.74186829587264
H           21.78312518245729       32.37555933339293       10.36383156652943
H           22.30490019865242       32.73099927302449        8.70192783718863
H           21.93209723474770       34.06062763040191        9.82421702053026
C           28.53893942836466       35.58776003587074       14.07779731400412
H           27.54500000953326       35.42203776380548       14.50806006786770
H           28.51043613178356       36.52058716681982       13.50173403076533
H           29.25816559743078       35.69415158656891       14.89520146274903
C           31.41798414049413       34.08577687856197       13.73682098678576
H           32.07850031259629       33.26071025255825       14.00462119574001
C           31.79705095997763       35.32827160826650       14.01127546815215
H           31.17295063693347       36.16962163908844       13.73892924426983
H           32.74578106330586       35.53887739848825       14.49665387258901
C           33.37599859327593       30.11392421096382       10.62423126609804
H           33.55127922437934       29.27919413458142       11.31490023348063
H           33.60941076560755       31.04812211318716       11.14246797903465
H           34.05822975443650       30.00121485027215        9.77476288198460
C           32.21346726881335       28.29862608261730        8.38303655336613
H           33.13137586447883       27.90601781807981        8.82471282378478
C           31.85459587524188       27.85125836072545        7.18339017919954
H           31.04027003976785       28.31074313070242        6.64159171641552
H           32.36938634144033       27.02212768463160        6.70727081737982
C           27.21280636535678       27.73590223159558        6.04717912744196
H           27.54607045913050       26.82083064097036        6.55651570769387
H           28.02432657468426       28.05073401519757        5.37637510973888
H           26.34256308852504       27.47900081008116        5.43476760401629
C           24.30994992379885       29.22600994972744        6.45204008315622
H           23.62698184019182       28.57844252153103        7.02105795179314
H           24.51599711047056       28.73731176779896        5.49450488048870
H           23.77781167573455       30.16496566801394        6.24943210818643
O           28.23885556765613       32.85309184465073        8.86866062906315
O           29.39830127162503       33.32764674442434        8.88219836869859
C           27.09695796523618       26.88943115839034       13.22970676848815
H           26.12260913853754       26.40819776842885       13.08550191471435
H           27.32300113265056       26.90661645231933       14.30218829244073
H           27.85850673112759       26.30165096390298       12.71016973564178
N           26.20787541339644       29.23404473737105       13.14893429657779
H           25.54142432226577       29.10325267312935       13.88947749123585
C           27.06914833263302       28.27201666407884       12.68208147554250
C           26.40842342725021       30.35804840630041       12.44788581498752
H           25.86501858840721       31.27477974446071       12.60727823125528
N           27.35064544295853       30.16400645658576       11.55188947955933
C           27.77677072829059       28.86776482886965       11.68169635176822
H           28.55025650262870       28.47406959312401       11.04725129202271
77
 energy: -118.984189419421 gnorm: 0.044373595882 xtb: 6.7.1 (edcfbbe)
Fe          27.88924434447653       31.63764136845131       10.09960425996424
N           26.03911177313506       32.51721340155616       10.40559558344645
N           28.64266908279430       32.76241170010294       11.62509068512595
N           29.70950320012932       30.63662424198758        9.92275514305472
N           27.07414636762266       30.38748119903088        8.73104809453431
C           24.89488520939794       32.21497108235247        9.73905846742158
C           23.81502764521947       33.07199851521020       10.19891861664257
C           24.34863073328629       33.89177312065718       11.15227837386598
C           25.75177857356153       33.53587362076920       11.26277418524510
C           28.00594476772531       33.76962933646312       12.27979756271046
C           28.92342344270194       34.43168535006924       13.18650940126517
C           30.13016444377848       33.78816931723397       13.05976599730485
C           29.92586552113343       32.73808596454109       12.06933930425902
C           30.83849961517109       30.92815868843130       10.61861904135432
C           31.93394833895172       30.10306510198385       10.14397066707276
C           31.42773344127421       29.31010369291042        9.14052878724065
C           30.00912292418058       29.66094067210256        9.02655828087644
C           27.72529073356891       29.43234081874428        8.01502281071943
C           26.82132193577053       28.83542514500414        7.05061080984418
C           25.62955316868095       29.44602539969201        7.20836508984518
C           25.79475151879639       30.41183393962082        8.27317274495552
C           24.78012677069132       31.23880845800409        8.75889995318945
H           23.79890454482603       31.11754160814218        8.32063654925572
C           26.66835229199480       34.12473690966861       12.12471712131210
H           26.30846964940515       34.94950423592142       12.72544506374628
C           30.92592651266951       31.87815258964330       11.63216226822996
H           31.88685969109676       31.98191788695517       12.11908417601120
C           29.06838866804898       29.07902656260150        8.17979934583950
H           29.41363086160337       28.25726443326700        7.57260487480853
C           23.61977417498071       34.94945703421808       11.91578190426845
H           22.56992398173234       34.68401971410543       12.02289918440047
H           23.66782198434452       35.90418838128995       11.39205779567916
H           24.03627226222020       35.08803357150559       12.90884618984029
C           22.39413939450402       33.05334761945285        9.74116428576564
H           21.79966992878099       32.37502997534387       10.35526620799801
H           22.31481321876935       32.73069100760625        8.70840228903737
H           21.95387239108351       34.04451387702681        9.82120330722347
C           28.54514885185343       35.57011906611586       14.07114110233445
H           27.55756398026879       35.41464927748667       14.50102645387194
H           28.51660965107587       36.50127129041088       13.50496150304410
H           29.25838665387154       35.68343375364123       14.88234332010409
C           31.38617906840541       34.09103715047286       13.72076780093931
H           32.03148188005250       33.25741939786825       13.97570813299188
C           31.78703411970755       35.32515805951788       14.00662821952372
H           31.19216157317210       36.17731808502798       13.73666815939295
H           32.72656302679678       35.52806353142476       14.49264499914616
C           33.34934753857947       30.11860172039038       10.62127123975175
H           33.53365957409259       29.29113363093589       11.30882360137919
H           33.59174243057680       31.04352178631102       11.13351135830269
H           34.03418261807921       30.00811291779416        9.78304395170968
C           32.17042475722602       28.31639050603592        8.39117797980306
H           33.06593870598222       27.92489985011191        8.86789995065452
C           31.85599467189008       27.86150126742591        7.18033531747134
H           31.04963120333507       28.28879463205272        6.61729125306544
H           32.39872933318661       27.06091198019807        6.70459701040528
C           27.19637731199102       27.76142187546568        6.07298763477885
H           27.53419534933527       26.85502909227778        6.57886441437429
H           28.00383637115296       28.07892881595860        5.41083941226859
H           26.34473132527634       27.49455173975921        5.45230895362562
C           24.34656426143094       29.22155422828556        6.46454820549697
H           23.66239600041823       28.58579709724540        7.03187793168237
H           24.53159925010354       28.73842159771114        5.50878814865544
H           23.82445193165193       30.15738325609782        6.26509490699708
O           28.23371335989541       32.82475199137876        8.89538396327136
O           29.41072247996800       33.32818532035106        8.88186452943580
C           27.09607725055296       26.88848917700900       13.22957357415483
H           26.13104117779152       26.40470569094042       13.09090751553294
H           27.32303201221429       26.90122096071209       14.29369498025049
H           27.85345271274623       26.30779524332852       12.71626938745000
N           26.20612566757989       29.22220528445693       13.15944571887271
H           25.53828318521012       29.09407992490926       13.90208877740787
C           27.06397105544015       28.26696555813028       12.68320794648249
C           26.41257912685268       30.35124099618774       12.45083962403325
H           25.87498630787571       31.26241813123564       12.60989407304214
N           27.34699724099499       30.17278934536237       11.55142052571151
C           27.76546841174701       28.88016998279850       11.68355650976902
H           28.53605546351035       28.48487124550908       11.05434748946012
77
 energy: -118.988343178370 gnorm: 0.022113135109 xtb: 6.7.1 (edcfbbe)
Fe          27.89269935982692       31.64988650630991       10.09101793341410
N           26.04599490955524       32.51822255038618       10.39748856618021
N           28.64025796571322       32.76162027246694       11.61828148555701
N           29.69833233718185       30.65321262163174        9.90907872802183
N           27.07366096717370       30.40102025953978        8.72552488081083
C           24.90213352526095       32.21497078216827        9.73602612566407
C           23.82462900097401       33.06655474835217       10.19679014037372
C           24.35862165660788       33.88535794063796       11.14999896204822
C           25.75961469747536       33.53256607039911       11.25489607553421
C           28.00580551979824       33.76763609599349       12.27185656266229
C           28.91811475324705       34.42940127315799       13.17703355685060
C           30.12508908173537       33.78928145464020       13.04681637594788
C           29.92112808186135       32.73832248044191       12.06000664127944
C           30.82590831711734       30.93806239472410       10.60585894768152
C           31.91410703106560       30.10871256311318       10.13816954720276
C           31.40452743823800       29.31721382646946        9.13424366963204
C           29.99462109046914       29.67712586415071        9.01811149206838
C           27.72428065491350       29.44110210779865        8.02097026546739
C           26.82346508773915       28.83139540787584        7.06202129303689
C           25.62356158171071       29.45175040412496        7.21447418874734
C           25.79379315382322       30.42235108937703        8.27534133287260
C           24.78177174018674       31.24128889728031        8.75778583731930
H           23.80275826258414       31.11684964115907        8.31856417782924
C           26.67098562565325       34.12210208715678       12.11757278343902
H           26.31094863650333       34.94508236699075       12.71792008271515
C           30.92041430272966       31.88359802663255       11.61984623995539
H           31.88490194571052       31.99223341202449       12.09617469974905
C           29.05775484096188       29.08360276593667        8.18142041967064
H           29.38939139008177       28.24617343240623        7.58906205660451
C           23.63911701100083       34.94148426420793       11.91720918235087
H           22.58928993451157       34.67714126398106       12.02593957094718
H           23.69150269717868       35.89644853972487       11.39372223644121
H           24.06145127538550       35.07795179307606       12.90864879948415
C           22.40782424578320       33.04364261470087        9.73588707623639
H           21.81354493314921       32.36287466162081       10.34795936555321
H           22.33095332834531       32.72272242743401        8.70171286036470
H           21.96991409024190       34.03564182411301        9.81665016518138
C           28.54700700975421       35.56032866647844       14.06894533955394
H           27.56042288811870       35.40457631046831       14.50179904920915
H           28.52083125163777       36.49414388414220       13.50667113648892
H           29.26687525551169       35.66620479243529       14.87601602292858
C           31.37387142320430       34.09191760392952       13.70829904080407
H           32.00928469336406       33.24881424622028       13.95363713298416
C           31.78361287105593       35.32113826220864       14.00654218038135
H           31.20992104933390       36.18693799393278       13.72544173329889
H           32.72232581448833       35.51017069474123       14.49776593436235
C           33.32494408567377       30.12446954261603       10.61929881530921
H           33.50719741688984       29.29876169469644       11.30999877404244
H           33.56492033776664       31.05199861949425       11.12926390795489
H           34.01060332002928       30.01367509196093        9.78168923772919
C           32.13814864279807       28.31617804750078        8.39781053622073
H           33.01094126658487       27.91963830359871        8.91229022480211
C           31.86963295920368       27.86694388271711        7.17055403973639
H           31.08176868298759       28.28609362134058        6.57048985121223
H           32.46168235872958       27.09770929320987        6.69581514613876
C           27.19920085366825       27.76513869610655        6.08969197095305
H           27.53735015195901       26.86728921221876        6.60623719979593
H           28.00447870487735       28.10209014381187        5.43746936411904
H           26.34790478963724       27.49967061695494        5.46847754837525
C           24.35200767407636       29.22198469424455        6.47013461335792
H           23.67534622710473       28.59042531449539        7.04782006941272
H           24.54390550731714       28.73298478699534        5.51922944198490
H           23.84676648552412       30.16427660922720        6.26970894844318
O           28.23917696054458       32.81080842275221        8.90768499699621
O           29.41673613202871       33.32039838907566        8.88936374557581
C           27.09738484537753       26.88368610106262       13.23020668989410
H           26.13438473235691       26.39331652936089       13.09568795903493
H           27.32809729753242       26.89458445858125       14.29404974124647
H           27.85687125906344       26.30730495795066       12.71449708308894
N           26.20193892088232       29.21531122795426       13.17184233190669
H           25.53814154032153       29.08508477142349       13.91802003228891
C           27.05846251086460       28.26302198088226       12.68615432579438
C           26.40600279496095       30.34718409699498       12.46569472963546
H           25.87193212370185       31.25881449226295       12.63028010968954
N           27.33466607006824       30.17351759829184       11.56048654716095
C           27.75409777070249       28.88237417365467       11.68612730737537
H           28.52328484880221       28.48942744180127       11.05472481581784
77
 energy: -118.990270355702 gnorm: 0.015173430228 xtb: 6.7.1 (edcfbbe)
Fe          27.89567421674029       31.66232810129931       10.08400246885623
N           26.05893154020755       32.52054472024235       10.38446977457013
N           28.63691891055161       32.76393344373204       11.60563394922303
N           29.67869649995997       30.66984379459234        9.89809468306211
N           27.07755461220052       30.41671422012615        8.72203013723263
C           24.91309448768027       32.21722129753384        9.72796579271361
C           23.83695179037588       33.06184736568014       10.19235413210095
C           24.37015975749861       33.87833774749433       11.14513516730425
C           25.76918573659081       33.53036594176242       11.24487229231727
C           28.00372556299580       33.76833960851486       12.26199607039312
C           28.91359622227611       34.42966096452312       13.16301428619253
C           30.12012823648102       33.79420575735522       13.02778225225487
C           29.91776718418748       32.74467119481467       12.04354144640002
C           30.80959078151314       30.95172964653915       10.59128477879056
C           31.88882076889192       30.11360702121878       10.13364668271237
C           31.37582958989049       29.32122241445900        9.13418007224432
C           29.97591627293117       29.69015508302092        9.01330433402880
C           27.72583669586366       29.45015803235520        8.02574870382102
C           26.82552767599052       28.83256714921997        7.07436922428024
C           25.62233795512829       29.45664067784206        7.22321620223855
C           25.79727036365681       30.43577692855021        8.27481208877245
C           24.78542378221898       31.24655310483201        8.75103121225974
H           23.80702542327135       31.11568407558707        8.31370183730849
C           26.67222715818055       34.12249401702074       12.10973438397099
H           26.31136487627619       34.94395407116440       12.71012119802726
C           30.91616708853513       31.89598348839966       11.60103935191397
H           31.88424609037145       32.00709848590454       12.06720373361859
C           29.05037752044979       29.08501904344472        8.17943905826143
H           29.38084369418318       28.24457019825705        7.59101944485504
C           23.66077294158993       34.93495403843041       11.92007365776913
H           22.60956712379512       34.67621465883300       12.03330637672253
H           23.72042325726732       35.89210444264620       11.39937236542772
H           24.09255744405750       35.06291533981116       12.90983286091461
C           22.42154604583547       33.03298867321479        9.72723151418317
H           21.82914364248671       32.34549121689151       10.33474328229900
H           22.35264321054292       32.71401551432155        8.69066428792219
H           21.98023142929515       34.02409700073859        9.80947680869973
C           28.54923331324420       35.55276027723826       14.06746232213147
H           27.56443623517327       35.39434177588768       14.50548588803269
H           28.52395279911367       36.49294584790679       13.51427346763810
H           29.27821725668013       35.64495682462601       14.86972419788721
C           31.36962207000068       34.09103621786525       13.69162695617700
H           31.99162448796006       33.23803070881782       13.93764964600418
C           31.79010432100943       35.31460895318498       13.99707618357839
H           31.22578757566486       36.19150257673422       13.72958308098344
H           32.72279541625105       35.48571288970894       14.50776060429605
C           33.29790496566810       30.13091082166243       10.61787318783023
H           33.47587100194831       29.30891492372610       11.31509882274602
H           33.53232027628095       31.06342962537925       11.12383503255850
H           33.98549987779597       30.01677350085186        9.78139286107170
C           32.11654955263733       28.32495025214089        8.39682722324373
H           32.95932512125223       27.90847453727560        8.94607193204370
C           31.89459884912667       27.89693872253063        7.15351812927794
H           31.10778600106138       28.29512196499725        6.53521077726186
H           32.49653632477626       27.12462536620103        6.70796610758202
C           27.20499080777220       27.76716005046992        6.10858606537937
H           27.54643574813214       26.87476677724457        6.63120933052200
H           28.01027139742738       28.11442295901952        5.46252463723583
H           26.35652998874699       27.49632120516723        5.48506894681929
C           24.35591639667106       29.22266363995019        6.47784296819722
H           23.67719320826939       28.59918169549379        7.06124727116240
H           24.55178008019323       28.72210346759152        5.53297884571874
H           23.86013523975332       30.16707469516629        6.26703111488311
O           28.24253938451220       32.80103380592927        8.91647223432490
O           29.41855237983529       33.31452545374360        8.89585849655727
C           27.09906768226114       26.87410552725147       13.23232967668476
H           26.13801834564031       26.37646207545347       13.10154853431160
H           27.33543393132409       26.88368511993022       14.29622828733992
H           27.86101002669573       26.30386620257769       12.71058940770608
N           26.19545006945024       29.20493326873520       13.19093840817090
H           25.53790896312196       29.07130761062238       13.94188543089985