78
 energy: -116.058077812286 gnorm: 0.000034174680 xtb: 6.7.1 (edcfbbe)
Fe          -5.61993494311419       57.13926871880339      111.77109132485819
N           -6.38157863789148       56.20961243321387      113.38698856205286
N           -6.49584858451083       58.85585327832326      112.36386354030766
N           -4.81974079127365       58.08261703485058      110.20849975165855
N           -4.71610541014192       55.44832923687050      111.23161796561374
C           -6.24819646520512       54.89565143414683      113.71049597735363
C           -6.97821196367616       54.59000454039427      114.91951266554389
C           -7.56182632493224       55.75231685698159      115.31953737894975
C           -7.18297495507896       56.75186412158581      114.34673801003429
C           -7.28187091106332       59.04303202981184      113.46249848779125
C           -7.77202745910157       60.39464563513664      113.51741733955730
C           -7.27563564719117       61.02997809953094      112.40845455908102
C           -6.47381054800756       60.04659771773913      111.70888447735649
C           -5.00866062535835       59.38247948126336      109.85337995604164
C           -4.28338830632716       59.69611630304144      108.64726621635745
C           -3.64570124369924       58.54415318170970      108.27292729214611
C           -3.99610790651087       57.55184667457898      109.27198480123178
C           -3.91402078885298       55.26498837631214      110.15177638691698
C           -3.45783278624748       53.89300891601959      110.07775439885444
C           -4.00886541278401       53.25152875509802      111.14131177918938
C           -4.79229611262742       54.24131669448802      111.85020528353505
C           -5.50762857680595       53.96937409420314      113.00017775334371
H           -5.48469349101976       52.95784326792856      113.37554285321109
C           -7.59779711573319       58.06873873615785      114.39603921732302
H           -8.24047807255265       58.35444231830185      115.21475147594386
C           -5.79167250561621       60.29702695950016      110.53427352224242
H           -5.87736485630687       61.28634845595237      110.11187474759673
C           -3.57220449163281       56.23656081117765      109.23119416082056
H           -2.92929867089157       55.94285114428852      108.41541107355090
C           -8.42652479280443       56.01667247857600      116.50463830827340
H           -7.97819777808755       56.77601931996108      117.14603884103992
H           -8.56429864693737       55.11210488879175      117.09170434473678
H           -9.40804708742706       56.37549024060726      116.19308076162794
C           -7.03243941280229       53.24093409302630      115.55010191106226
H           -6.03200608704328       52.90608768281210      115.82522883446023
H           -7.45361648561748       52.51159922151862      114.85790966612456
H           -7.64667543862522       53.25659416165298      116.44713988416866
C           -8.59395536453489       60.96541057659185      114.62045677344769
H           -8.28618013716549       60.55785711161211      115.58238837130165
H           -9.65172873490153       60.73569186105833      114.47994788959164
H           -8.47963781224527       62.04717478101313      114.64842986540853
C           -7.44884030623975       62.40275507549261      111.98895891972974
H           -6.60460544344295       62.84420179974165      111.47220205156263
C           -8.54061483973980       63.13669250351099      112.17882626125719
H           -9.42650405074186       62.73866910019402      112.64209094405584
H           -8.59419012152151       64.16127965053340      111.85002280462885
C           -4.20886593170040       61.04270216516785      108.01651976949832
H           -4.15132463459189       61.82116853037992      108.77585892311947
H           -5.09023557209900       61.23481729649534      107.40223121802308
H           -3.32674985776004       61.10937201012941      107.38304712973994
C           -2.76758747816553       58.30726338107920      107.14848699035748
H           -1.96343807695286       57.60204605483727      107.32377203957368
C           -2.87956695425876       58.87163638049593      105.95036037312512
H           -3.68500255317131       59.54217775791687      105.70606660202165
H           -2.17860802882817       58.66002833799232      105.15989094859152
C           -2.55702036847010       53.36291321927236      109.01564577341837
H           -1.60580902882998       53.89537260060597      109.02139202772901
H           -3.00835147826128       53.48780008850591      108.03097693638011
H           -2.35780617421000       52.30517608148837      109.16932009412209
C           -3.87664680512225       51.82700007411737      111.55875776528497
H           -3.43692282541302       51.75859007992744      112.55403622529754
H           -3.24251977585040       51.27855517299667      110.86660331394185
H           -4.85333792811875       51.34316207716243      111.58655877806126
O           -3.85939611491064       57.73048214020730      113.11816521589256
H           -4.05285816893329       57.17795794050924      113.88332227705786
H           -4.12204389886221       58.62936155596570      113.34440495720588
C           -9.14621293019689       55.50546425059084      107.77526030399736
H           -9.80470263783427       56.25586135578558      107.33803281022917
H           -9.72747395548731       54.59911597708312      107.94482766595358
H           -8.35351927964242       55.28340595993770      107.06783212553900
N           -9.32026866310266       56.36918290431727      110.11941983940913
H          -10.32599395631135       56.34932152298128      110.16041984380452
C           -8.55499138437677       55.99856316792484      109.04483212113918
C           -8.48122328743108       56.76591109191109      111.10243368249148
H           -8.80313152032712       57.11079673165997      112.06316130026971
N           -7.23240345543583       56.66872562360252      110.71614199773600
C           -7.26185005770254       56.19235886757120      109.43821119977056
H           -6.35730107361331       56.02307974728584      108.89137236027754
