91
 energy: -134.046529343261 gnorm: 0.253380857346 xtb: 6.7.1 (edcfbbe)
Fe          -7.17700000000000       12.58600000000000        3.95000000000000
N           -7.52200000000000       14.18300000000000        2.75100000000000
N           -7.62300000000000       11.31700000000000        2.38900000000000
N           -6.90200000000000       10.95500000000000        5.14200000000000
N           -6.82700000000000       13.82800000000000        5.50400000000000
C           -7.28400000000000       15.50900000000000        3.07800000000000
C           -7.55500000000000       16.30400000000000        1.91700000000000
C           -7.94400000000000       15.48600000000000        0.92100000000000
C           -7.92700000000000       14.12000000000000        1.43900000000000
C           -8.06000000000000       11.69500000000000        1.15900000000000
C           -8.25900000000000       10.53500000000000        0.33900000000000
C           -7.93000000000000        9.46400000000000        1.10800000000000
C           -7.53300000000000        9.93300000000000        2.41600000000000
C           -6.94200000000000        9.63200000000000        4.77400000000000
C           -6.69700000000000        8.82600000000000        5.93800000000000
C           -6.57200000000000        9.64300000000000        6.96700000000000
C           -6.70300000000000       11.00800000000000        6.49600000000000
C           -6.63200000000000       13.44200000000000        6.81300000000000
C           -6.45200000000000       14.60200000000000        7.66400000000000
C           -6.54800000000000       15.74900000000000        6.72600000000000
C           -6.75200000000000       15.22600000000000        5.41700000000000
C           -6.89100000000000       15.97500000000000        4.29300000000000
H           -6.66900000000000       17.03900000000000        4.37200000000000
C           -8.24000000000000       12.98200000000000        0.73900000000000
H           -8.67600000000000       13.11900000000000       -0.25100000000000
C           -7.12800000000000        9.17600000000000        3.48900000000000
H           -6.93700000000000        8.11900000000000        3.30600000000000
C           -6.61100000000000       12.15500000000000        7.26100000000000
H           -6.51100000000000       12.01600000000000        8.33700000000000
C           -8.34400000000000       15.86400000000000       -0.52200000000000
H           -8.09800000000000       16.93100000000000       -0.70800000000000
H           -9.43700000000000       15.71700000000000       -0.65900000000000
H           -7.78200000000000       15.23400000000000       -1.24400000000000
C           -7.39300000000000       17.83900000000000        1.93900000000000
H           -6.31400000000000       18.09700000000000        2.00300000000000
H           -7.91700000000000       18.25900000000000        2.82400000000000
H           -7.81300000000000       18.27400000000000        1.00700000000000
C           -8.72400000000000       10.58500000000000       -1.13200000000000
H           -8.22300000000000       11.43000000000000       -1.65100000000000
H           -9.82400000000000       10.73800000000000       -1.17300000000000
H           -8.45300000000000        9.63700000000000       -1.64400000000000
C           -7.93100000000000        7.95200000000000        0.80500000000000
H           -7.31700000000000        7.28400000000000        1.42700000000000
C           -8.63800000000000        7.38500000000000       -0.17700000000000
H           -9.27200000000000        7.99800000000000       -0.83400000000000
H           -8.59400000000000        6.29800000000000       -0.34000000000000
C           -6.66400000000000        7.30000000000000        5.91400000000000
H           -5.62800000000000        6.95500000000000        5.70900000000000
H           -7.33400000000000        6.92300000000000        5.11300000000000
H           -6.98800000000000        6.90200000000000        6.89900000000000
C           -6.34800000000000        9.37500000000000        8.44400000000000
H           -6.61300000000000       10.15100000000000        9.17700000000000
C           -5.84700000000000        8.25200000000000        8.91200000000000
H           -5.56300000000000        7.43900000000000        8.22700000000000
H           -5.70600000000000        8.11200000000000        9.99400000000000
C           -6.27500000000000       14.67300000000000        9.17100000000000
H           -5.36700000000000       14.10400000000000        9.46500000000000
H           -7.15900000000000       14.22600000000000        9.67400000000000
H           -6.15400000000000       15.73200000000000        9.48500000000000
C           -6.49700000000000       17.22400000000000        7.08200000000000
H           -5.47900000000000       17.62000000000000        6.87900000000000
H           -6.72700000000000       17.35800000000000        8.16100000000000
H           -7.23100000000000       17.78500000000000        6.46500000000000
C           -1.57100000000000       12.84500000000000        4.04000000000000
H           -1.04000000000000       13.37300000000000        3.21900000000000
H           -1.08200000000000       11.86200000000000        4.21300000000000
H           -1.51600000000000       13.46400000000000        4.96100000000000
N           -3.37000000000000       11.91100000000000        2.54100000000000
H           -2.72300000000000       11.48500000000000        1.90900000000000
C           -3.00900000000000       12.63600000000000        3.65400000000000
C           -4.69000000000000       11.87200000000000        2.44800000000000
H           -5.23700000000000       11.38200000000000        1.64300000000000
N           -5.20400000000000       12.51700000000000        3.47800000000000
C           -4.17500000000000       13.00600000000000        4.25200000000000
H           -4.36800000000000       13.57100000000000        5.15500000000000
C          -11.93600000000000        7.60200000000000        4.79400000000000
H          -11.27600000000000        6.85400000000000        4.30500000000000
H          -12.90000000000000        7.67000000000000        4.24700000000000
H          -12.10000000000000        7.32500000000000        5.85700000000000
C          -11.23000000000000        8.94200000000000        4.73100000000000
C          -11.25300000000000        9.70400000000000        3.57000000000000
H          -11.78300000000000        9.33100000000000        2.70600000000000
C          -10.60900000000000       10.94000000000000        3.49000000000000
H          -10.66000000000000       11.52100000000000        2.58100000000000
C           -9.90400000000000       11.41800000000000        4.58300000000000
O           -9.22900000000000       12.64400000000000        4.50800000000000
H           -8.67900000000000       12.72800000000000        5.29000000000000
C          -10.53500000000000        9.44600000000000        5.83100000000000
H          -10.48600000000000        8.86900000000000        6.74300000000000
C           -9.89000000000000       10.71400000000000        5.76200000000000
H           -9.39300000000000       11.11900000000000        6.63100000000000
91
 energy: -134.096587604156 gnorm: 0.103842400101 xtb: 6.7.1 (edcfbbe)
Fe          -7.17349429891548       12.58245049700934        3.93014993573605
N           -7.50387107183476       14.17565151384126        2.74779549409520
N           -7.62483310138189       11.31399739494454        2.39672487636388
N           -6.91425304799575       10.96778031111935        5.14309312439728
N           -6.83409443275400       13.82503907550588        5.49786762468624
C           -7.28008358154734       15.49211291963189        3.06495919129216
C           -7.55244070463102       16.31615363032384        1.91178370794368
C           -7.95174824989843       15.49311570028927        0.91229539450514
C           -7.92254937091016       14.13563587337329        1.44898471892034
C           -8.06078289897493       11.68350084849382        1.16496338438091
C           -8.26251165524336       10.51725341302236        0.33463927864457
C           -7.92456509700789        9.43507146657422        1.10252692072050
C           -7.52642628710945        9.94417437968271        2.40320820509706
C           -6.92106674192769        9.64874018724931        4.77652277157002
C           -6.69654851246410        8.81940602012436        5.93932407416951
C           -6.57355625957060        9.65393035854911        6.99912291085705
C           -6.70362082273547       11.01068646733131        6.49295714145834
C           -6.64173842649981       13.46700578712421        6.80498729851406
C           -6.46585584508189       14.63559265287000        7.63828207985829
C           -6.54382523548610       15.73119693095815        6.75599014531812
C           -6.75148312044995       15.20260226019155        5.44344669420784
C           -6.88925653514966       15.96182321053021        4.29789683548874
H           -6.68586084988340       17.02532878640454        4.37955419039952
C           -8.23983847020042       12.99001151353107        0.74246556227095
H           -8.65846267449267       13.12670681534195       -0.24933253630212
C           -7.12172425276474        9.18711821910359        3.48650485039522
H           -6.96369192525376        8.12710813110765        3.31530033272259
C           -6.61230852116944       12.16057349267875        7.26004380047924
H           -6.49691889193547       12.02310067063493        8.32909257118088
C           -8.34035101651329       15.85976607383699       -0.50429392042571
H           -8.10289460727764       16.90953285235805       -0.70294320944630
H           -9.41606549213982       15.71442578430514       -0.65572882634968
H           -7.79514258693458       15.24221680841846       -1.22627019198460
C           -7.39438241200372       17.82218892164848        1.93125891678700
H           -6.33300330799745       18.08990247671170        1.99975323355444
H           -7.91038682551128       18.24641363089121        2.79956446129370
H           -7.80799584562209       18.26875150181261        1.02304718789981
C           -8.71434488643093       10.58219732932743       -1.11058943287526
H           -8.23053373410449       11.41583385456154       -1.63253050591573
H           -9.80001877967492       10.73038171528166       -1.16805914883134
H           -8.45309346353686        9.65925643385491       -1.63482618914295
C           -7.93324608650104        7.97647618107248        0.79261919891455
H           -7.32475899887545        7.32947424401868        1.42436653440903
C           -8.63699486889912        7.39679373656481       -0.17514237018773
H           -9.28034554308854        7.97455225474120       -0.82418602597469
H           -8.59537865665838        6.32364380723478       -0.33692214374985
C           -6.66613991245940        7.31283832468513        5.91021502504513
H           -5.64629164657186        6.95843869622098        5.71167834573381
H           -7.32456066641779        6.92978559236758        5.12529380163207
H           -6.99381644186159        6.90716756875601        6.87221058075241
C           -6.35370158814769        9.37025052980672        8.43297574052846
H           -6.61772432670695       10.15023142334825        9.14438515475857
C           -5.84476868404071        8.24483116936576        8.91208318696162
H           -5.54367109147428        7.44176545407858        8.25377235782336
H           -5.70478783570536        8.10347906103217        9.97828620687503
C           -6.27807735423660       14.67437161563629        9.13369171102426
H           -5.38614031361575       14.11387892892800        9.44622669700668
H           -7.14123688671701       14.23709179453833        9.65425072984901
H           -6.15858851747396       15.70780275312981        9.47509165681611
C           -6.49110124059531       17.19840389135437        7.08729821497410
H           -5.49376137685819       17.61138805734260        6.88530245577154
H           -6.72239497828005       17.36020059436622        8.14434705457567
H           -7.21434719782762       17.76219982212760        6.48487362754136
C           -1.57389945780954       12.84418542298873        4.03639600844437
H           -1.04016596858722       13.36550181214077        3.23308086091751
H           -1.08174654614261       11.88128209900039        4.21435646078826
H           -1.51783213542062       13.44936545690097        4.94458237272194
N           -3.35149255041795       11.91551777350636        2.53948885908362
H           -2.70427871901485       11.48672797627157        1.90197895301584
C           -2.99992532728797       12.62883120907481        3.65664271606454
C           -4.68854423998263       11.87909281969729        2.45944673888809
H           -5.23211837646795       11.39362174374952        1.66620948255692
N           -5.21358943685040       12.52433926155224        3.47663634191833
C           -4.17795855040316       12.99726575060254        4.23851141178136
H           -4.36744055630648       13.55996454908828        5.13334715053134
C          -11.92277860384119        7.61681744197043        4.79394356607687
H          -11.29412534897514        6.85725945453934        4.31467276430558
H          -12.87830945221252        7.66145304039611        4.26119103512349
H          -12.09979854931680        7.32270267975170        5.83279689741630
C          -11.22391967122997        8.95189028402188        4.73384114408812
C          -11.25233105565794        9.71092593365197        3.56931725156040
H          -11.78294193452919        9.33562299285513        2.70608682120589
C          -10.61035437844261       10.93571607500424        3.48786262212134
H          -10.65129490295768       11.51747063801013        2.58061817385858
C           -9.91370617138099       11.41545169532152        4.58768886222712
O           -9.25077933754189       12.63335699492457        4.51075831077567
H           -8.71296098526625       12.73737681995193        5.31124539811708
C          -10.53584612761346        9.45449598472151        5.83072538033038
H          -10.48759258533178        8.87916310272758        6.74358620361108
C           -9.89912509962159       10.69652148561637        5.76666128737190
H           -9.39368587736016       11.09727809069515        6.63407623008300
91
 energy: -134.109414275908 gnorm: 0.027109941105 xtb: 6.7.1 (edcfbbe)
Fe          -7.16597569626656       12.57980196779031        3.91486630907753
N           -7.48131283696744       14.16365098005330        2.74331029772650
N           -7.61487155975342       11.31877579302406        2.40093704893860
N           -6.91146712385781       10.98229245245571        5.14273877759197
N           -6.84252053644884       13.82523007519403        5.49397667621330
C           -7.26887198731018       15.46985359627431        3.05657271565455
C           -7.54586642089546       16.31668631520238        1.91273634139084
C           -7.95387468908747       15.49080034663413        0.91132978985015
C           -7.90916972021534       14.14003161767361        1.45455187713119
C           -8.05566312109209       11.68172495640126        1.16927387342805
C           -8.26405364726005       10.51412617844186        0.33718496562830
C           -7.92073156668982        9.42481024598512        1.10462509702661
C           -7.51924513922870        9.96166081018168        2.39933936253420
C           -6.90661085374453        9.66882681755870        4.77919632551921
C           -6.68908015462060        8.82489077036952        5.93422664738972
C           -6.56956432122639        9.66563321395610        7.01393089243572
C           -6.70556198959313       11.01644716237278        6.48877352918588
C           -6.65334588215339       13.47874799698829        6.79860874948778
C           -6.47870272085365       14.65816332859761        7.61739601857602
C           -6.54571907973334       15.71667380640703        6.77428152942111
C           -6.75742603913779       15.18386558049635        5.45344090034785
C           -6.89085381356538       15.94608036710321        4.29977658151460
H           -6.71386175300188       17.00987977334102        4.38770822699219
C           -8.23013000619176       12.99532405662543        0.74219048835004
H           -8.63296809224308       13.13383785300036       -0.25147766106701
C           -7.12615265297922        9.20142013905883        3.48980197692924
H           -7.00615283838537        8.13706571774967        3.33150378879529
C           -6.61496591211865       12.16625178656353        7.25932548926531
H           -6.47446550751850       12.03399432905720        8.32247292710728
C           -8.33971956159833       15.85073719517752       -0.48441799390773
H           -8.10724454494258       16.89293720268331       -0.68818911976653
H           -9.40711500127597       15.70316654153698       -0.64531639364708
H           -7.80138380961297       15.23865820704735       -1.20582006153550
C           -7.39543921901540       17.80209705345354        1.92607634281673
H           -6.34309992242425       18.07823703988864        1.99703998972647
H           -7.91111314824486       18.23007927790722        2.78405444615227
H           -7.80627353140338       18.25061841370865        1.02677072147595
C           -8.70427833117679       10.57945002863477       -1.08821183411521
H           -8.22922129436419       11.41329015905442       -1.60290745618760
H           -9.78395501062365       10.72114966642489       -1.15361454766611
H           -8.44360471978082        9.66885266162691       -1.61872055051176
C           -7.93853470859538        8.01231231925390        0.79162708264428
H           -7.32176708674943        7.38405352427045        1.42444552927576
C           -8.64080506325717        7.41548280653704       -0.16825435091743
H           -9.30048595424493        7.95979752972213       -0.81703166766847
H           -8.58866386731906        6.35103473489825       -0.32950530561180
C           -6.66966883155612        7.33279540626909        5.90458598890757
H           -5.65932443235327        6.96677518083941        5.71237081154806
H           -7.32198848450078        6.94944144723541        5.12451957472897
H           -7.00417784113134        6.92516014512085        6.85515495817537
C           -6.35600315752229        9.36601669916745        8.41158438822473
H           -6.62992265381420       10.14740950548212        9.10895597895705
C           -5.83979899538491        8.24268652955040        8.90525530836108
H           -5.51657174646732        7.43986384950286        8.27197784720641
H           -5.71170521596962        8.10231350259410        9.96469074871865
C           -6.28330734328851       14.67312582387032        9.10163672604258
H           -5.39733306099324       14.11097757449213        9.40114145673999
H           -7.13900670974920       14.23559161243200        9.61951659546149
H           -6.16288738385552       15.69429063481313        9.45621484037024
C           -6.48546628306687       17.17633880251299        7.09221927385865
H           -5.49649538810628       17.58852465393618        6.88533203091355
H           -6.71349033498744       17.35187515202116        8.14009054856034
H           -7.20685187286251       17.73208990746662        6.49441502839819
C           -1.57561310190493       12.84422746385030        4.03711033272180
H           -1.04188627445112       13.36226425399002        3.24181877898227
H           -1.07858327020028       11.89252514541297        4.21796182961950
H           -1.52291786524464       13.44259230160360        4.93923091962124
N           -3.33629279982979       11.91793870516088        2.53432802530360
H           -2.69013731920989       11.48911193604332        1.89241936300764
C           -2.99307571177737       12.62264223854363        3.65679287707217
C           -4.68393144834789       11.88388341015969        2.46284434482835
H           -5.22567334065136       11.40097626075106        1.67760399019032
N           -5.21759310018328       12.52249275650717        3.47460197703186
C           -4.17912267502283       12.99022726369549        4.22576574549727
H           -4.36214960459108       13.55123229682523        5.11732658124183
C          -11.91437803219897        7.62266023925899        4.79226168046675
H          -11.29838762713739        6.86020654988389        4.31733124506809
H          -12.86491783486454        7.66073838812080        4.26562019130796
H          -12.09482487099078        7.32435692649971        5.82107109147089
C          -11.22303776168413        8.95320530373741        4.73398361963571
C          -11.25239091066744        9.71219762531033        3.56843215893003
H          -11.78276768577197        9.33644742877997        2.70526999030174
C          -10.61136335252040       10.93224763898607        3.48995475075289
H          -10.63432579702845       11.51490136431220        2.58291095472731
C           -9.92531612887540       11.41531602480586        4.59673774482428
O           -9.27693422112293       12.62612340447166        4.51955251929363
H           -8.77254514796752       12.76067675814480        5.34565755683209
C          -10.54118489500249        9.45565390511435        5.83216112381956
H          -10.49724996641716        8.88237050052338        6.74679775920358
C           -9.91079546081555       10.68203688748899        5.77379886297898
H           -9.39271362314178       11.07496819832865        6.63836750709749
91
 energy: -134.112459353784 gnorm: 0.017165055530 xtb: 6.7.1 (edcfbbe)
Fe          -7.16462631576545       12.58078658600612        3.91298977019125
N           -7.46135341413667       14.15543326354829        2.73858800290863
N           -7.60647645431483       11.33046764154245        2.40338462468885
N           -6.90835171538530       10.99306141722980        5.14222624423105
N           -6.84937438875874       13.82558126244269        5.49156613460034
C           -7.25746332154987       15.45955602655592        3.05304492548454
C           -7.53780887525851       16.30954483132295        1.91322501645498
C           -7.94635837473043       15.48422970664158        0.91291519274394
C           -7.89177708724370       14.13684397788198        1.45177510124591
C           -8.04718170902369       11.68989431176204        1.17030648076651
C           -8.26447918969994       10.52441629785774        0.34502751821379
C           -7.92398981695232        9.43613022270232        1.11291420438047
C           -7.51722083597171        9.97633842234649        2.40369148474583
C           -6.90221032910485        9.68214868896716        4.77739823338494
C           -6.68250465314547        8.83494934822511        5.92476331314645
C           -6.56144780191207        9.67214564806737        7.00906055604034
C           -6.70097760285380       11.02175111433824        6.48587173847965
C           -6.66092444439918       13.47504365074170        6.79474318271656
C           -6.48945758533694       14.65354698999626        7.61377592310409
C           -6.55043362540681       15.71853419910240        6.76959921091893
C           -6.76490174435267       15.18099458076514        5.44769619964740
C           -6.89570261810556       15.94208467387044        4.29760998963639
H           -6.74353002992045       17.00822205142974        4.39172409400381
C           -8.21364090954235       12.99910155082817        0.73568963903790
H           -8.60362750244500       13.14017657968244       -0.26207527338137
C           -7.13531069039041        9.21254599610181        3.49308268848132
H           -7.05388692881452        8.14262992939746        3.34445702875229
C           -6.61087032761256       12.16814849120115        7.25876492128683
H           -6.45048072081728       12.04035440454350        8.31956456576773
C           -8.34264003070923       15.83975350760929       -0.47771062234387
H           -8.11715893003961       16.88339988157073       -0.68233099384643
H           -9.40990585458817       15.68368959454973       -0.63345335035264
H           -7.80350201303623       15.22814410697848       -1.19928270386611
C           -7.39541656268527       17.79235087269331        1.92219383725942
H           -6.34445745509610       18.07415774870220        1.99618664284855
H           -7.91864441788041       18.22088282876546        2.77555498579963
H           -7.80594767066958       18.23308390785474        1.01841453400890
C           -8.69629156510791       10.58416170186232       -1.07838565527795
H           -8.22678618288138       11.42558372200317       -1.58559374235228
H           -9.77767911941314       10.71193415921908       -1.14765672628307
H           -8.42106532534994        9.67648956864016       -1.60713776757553
C           -7.93813858895387        8.03085316751792        0.79405315652754
H           -7.30784680072094        7.41196983432990        1.42202156830202
C           -8.64487542213634        7.42546962586560       -0.15861844154453
H           -9.33943638053460        7.95103098055603       -0.79098854526241
H           -8.57797676287106        6.36245079131601       -0.31818745902678
C           -6.67687743797042        7.34607937400211        5.89443035327781
H           -5.66876130625950        6.96854510254444        5.71071495572827
H           -7.32782040002146        6.97054279203876        5.10889746427388
H           -7.02535950427251        6.94401768388106        6.84280260506348
C           -6.35469296740156        9.36277634133248        8.40176553779684
H           -6.64787689126542       10.14056761208717        9.09611369615257
C           -5.83326084631504        8.24395363360916        8.90270003454395
H           -5.46909233260935        7.44671210517798        8.27944307651776
H           -5.72263591059713        8.10478755986065        9.96446053622603
C           -6.28841927860875       14.65906664030186        9.09173799777669
H           -5.40028637382255       14.09196807192800        9.36969546938649
H           -7.14441311608502       14.21734599794908        9.60229028227039
H           -6.16512938476327       15.67796700048736        9.45088326697546
C           -6.47894516895165       17.17316084395710        7.09055757409759
H           -5.48800090372432       17.57486479844269        6.87711537271837
H           -6.69890712620767       17.34753592625620        8.14062722740290
H           -7.20367408726652       17.72653673116411        6.49701619013438
C           -1.57528489679629       12.84604344520944        4.04011905557892
H           -1.03918833465400       13.36711519535405        3.24803928438093
H           -1.07228919312528       11.89744361491201        4.22368277782581
H           -1.52993931712431       13.44335089466804        4.94373835130170
N           -3.32923189351656       11.91930832465384        2.52744339654011
H           -2.68221817535053       11.49470604061622        1.88315662498070
C           -2.99033028726975       12.61958620479036        3.65425866519810
C           -4.67843984119265       11.88401071964281        2.45662818907168
H           -5.21932242102198       11.40084490772212        1.67175639177333
N           -5.21663153353091       12.51876809870846        3.46870556831187
C           -4.17831938647443       12.98385827313607        4.22079066101633
H           -4.35779273272924       13.54390494593205        5.11318465711411
C          -11.91200623107512        7.61824536783324        4.78769702325518
H          -11.29489814124554        6.85657619489367        4.31328343499714
H          -12.86210258371416        7.65390197580530        4.26052780770944
H          -12.09273054953095        7.31764549394409        5.81590652086892
C          -11.22649893653141        8.94988635534208        4.73309415162097
C          -11.24933378578529        9.70967804101123        3.56844557696268
H          -11.77487279182003        9.33463640928831        2.70210943546939
C          -10.60820123650088       10.93021481045649        3.49638344540807
H          -10.61619148282663       11.51284518111835        2.58867102639880
C           -9.93333332219642       11.41568863704127        4.60926655344714
O           -9.29671536180499       12.62933695413319        4.53514823428508
H           -8.82845017331050       12.78923966679390        5.38050008973257
C          -10.55138164002800        9.45047157027336        5.83676502335557
H          -10.51374552809113        8.87665214314369        6.75142638928008
C           -9.92066932080556       10.67651233696940        5.78413550620976
H           -9.39758977017989       11.06103211645424        6.64942508886900
91
 energy: -134.114622592645 gnorm: 0.016041827769 xtb: 6.7.1 (edcfbbe)
Fe          -7.15969283806307       12.58195937086005        3.90796361292443
N           -7.44351482015395       14.14722391102303        2.73526990231716
N           -7.59984322453987       11.34689950483155        2.40709446295043
N           -6.90720503661448       11.00761658152039        5.14032394295931
N           -6.85297221725077       13.82381393453339        5.48250037117190
C           -7.24663772394111       15.45074804314115        3.05091580811351
C           -7.52837292314331       16.30196482349595        1.91408815027608
C           -7.93371888105658       15.47709154134653        0.91387743825127
C           -7.87006552341429       14.13304760173961        1.44665013357528
C           -8.03528512393573       11.70163578891801        1.16940109480923
C           -8.26402678215633       10.53831974508426        0.35415109348208
C           -7.93322352015333        9.45199291202757        1.12574018389388
C           -7.52422160847183        9.99368626717520        2.41239868248754
C           -6.90602619587468        9.69763378301479        4.77573163632379
C           -6.67584909197600        8.84876024458101        5.91357818885122