78
 energy: -115.941048485498 gnorm: 0.266099985626 xtb: 6.7.1 (edcfbbe)
Fe          -1.51400000000000       18.42899999999999       24.37000000000000
N           -3.46000000000000       18.21400000000000       25.05200000000000
N           -1.91100000000000       20.43400000000000       23.91800000000000
N            0.52900000000000       18.91200000000000       24.30900000000000
N           -1.03600000000000       16.68500000000000       25.52000000000000
C           -4.00500000000000       17.10000000000000       25.66300000000000
C           -5.41300000000000       17.33200000000000       25.85300000000000
C           -5.70700000000000       18.55399999999999       25.37800000000000
C           -4.47700000000000       19.13400000000000       24.86700000000000
C           -3.18400000000000       20.97200000000000       23.82900000000000
C           -3.07700000000000       22.27000000000000       23.19300000000000
C           -1.78100000000000       22.48800000000000       22.91900000000000
C           -1.01800000000000       21.33400000000000       23.36700000000000
C            1.06300000000000       20.08900000000000       23.81000000000000
C            2.50700000000000       19.96200000000000       23.85700000000000
C            2.82300000000000       18.76300000000000       24.36799999999999
C            1.56500000000000       18.07500000000000       24.67299999999999
C            0.24400000000000       16.12900000000000       25.44400000000000
C            0.15100000000000       14.71700000000000       25.70400000000000
C           -1.32100000000000       14.44900000000000       25.98400000000000
C           -1.98600000000000       15.72400000000000       25.84700000000000
C           -3.34100000000000       15.94100000000000       26.01200000000000
H           -3.93000000000000       15.13600000000000       26.45100000000000
C           -4.34800000000000       20.38400000000000       24.27400000000000
H           -5.26400000000000       20.96000000000000       24.14700000000000
C            0.35900000000000       21.17100000000000       23.31600000000000
H            0.93600000000000       21.96600000000000       22.84500000000000
C            1.41900000000000       16.79500000000000       25.18000000000000
H            2.34000000000000       16.25300000000000       25.39500000000000
C           -7.09400000000000       19.24700000000000       25.38100000000000
H           -7.80200000000000       18.65800000000000       26.00300000000000
H           -7.48700000000000       19.30400000000000       24.34400000000000
H           -7.00200000000000       20.26800000000000       25.80900000000000
C           -6.35700000000000       16.30200000000000       26.50100000000000
H           -6.25200000000000       16.34700000000000       27.60600000000000
H           -6.09200000000000       15.28000000000000       26.15500000000000
H           -7.40900000000000       16.53400000000000       26.22900000000000
C           -4.25400000000000       23.20900000000000       22.86100000000000
H           -4.44100000000000       23.88700000000000       23.72100000000000
H           -5.17000000000000       22.61000000000000       22.66900000000000
H           -4.00600000000000       23.82000000000000       21.96700000000000
C           -1.21200000000000       23.75100000000000       22.23300000000000
H           -1.73100000000000       24.71500000000000       22.34200000000000
C           -0.09600000000000       23.72100000000000       21.50000000000000
H            0.36600000000000       22.76100000000000       21.22600000000000
H            0.37500000000000       24.65600000000000       21.16100000000000
C            3.48600000000000       21.05600000000000       23.38100000000000
H            3.02300000000000       22.05600000000000       23.52300000000000
H            3.71200000000000       20.91400000000000       22.30300000000000
H            4.42300000000000       21.00500000000000       23.97500000000000
C            4.27700000000000       18.25100000000000       24.55800000000000
H            5.04900000000000       18.45800000000000       23.80300000000000
C            4.61000000000000       17.55500000000000       25.63500000000000
H            3.86100000000000       17.33100000000000       26.40900000000000
H            5.64000000000000       17.19300000000000       25.76899999999999
C            1.29700000000000       13.69000000000000       25.70700000000000
H            1.95300000000000       13.86900000000000       26.58500000000000
H            1.89900000000000       13.79700000000000       24.78000000000000
H            0.88000000000000       12.66200000000000       25.77200000000000
C           -1.94600000000000       13.08500000000000       26.31200000000000
H           -1.19900000000000       12.45100000000000       26.83599999999999
H           -2.25300000000000       12.57700000000000       25.37300000000000
H           -2.82700000000000       13.22500000000000       26.97400000000000
O           -1.44700000000000       19.67000000000000       26.87100000000000
H           -2.28000000000000       19.45800000000000       27.29300000000000
H           -0.79300000000000       20.16300000000000       27.21600000000000
C           -1.11900000000000       15.21400000000000       19.62700000000000
H           -0.81000000000000       15.69500000000000       18.67400000000000
H           -1.99100000000000       14.55300000000000       19.43100000000000
H           -0.27000000000000       14.61500000000000       20.02000000000000
N           -2.51600000000000       17.18500000000000       20.41900000000000
H           -3.07700000000000       17.23100000000000       19.59200000000000
C           -1.49900000000000       16.27500000000000       20.62600000000000
C           -2.62200000000000       17.97000000000000       21.47700000000000
H           -3.34600000000000       18.77800000000000       21.57700000000000
N           -1.71200000000000       17.60000000000000       22.36199999999999
C           -1.00100000000000       16.54100000000000       21.85400000000000
H           -0.20300000000000       16.07500000000000       22.41900000000000
78
 energy: -116.008429957605 gnorm: 0.116486275635 xtb: 6.7.1 (edcfbbe)
Fe          -1.49716743249118       18.49144012857614       24.48142125338366
N           -3.46294288636503       18.20931497894613       25.03216771152984
N           -1.91650390267717       20.43115279070914       23.88518583562468
N            0.53187419428257       18.90240327245995       24.29777365511237
N           -1.03847079235897       16.68024921412704       25.46913558696004
C           -3.99983396470763       17.10538053906056       25.65279748115828
C           -5.41814186359518       17.32318338974081       25.85803104590776
C           -5.71561001618766       18.55832263401286       25.37951862078367
C           -4.47682271404236       19.12055979519514       24.86067886202790
C           -3.17462857074536       20.97483574570776       23.81440022324180
C           -3.08472983148021       22.27985345111698       23.18534920834998
C           -1.77191921681875       22.50273449990800       22.89667543618352
C           -1.03011756076440       21.33277300922224       23.35622244625682
C            1.06569615099431       20.06810648218226       23.80652096897584
C            2.51494212426280       19.96817769227472       23.84675225127046
C            2.83692681997403       18.75374437396460       24.36602638327468
C            1.56643347024209       18.07900322354135       24.66713977224132
C            0.21623162379590       16.11146043668369       25.43872845785970
C            0.11242753174086       14.70345088734376       25.72357923135444
C           -1.27420211602690       14.44916657508328       25.98418256970935
C           -1.94881493918610       15.71511974188298       25.82789869497670
C           -3.31794368564219       15.94647175171524       26.00061487982444
H           -3.90975541969639       15.14566833606500       26.43772993806975
C           -4.34283447074646       20.37568862853800       24.27155732305346
H           -5.25602501152680       20.95230159598071       24.15497413173835
C            0.35117188914440       21.15790223589301       23.32323356093361
H            0.93240524923873       21.95728111467830       22.87793009734224
C            1.40852628229186       16.79343674512562       25.17398753533726
H            2.32605489332085       16.24842368037532       25.37723180494410
C           -7.07422507955710       19.24047617622175       25.38048341136167
H           -7.78401253940207       18.67034716208280       25.99057453169208
H           -7.47461544562439       19.30620013797225       24.36111064071534
H           -6.99962817714868       20.25102808947632       25.79765980732859
C           -6.34804948438078       16.31301688777827       26.49650611516239
H           -6.25242599522493       16.34584723664134       27.58921090854104
H           -6.10055541407159       15.30050198013456       26.15890159253123
H           -7.38925885186413       16.52729586712349       26.23326088566405
C           -4.24505175805398       23.19901611822643       22.86727454959689
H           -4.43893893515954       23.87511499653074       23.70955724871028
H           -5.15447294176561       22.62113631889177       22.67036528187746
H           -4.01164125084131       23.80498743296944       21.98473649956681
C           -1.20564027122637       23.72548805557497       22.24319529169949
H           -1.72692301376591       24.67615745860602       22.37503711703453
C           -0.10263487949133       23.71644702239997       21.49952073129840
H            0.37223017407290       22.78403060251950       21.22109302309312
H            0.35269581227777       24.63847049302398       21.14714747759882
C            3.47421377486531       21.04808461935617       23.38684140215992
H            3.03059551995931       22.04032915553091       23.52202975972638
H            3.70858241947838       20.91567436849509       22.32296367798207
H            4.40508058604853       21.00252409800158       23.96258199319100
C            4.24002140233289       18.24556751490381       24.56443832030717
H            4.99720374019672       18.47186651118725       23.80997384240576
C            4.59976389480231       17.55336173167219       25.63644866860503
H            3.88139068382516       17.33245166740934       26.41607430442041
H            5.61941023118036       17.19952617802310       25.76981976339275
C            1.26240277988675       13.70927015376457       25.71365655127492
H            1.93273758827539       13.87156609830402       26.57022342366060
H            1.87121587182422       13.80135764901830       24.80222681777693
H            0.88354289879266       12.68297895660774       25.77072695827495
C           -1.92007647297015       13.11364677920408       26.30730431486424
H           -1.20822499172285       12.46273488094681       26.82790688048238
H           -2.24306667852299       12.59584365075193       25.39188708568631
H           -2.80022539400749       13.23306530289780       26.95409383232123
O           -1.46019298593232       19.64029019466421       26.82727581983369
H           -2.27664281812444       19.45651990459803       27.28654402286520
H           -0.78338031559815       20.16666263880849       27.21370467672755
C           -1.12295931543995       15.22347108506541       19.62974417074475
H           -0.81414333819011       15.68493975947047       18.68352670028042
H           -1.97414464792604       14.56015798392044       19.43123567563648
H           -0.28955110590184       14.62805850172738       20.01489875936592
N           -2.50944505715417       17.17680271317295       20.41646937608130
H           -3.07422109237456       17.22640436954104       19.58509366208143
C           -1.49884493824583       16.27241079342255       20.62838602151127
C           -2.60808865429032       17.96506913684288       21.49856767552578
H           -3.32585245920910       18.76533890490257       21.59012569044513
N           -1.71438712377660       17.61220404090663       22.40617779132177
C           -1.01142513733000       16.55830758851372       21.86977841703647
H           -0.21636664775365       16.09034408208408       22.42219386311254
78
 energy: -116.033149147896 gnorm: 0.043853697908 xtb: 6.7.1 (edcfbbe)
Fe          -1.48268397671065       18.54014967260021       24.58429871427463
N           -3.45243583242856       18.21796438673061       25.03445220985765
N           -1.91835632724354       20.41809332364904       23.86933807081778
N            0.52283686801918       18.90147404808004       24.31273474961124
N           -1.03879508443208       16.68472837872686       25.41760744788607
C           -3.98634084784357       17.11436556729454       25.63886170547482
C           -5.41118195988975       17.31756972226207       25.85730656987564
C           -5.71192811084776       18.56006037106491       25.37608605551524
C           -4.46811918373994       19.11066516149936       24.85399551674371
C           -3.16348163919797       20.96616928899151       23.79824103408901
C           -3.08640572581393       22.27627865852874       23.18027247840171
C           -1.76233946081944       22.50122009635164       22.88101399556474
C           -1.04106882838763       21.31536775429715       23.34369180380312
C            1.05962394860957       20.04661099829676       23.80869429436348
C            2.50963387112793       19.96683903975301       23.83763597978485
C            2.83383892936864       18.74376510653718       24.36890386043315
C            1.55586456887151       18.08151500371195       24.66379897388605
C            0.19375325252300       16.10708063215904       25.41614387649606
C            0.07829489031682       14.69850007200570       25.73875405408878
C           -1.23110696367382       14.45851529106856       25.98164698584221
C           -1.92238474778491       15.71925996588502       25.79458988608403
C           -3.29345456411945       15.95499180524445       25.97540003182513
H           -3.88261540628995       15.15761160478981       26.41567374262976
C           -4.33508664042065       20.36496849336545       24.26392721978726
H           -5.24481475949522       20.94499268621193       24.16267693039532
C            0.34057174164511       21.14003740332283       23.33062103142932
H            0.92696160245752       21.94967900798119       22.91896221424527
C            1.39473118790965       16.78912878461248       25.15535693241378
H            2.30747648892271       16.23898172873047       25.34945208427702
C           -7.04817955618198       19.23369132443734       25.37735530652914
H           -7.76038000266512       18.67487136905402       25.98058190710864
H           -7.45389508828561       19.30750246025842       24.36772238129696
H           -6.98482934470615       20.23995090786016       25.78719525278190
C           -6.33303371425935       16.32475192829423       26.48960690292725
H           -6.24570872797041       16.34828423519313       27.57651185227196
H           -6.10012783590816       15.31554840487887       26.15789228862117
H           -7.36895013874227       16.53070975374101       26.23225956816659
C           -4.23259449205232       23.18478048426023       22.87345352513691
H           -4.43289458185850       23.86002696087311       23.70633275747649
H           -5.14076256478340       22.62196919591994       22.67354171784994
H           -4.01069376699147       23.79194936250047       21.99838396275575
C           -1.20227521829903       23.68737654626630       22.25822518298814
H           -1.72635266373677       24.62665700890106       22.42113658898198
C           -0.11000180794103       23.70775625488703       21.49764009638913
H            0.38773480223033       22.79999128076662       21.21283935833765
H            0.31884789296765       24.62564915613936       21.12738182292333
C            3.45754460611511       21.03419779762744       23.39150614604243
H            3.02871558168891       22.02409610822499       23.52389268691905
H            3.70143141211877       20.91308945290319       22.33489925409181
H            4.38594559842554       20.99076905518817       23.95679665239634
C            4.18848982854306       18.24461246810347       24.57549342579406
H            4.92868329025814       18.48892135207181       23.81578723928403
C            4.58273451954614       17.55367486458743       25.64044734968244
H            3.89446943941976       17.32722859279779       26.43318852101398
H            5.59717506425391       17.20810357470639       25.76352784176951
C            1.22729221534374       13.72842639828477       25.72407338473797
H            1.90374116636057       13.88878852620487       26.56744429103704
H            1.82956624179436       13.82307791603689       24.81711891190630
H            0.87103473461952       12.70214780590270       25.77505502140208
C           -1.89134665458005       13.14566629401093       26.30459534440794
H           -1.20231395597131       12.48083018209316       26.82251962396992
H           -2.22447086795444       12.63033578819736       25.39868020022383
H           -2.77023912960195       13.26582433194210       26.93915451627670
O           -1.45958192402157       19.59671687271219       26.76347120248314
H           -2.26200117449679       19.45902399296791       27.27147398687096
H           -0.79541324199634       20.14882486838113       27.18485575406658
C           -1.12346099135593       15.23414635017881       19.64024323030129
H           -0.81802146378372       15.68655740734980       18.69765472952140
H           -1.96434250912947       14.57140940666692       19.43839717209117
H           -0.29957405451194       14.63843780134490       20.01799487155964
N           -2.50359441071094       17.17542696459280       20.42380415782504
H           -3.07081361651583       17.22983382312498       19.59131877335621
C           -1.49614977283247       16.27292316796497       20.63982351120054
C           -2.59700564401685       17.96111759333185       21.52201505465885
H           -3.30964293962838       18.75653452165382       21.60933039821316
N           -1.71318699957349       17.62128331114407       22.43365656323205
C           -1.01972927337466       16.57013378573868       21.88902084695733
H           -0.22482555588034       16.09978893597915       22.43056041426740
78
 energy: -116.040673888776 gnorm: 0.024848789328 xtb: 6.7.1 (edcfbbe)
Fe          -1.47832309248380       18.55223696510535       24.61882082063138
N           -3.44006682498559       18.22481327125780       25.03234114346308
N           -1.92156413253888       20.39668799132874       23.86265955016608
N            0.50677916288717       18.90054501051404       24.32834178189754
N           -1.03789887729228       16.69059034798744       25.37907527221565
C           -3.97416528340406       17.12187899222271       25.62792897445080
C           -5.39687851759475       17.31816374796125       25.84876504998868
C           -5.69805885592474       18.55926938173322       25.36866034575867
C           -4.45771067806570       19.11055024235811       24.85034123614503
C           -3.16159107725927       20.95067137210085       23.78770725514100
C           -3.08360530398482       22.25676629341319       23.17324358215671
C           -1.75861174009783       22.47553597967147       22.87332842117725
C           -1.04528561285767       21.29139124255583       23.33847246529587
C            1.04676713880293       20.03893251524681       23.82047710293173
C            2.49163033884934       19.96045172913886       23.83804076360268
C            2.81140778447084       18.73946123506190       24.37593143189501
C            1.53956274226782       18.08259245016039       24.66833808656032
C            0.19276504665268       16.11560500653524       25.38975838656106
C            0.08312241606075       14.70999388105458       25.73272476335569
C           -1.23465399626011       14.47159246133912       25.97429029413618
C           -1.92227171535662       15.73273362926013       25.76513322226574
C           -3.28358866256704       15.96231349328231       25.95253814710849
H           -3.86673414676717       15.16050925995069       26.38641013025154
C           -4.33267314280566       20.35988240091678       24.25876752043492
H           -5.24044124061852       20.94148609712806       24.16555542350240
C            0.33339923049743       21.13076669087654       23.34405560070739
H            0.92409706940922       21.95253158487662       22.96524902255683
C            1.39046388159511       16.78539367053507       25.13662809592798
H            2.30060026230989       16.22445155743128       25.30602329341143
C           -7.02756896939415       19.23559274494542       25.36932520368903
H           -7.73947127191869       18.67696388640756       25.97253201131176
H           -7.43006274576656       19.31214765903284       24.35866941094401
H           -6.95919019698943       20.24172157600003       25.77893086204494
C           -6.31721384955739       16.32961431911853       26.48311034401393
H           -6.22834062730618       16.35275761356679       27.57018336180704
H           -6.09051865530338       15.31914762111695       26.15063887929692
H           -7.35259781164615       16.54061393906248       26.22709170909825
C           -4.22565371234060       23.17027680849976       22.87744938631585
H           -4.42192506982153       23.84116734712378       23.71535617697059
H           -5.13642718674804       22.61156704283653       22.67659907752876
H           -4.00452739140611       23.78197198140712       22.00535087606714
C           -1.19505830134792       23.66064585917347       22.26946672400056
H           -1.72340748758708       24.59051226776444       22.46797263669457
C           -0.11632990597309       23.70434812972478       21.48796904880444
H            0.39911541787679       22.81044428381757       21.18482476080716
H            0.27425788279993       24.63079321333668       21.09559680882402
C            3.44109756392435       21.02237693406704       23.39284146097495
H            3.01757896485755       22.01440533848286       23.52885877914384
H            3.68670297096710       20.90464358092107       22.33595444396028
H            4.36903728839647       20.97059626081364       23.95836253623416
C            4.15300399336740       18.23774144076694       24.58717802223471
H            4.87880374389537       18.49892614459673       23.82144911820528
C            4.56464701564371       17.54698606879939       25.64629948857181
H            3.89570448106087       17.32019275884472       26.45834463545568
H            5.58349764437281       17.21464481833896       25.75680315036956
C            1.22058714736554       13.74202454459445       25.73240535213601
H            1.88789562479534       13.91319992150383       26.57786035642028
H            1.80941271369590       13.84410935980999       24.82083383507719
H            0.85710898645694       12.71911397696978       25.78563717324318
C           -1.88507458830957       13.16682495433646       26.30717304595623
H           -1.19198314334888       12.50583635251693       26.82306899419497
H           -2.21494722977857       12.66099884489820       25.39707241869909
H           -2.75820344553149       13.30381000487602       26.94130873801272
O           -1.44375999177264       19.53357733664482       26.71667107756759
H           -2.25188292092707       19.45852850414063       27.23824201617997
H           -0.80189217835165       20.12444075817484       27.12595338657296
C           -1.12217408250789       15.24624564557616       19.65884785794631
H           -0.81881790678827       15.70160941158967       18.71671075302316
H           -1.96301191071646       14.58398028383701       19.45377184616492
H           -0.29867734400351       14.64778489594931       20.03265385829119
N           -2.50006571147773       17.18302828678906       20.44621111340912
H           -3.06568940653347       17.24086677123001       19.61315108585487
C           -1.49267651473944       16.27951845867925       20.66309934234464
C           -2.59232334503658       17.96494179761956       21.54814025749883
H           -3.30239664612199       18.76084850976038       21.63862458879600
N           -1.71222308526502       17.62201750549196       22.45566772799332
C           -1.01891896909948       16.57475181419878       21.91340745167162
H           -0.22391200899823       16.10334392124107       22.45272162587943
78
 energy: -116.045017566138 gnorm: 0.030212799880 xtb: 6.7.1 (edcfbbe)
Fe          -1.47987662276039       18.54165586081814       24.60579899387243
N           -3.42134773438522       18.23069373498229       25.02573075036343
N           -1.92349472795937       20.36843038571608       23.86685919677858
N            0.48230270760649       18.90010363294725       24.34550694167044
N           -1.03835959838405       16.71048645682842       25.34074861087202
C           -3.95908752903262       17.12928817596779       25.61426921650040
C           -5.37807025592700       17.31911637041059       25.83703948637111
C           -5.67930065531579       18.55854357135557       25.36052043757142
C           -4.44350580969496       19.11103654533198       24.84674048066491
C           -3.15938636521706       20.93128644200247       23.78150351392729
C           -3.07884850179568       22.23221937936953       23.16961911600805
C           -1.75428665563352       22.44540698152301       22.87507702045191
C           -1.04959964963230       21.26503250364043       23.34253627503873
C            1.02962524520585       20.03465235006232       23.83593499840460
C            2.46831520676758       19.95412419549926       23.84347572183086
C            2.78241379151858       18.73557179910520       24.38570528605626
C            1.51750536417441       18.08489909086381       24.67473216095507
C            0.18911776835753       16.13080983216488       25.36088263966191
C            0.08232323934184       14.73080280022104       25.71950926951240
C           -1.23753679711167       14.49623612756974       25.96260611571717
C           -1.92080400890998       15.75504724009818       25.73382438846591
C           -3.27332112821653       15.96822662217761       25.92448837575459
H           -3.84943807791951       15.15779797758415       26.34680902689112
C           -4.33120253518022       20.35512986414686       24.25415399250846
H           -5.23722150933415       20.93743698751241       24.16591876903852
C            0.32504147154406       21.12643527839966       23.36135680941452
H            0.91228284656365       21.95643850152065       23.00108675577597
C            1.38545864302938       16.77944669955330       25.11207889621544
H            2.29328932557902       16.20814837773911       25.25284308449341
C           -7.00396424795193       19.24177852741397       25.35841300980639
H           -7.71891914558719       18.68533610479106       25.96030741439181
H           -7.40084888461524       19.32191650900907       24.34540525940171
H           -6.92681641671565       20.24756356657561       25.76905186521183
C           -6.29694960923593       16.33238047942600       26.47427160975804
H           -6.20136936515265       16.35592144358963       27.56139762933236
H           -6.07622965008233       15.32080574241727       26.13935948282940
H           -7.33257261803827       16.55108354742521       26.22231919134828
C           -4.21854649701613       23.15078589582582       22.88167843296452
H           -4.40862386195992       23.81363434172798       23.72856336296536
H           -5.13206442544806       22.59567828604830       22.67913987578343
H           -3.99675577676713       23.76995753018568       22.01439087193976
C           -1.19232396392347       23.63202778459617       22.27326315110100
H           -1.72089752792971       24.55295606348106       22.50805107461619
C           -0.13291887394486       23.69488326388258       21.46848952030982
H            0.40685300084330       22.81480794065117       21.15996630129044
H            0.23113903823090       24.63148542671363       21.07912361228098
C            3.42145149631834       21.00981804301139       23.39525003566293
H            3.00429287684105       22.00470056585088       23.53601972128593
H            3.66262331574134       20.89275867014012       22.33677416433055
H            4.35017006927654       20.94704807411922       23.95967927270319
C            4.12056489295622       18.23277150526599       24.60323058429657
H            4.83276905514422       18.49959552632090       23.82887987685454
C            4.54402615827987       17.54491062442033       25.65810018182267
H            3.88832787193491       17.30034814414910       26.47731053370401
H            5.56524797026648       17.21480323498634       25.74906168006734
C            1.21303788293205       13.76274947014113       25.73890642524971
H            1.87272331037166       13.94264657659300       26.58720249433753
H            1.80030657907430       13.86011155132066       24.82770103199142
H            0.84510065456655       12.74159462785292       25.80004888269469
C           -1.88100840420682       13.19747522385866       26.30858665879051
H           -1.18288966607880       12.54070792444652       26.82292277174227
H           -2.21399546486712       12.69158733774077       25.40037449324407
H           -2.74689795169753       13.34470992327949       26.94777176735725
O           -1.39468001370540       19.43585766156364       26.71196514852455
H           -2.23893260202202       19.47309261034301       27.19939492686339
H           -0.81503895999019       20.12799030764013       27.08513640557994
C           -1.12045344028484       15.25858815796076       19.67903189422628