87
 energy: -128.467993323630 gnorm: 0.000047874048 xtb: 6.7.1 (edcfbbe)
Fe         -12.78590297012354      -12.85438513936355      -16.68641787351773
N          -14.33140196860291      -11.59365993501451      -16.51333874352011
N          -11.53142696787428      -11.40222279907807      -16.10403124320013
N          -11.23796678001528      -14.11762394971312      -16.88511292064102
N          -14.04190004339267      -14.31134391619273      -17.24516710238989
C          -15.63246466238904      -11.85103937423861      -16.80054190218366
C          -16.44902879493972      -10.67771328290056      -16.57360326919207
C          -15.60630262567196       -9.70677629099578      -16.13233780331350
C          -14.28585562523423      -10.29933763028925      -16.10257382762500
C          -11.86555230331288      -10.14191595831577      -15.71779838035642
C          -10.69411612022884       -9.39170089564638      -15.34494774208804
C           -9.62566837404103      -10.23051613992392      -15.52663147341548
C          -10.18145248968096      -11.48661726795197      -15.99475609654468
C           -9.92052690335141      -13.82303890353975      -16.71206696115824
C           -9.09929905581852      -14.97715703708056      -16.96915870499718
C           -9.95804210688154      -15.99639545472752      -17.29178659176310
C          -11.29000365947025      -15.42507927468812      -17.24197407247965
C          -13.72265489277563      -15.60326627195046      -17.51696873206189
C          -14.90674079538603      -16.36169014059909      -17.85818282091689
C          -15.94829187695430      -15.48963467250828      -17.79626134997668
C          -15.38657247569546      -14.21424564172199      -17.40817164704914
C          -16.13692418234928      -13.06779312701545      -17.22218505842146
H          -17.19949310822211      -13.13205476996439      -17.40296730734290
C          -13.14874448505702       -9.61897448136870      -15.71431175987488
H          -13.26716951502395       -8.59166002085855      -15.40369748612820
C           -9.42048084418932      -12.59821231625958      -16.30189903534534
H           -8.34933979931540      -12.51199635228772      -16.19722045631450
C          -12.44689143601801      -16.13544106983738      -17.50993088580544
H          -12.34707793309436      -17.18427010026656      -17.74599543368597
C          -15.90700512972894       -8.29952947284697      -15.74285482311384
H          -15.62641297638070       -8.12091096074243      -14.70439635102428
H          -16.96759678447776       -8.08570157304278      -15.85165756565270
H          -15.35060547970536       -7.60022624905577      -16.36773810261636
C          -17.92172305235415      -10.62088705158731      -16.79806818325617
H          -18.43639115919582      -11.33713532250670      -16.15663710186240
H          -18.16086084100053      -10.86318879735357      -17.83383053871725
H          -18.30891008424364       -9.62830538583317      -16.58055422074109
C          -10.69950668271590       -8.00380182109034      -14.80436711092419
H          -11.56511196199155       -7.84358305462594      -14.16322683501161
H          -10.73698481893081       -7.27005956252296      -15.61161825379234
H           -9.79722279128564       -7.82608734344100      -14.22230409171031
C           -8.22141774928271       -9.98835978767212      -15.28513548812309
H           -7.64628328317505      -10.84928766382507      -14.96291206204961
C           -7.59847489559157       -8.82300910708260      -15.43310901362422
H           -8.10295138825837       -7.94505051006294      -15.79655130622039
H           -6.54783937447892       -8.71490368382719      -15.21918996655525
C           -7.60994050427943      -14.99409087144289      -16.94798912991196
H           -7.23369806102064      -15.13997252226952      -15.93361256407214
H           -7.20885709830744      -14.05402587642648      -17.32402905944019
H           -7.23707689295633      -15.80535671268926      -17.57036356749445
C           -9.65997934879619      -17.36374210557743      -17.65238403606308
H          -10.34657823643597      -17.82267603779487      -18.35490833974478
C           -8.64158475761467      -18.08418896995292      -17.19196092692048
H           -7.95471602560488      -17.70319986001696      -16.45679553808977
H           -8.47567883891149      -19.09753788111343      -17.51883500645119
C          -14.90791372325102      -17.81180233503483      -18.20451438255072
H          -14.48309602521027      -18.40005610615103      -17.39088544875215
H          -14.31203879043210      -17.99502510606681      -19.09957248553907
H          -15.91949596947178      -18.16483659739050      -18.39035449055975
C          -17.39693372721051      -15.72792530356285      -18.05570165837018
H          -17.57442944279347      -16.76170944788290      -18.34247738760692
H          -17.75376279764636      -15.08305618148453      -18.85926910361850
H          -17.98719292786144      -15.51348742180207      -17.16422283182342
C          -14.79100267038865      -14.45110754011123      -11.71635427302754
H          -14.68160246977705      -13.76894996916787      -10.87313799118148
H          -14.55236855004630      -15.45788915467038      -11.37324811748649
H          -15.82468469356847      -14.43234463025519      -12.04725219233596
N          -12.54017157644961      -13.98250976388806      -12.70928539846575
H          -12.01618456331319      -14.18880057261340      -11.87479030469925
C          -13.90313079685246      -14.05138955254542      -12.83761634609500
C          -12.03657426107483      -13.59214931544409      -13.90201258967005
H          -10.99311314355626      -13.45332939352770      -14.09621334653348
N          -12.99563000471300      -13.40970616907219      -14.77551924566083
C          -14.16234173162729      -13.69121090681069      -14.12876162509349
H          -15.10305114326732      -13.61643662105425      -14.63338031509555
C          -12.24787539311591       -9.99141817463923      -21.45984957074525
H          -13.02248444342982      -10.10100747291566      -22.21898144683441
H          -11.27790998963232      -10.01584920963055      -21.95669111141372
H          -12.36718616666944       -9.02623645436347      -20.97765077056055
N          -12.23937749104933      -12.39782785893403      -20.76586506616156
H          -12.08515359310466      -12.76907663419506      -21.68884050522107
C          -12.34754785903310      -11.06983870526852      -20.44382579570681
C          -12.37330381099573      -13.10781588338465      -19.62274067730688
H          -12.33146688171330      -14.17616021895757      -19.57123323249304
N          -12.55937064501150      -12.31192573566073      -18.59904559413802
C          -12.54627512010933      -11.04140466894127      -19.09342334746440
H          -12.67962858577814      -10.19813649590434      -18.44821748327247
