87
 energy: -128.377985627292 gnorm: 0.285127696453 xtb: 6.7.1 (edcfbbe)
Fe         -12.75000000000000      -12.92100000000000      -16.61500000000000
N          -14.22900000000000      -11.69900000000000      -16.42400000000000
N          -11.52100000000000      -11.32700000000000      -16.08600000000000
N          -11.24500000000000      -14.18600000000000      -16.85700000000000
N          -13.91900000000000      -14.36100000000000      -17.17500000000000
C          -15.57800000000000      -11.97700000000000      -16.75000000000000
C          -16.40000000000000      -10.88400000000000      -16.44200000000000
C          -15.57200000000000       -9.89900000000000      -15.94900000000000
C          -14.25500000000000      -10.37700000000000      -15.96600000000000
C          -11.85700000000000      -10.17900000000000      -15.62600000000000
C          -10.64100000000000       -9.43900000000000      -15.32300000000000
C           -9.59800000000000      -10.26800000000000      -15.59400000000000
C          -10.22100000000000      -11.50100000000000      -16.12000000000000
C           -9.91100000000000      -13.82900000000000      -16.77100000000000
C           -9.09300000000000      -14.87900000000000      -17.09700000000000
C           -9.93400000000000      -15.94800000000000      -17.35100000000000
C          -11.26900000000000      -15.51200000000000      -17.20000000000000
C          -13.61200000000000      -15.58700000000000      -17.49300000000000
C          -14.85300000000000      -16.30600000000000      -17.87700000000000
C          -15.86200000000000      -15.50500000000000      -17.80900000000000
C          -15.25000000000000      -14.23300000000000      -17.39500000000000
C          -16.06800000000000      -13.15600000000000      -17.21900000000000
H          -17.12700000000000      -13.24100000000000      -17.45700000000000
C          -13.12100000000000       -9.66500000000000      -15.53800000000000
H          -13.25400000000000       -8.66700000000000      -15.12100000000000
C           -9.48200000000000      -12.59500000000000      -16.41300000000000
H           -8.40200000000000      -12.46700000000000      -16.35300000000000
C          -12.39200000000000      -16.29500000000000      -17.45799999999999
H          -12.33300000000000      -17.36700000000000      -17.62000000000000
C          -15.99100000000000       -8.55000000000000      -15.47600000000000
H          -16.04600000000000       -8.54700000000000      -14.36600000000000
H          -16.99300000000000       -8.30200000000000      -15.88700000000000
H          -15.24800000000000       -7.79100000000000      -15.80200000000000
C          -17.92000000000000      -10.74400000000000      -16.57800000000000
H          -18.38200000000000      -11.75300000000000      -16.62900000000000
H          -18.16400000000000      -10.18900000000000      -17.50900000000000
H          -18.32800000000000      -10.20500000000000      -15.69600000000000
C          -10.65700000000000       -8.03200000000000      -14.80500000000000
H          -11.35300000000000       -7.96300000000000      -13.94200000000000
H          -11.00400000000000       -7.34200000000000      -15.60400000000000
H           -9.63800000000000       -7.74400000000000      -14.47000000000000
C           -8.14100000000000      -10.18600000000000      -15.54100000000000
H           -7.52600000000000      -11.09700000000000      -15.49500000000000
C           -7.54800000000000       -9.02900000000000      -15.54700000000000
H           -8.13600000000000       -8.10000000000000      -15.59200000000000
H           -6.45100000000000       -8.96400000000000      -15.50700000000000
C           -7.57200000000000      -14.92700000000000      -17.19500000000000
H           -7.15500000000000      -15.38000000000000      -16.27000000000000
H           -7.17000000000000      -13.89700000000000      -17.30500000000000
H           -7.27100000000000      -15.54700000000000      -18.06700000000000
C           -9.66900000000000      -17.32200000000000      -17.76800000000000
H          -10.55200000000000      -17.93500000000000      -17.98900000000000
C           -8.53300000000000      -17.95100000000000      -17.92400000000000
H           -7.57900000000000      -17.43700000000000      -17.73200000000000
H           -8.51700000000000      -19.00200000000000      -18.24900000000000
C          -14.92400000000000      -17.75000000000000      -18.17700000000000
H          -14.77500000000000      -18.33100000000000      -17.24200000000000
H          -14.12700000000000      -18.02300000000000      -18.90100000000000
H          -15.92100000000000      -17.99700000000000      -18.59900000000000
C          -17.31300000000000      -15.86100000000000      -18.18400000000000
H          -17.60500000000000      -16.80700000000000      -17.68000000000000
H          -17.39400000000000      -15.99800000000000      -19.28300000000000
H          -17.99600000000000      -15.05100000000000      -17.85100000000000
C          -15.29900000000000      -14.07100000000000      -11.73900000000000
H          -15.30500000000000      -13.24600000000000      -10.99500000000000
H          -15.03400000000000      -15.01900000000000      -11.22400000000000
H          -16.31000000000000      -14.15500000000000      -12.19200000000000
N          -12.93400000000000      -13.60400000000000      -12.54400000000000
H          -12.51200000000000      -13.65700000000000      -11.63900000000000
C          -14.29200000000000      -13.77600000000000      -12.80200000000000
C          -12.31500000000000      -13.36300000000000      -13.68400000000000
H          -11.24600000000000      -13.17300000000000      -13.77300000000000
N          -13.19900000000000      -13.39200000000000      -14.67000000000000
C          -14.43500000000000      -13.64800000000000      -14.13600000000000
H          -15.31300000000000      -13.71600000000000      -14.76700000000000
C          -11.55000000000000       -9.99300000000000      -21.28200000000000
H          -12.36900000000000       -9.74100000000000      -21.98900000000000
H          -10.68500000000000      -10.38500000000000      -21.85800000000000
H          -11.25500000000000       -9.07400000000000      -20.73100000000000
N          -12.46700000000000      -12.27400000000000      -20.71000000000000
H          -12.54300000000000      -12.57300000000000      -21.66100000000000
C          -12.02500000000000      -11.03000000000000      -20.31600000000000
C          -12.77000000000000      -12.99800000000000      -19.63400000000000
H          -13.12900000000000      -14.02600000000000      -19.66100000000000
N          -12.55500000000000      -12.24100000000000      -18.54100000000000
C          -12.08000000000000      -11.01800000000000      -18.96500000000000
H          -11.82300000000000      -10.24400000000000      -18.25200000000000
87
 energy: -128.435242496382 gnorm: 0.124949638796 xtb: 6.7.1 (edcfbbe)
Fe         -12.77886895184383      -12.91236579587028      -16.62955087878536
N          -14.25479825765838      -11.67654673468886      -16.43984781598516
N          -11.53584962933848      -11.37793970237531      -16.07362783950758
N          -11.25181535024108      -14.18188011554110      -16.85393268262819
N          -13.94675772119196      -14.35979879297831      -17.19505640335749
C          -15.58053865324536      -11.95069703398779      -16.74132902409980
C          -16.41217505766542      -10.84925125514790      -16.43259774597388
C          -15.58518595777746       -9.87655981649754      -15.94482756968162
C          -14.26039328626082      -10.38268790491579      -15.95699125954307
C          -11.85685335892248      -10.17532104938226      -15.62724027467234
C          -10.63719903252048       -9.43387964681255      -15.31923391073370
C           -9.59501665839806      -10.26983405207628      -15.59870376575928
C          -10.21170983036327      -11.50745852778735      -16.09300690702356
C           -9.92010928356738      -13.84063172494220      -16.78091455059067
C           -9.08264404216263      -14.91974876164448      -17.10822566481208
C           -9.92600859525089      -15.97986993045770      -17.35866498874116
C          -11.26600415551800      -15.50182137179356      -17.19942810310576
C          -13.63102768355545      -15.62192790204982      -17.48296003268882
C          -14.84088770805583      -16.34938554782839      -17.87551308087520
C          -15.87384114423519      -15.50665511794595      -17.82259999110878
C          -15.28263027207190      -14.23921299834436      -17.40294306016922
C          -16.07213882697721      -13.14169937391938      -17.21951157747447
H          -17.12382038134838      -13.22689710502859      -17.45006765364115
C          -13.13498290522770       -9.67119458306398      -15.53754515629490
H          -13.26623937323650       -8.67534678632187      -15.13287255322994
C           -9.46603325898269      -12.60032529153217      -16.41371113886013
H           -8.39447532743787      -12.47992329309520      -16.36149373413741
C          -12.40049510254756      -16.26510161333688      -17.44255973443236
H          -12.33918347159780      -17.32868759933661      -17.61946337102522
C          -15.99436575888131       -8.53266722186762      -15.47040420084686
H          -16.04862143208301       -8.52878413198138      -14.37454027141057
H          -16.97910841034992       -8.28526456284970      -15.87644664325215
H          -15.26534746973248       -7.78354956518930      -15.79303553201264
C          -17.90994806618579      -10.74594392611442      -16.57686073298509
H          -18.37599255736706      -11.73549666641088      -16.62752655049622
H          -18.16379941061555      -10.19699259543271      -17.49183279692011
H          -18.32496715111536      -10.21382840369723      -15.71491582242432
C          -10.65541737971016       -8.03441694145537      -14.79910745158631
H          -11.34649420075839       -7.95587586712725      -13.95203543477927
H          -10.99393035218634       -7.34673676851241      -15.58545731532466
H           -9.66096704860828       -7.73458838073090      -14.46135748324335
C           -8.14907374423389      -10.16534577252361      -15.52704797399739
H           -7.55299209911508      -11.07657127704200      -15.48663148350641
C           -7.52783341775529       -9.00079570748965      -15.54461298577881
H           -8.09402237405178       -8.08363403237213      -15.60907490573489
H           -6.44764632945959       -8.94143498192227      -15.50797494314935
C           -7.58037075640023      -14.92697757598370      -17.19235244264386
H           -7.15657037618778      -15.37405453112806      -16.28413123500551
H           -7.17715444501622      -13.91452182528897      -17.30324058884185
H           -7.26903642798507      -15.52257708998381      -18.05515127584170
C           -9.66751303596495      -17.33678798838336      -17.77255091802892
H          -10.55216608801489      -17.92998570327277      -17.98833475727629
C           -8.51195420160658      -17.96360861621992      -17.92668082905340
H           -7.57049686180384      -17.46970629998420      -17.73314480030979
H           -8.49131642331496      -18.99633560428063      -18.24972810942896
C          -14.91201220641856      -17.78792583847006      -18.18433343318024
H          -14.77178946299586      -18.35502510828604      -17.25771431870115
H          -14.13228436146532      -18.05449516828967      -18.90157172821139
H          -15.89654882617483      -18.01841136951194      -18.60120449545902
C          -17.30422174495610      -15.84565826002459      -18.17479690320941
H          -17.59818551650670      -16.78113235233436      -17.68373045670017
H          -17.39401729557305      -15.98786539372489      -19.25865927679486
H          -17.99410521946885      -15.06008686799994      -17.85853408555494
C          -15.29173411155348      -14.06819801124022      -11.73485368770613
H          -15.30955008830330      -13.25851726631012      -10.99581871302625
H          -15.04554432261430      -15.00561742437523      -11.22265929290941
H          -16.28631962520346      -14.15463658634679      -12.18239207640752
N          -12.94439024614528      -13.60433268383699      -12.53054366124506
H          -12.51935650626230      -13.65443246752933      -11.62173491483283
C          -14.28767457850449      -13.78062118936588      -12.79455452814507
C          -12.31998851293068      -13.36817011167073      -13.69147390843416
H          -11.26308366284874      -13.17841915345080      -13.78081211115711
N          -13.18156769179337      -13.39610521088707      -14.68421791288094
C          -14.41279307544871      -13.64900812912719      -14.14118022625875
H          -15.28824901811638      -13.71267054002342      -14.76237731891501
C          -11.55529506221371       -9.99617214960107      -21.28626590575101
H          -12.35619518343680       -9.73850730487455      -21.98900069012238
H          -10.69645172171053      -10.37114473523075      -21.85530342252501
H          -11.25947749866704       -9.09382789205611      -20.74350392297018
N          -12.46115782851713      -12.26816479268942      -20.72130560294852
H          -12.54049716760002      -12.57268730727211      -21.67532470451868
C          -12.02256023515940      -11.03068038552203      -20.32445676078586
C          -12.76444826228204      -12.98505638561072      -19.62789013460285
H          -13.12259593934954      -14.00104245006972      -19.65092830846885
N          -12.54449594512876      -12.25886245790752      -18.54290197224992
C          -12.08632055837772      -11.03812577968962      -18.96603168163523
H          -11.83529942856923      -10.26626776072426      -18.26132589087496
87
 energy: -128.454097064149 gnorm: 0.034643229529 xtb: 6.7.1 (edcfbbe)
Fe         -12.78989006397715      -12.90314828958099      -16.63623293763180
N          -14.28172675795226      -11.66270644377064      -16.45112928844286
N          -11.54543744196754      -11.42797355987120      -16.05035805609357
N          -11.24686139265292      -14.18072804185301      -16.85651486226223
N          -13.97542455866167      -14.35394361162493      -17.21422841696065
C          -15.58369658313515      -11.92996995167097      -16.74098825436877
C          -16.42448673115088      -10.81786741472648      -16.42445941436012
C          -15.59674842106526       -9.85461853931258      -15.93843377640425
C          -14.26425724094191      -10.39024434285709      -15.95640455257762
C          -11.85266590747060      -10.18138056102227      -15.62436199713419
C          -10.64164473879344       -9.43517111085500      -15.31847047326287
C           -9.59525261494201      -10.27263448762342      -15.59970156133462
C          -10.20040438032597      -11.51660952895174      -16.05672317722101
C           -9.92456318823494      -13.84848686870339      -16.78831359792347
C           -9.07693769016784      -14.95127273251734      -17.11798869330595
C           -9.92138576121674      -16.00818053445485      -17.36555480787179
C          -11.26376134071736      -15.49289260118628      -17.20032859628844
C          -13.66027120632154      -15.64638451293455      -17.47165449077009
C          -14.84195782757284      -16.38040151721783      -17.86177542632948
C          -15.88257670827386      -15.51267940677444      -17.83107716031847
C          -15.31377893211294      -14.24869436192265      -17.41869748437623
C          -16.07620608688027      -13.12550978860693      -17.22819502931820
H          -17.12772847963563      -13.20507655321961      -17.44324505438446
C          -13.14271285798858       -9.68636136928490      -15.54186028047954
H          -13.27603796477202       -8.68854711145702      -15.15139949563497
C           -9.44772437863352      -12.60880269037732      -16.41255323757614
H           -8.37948942662779      -12.49767478995540      -16.37720396376110
C          -12.41278910404557      -16.23006987842796      -17.42979369307024
H          -12.34802915506626      -17.28851254399956      -17.62287044724984
C          -15.99560422961921       -8.50748708829579      -15.46094742452967
H          -16.04913756279568       -8.49839731586092      -14.37284101677018
H          -16.97189796946124       -8.25601400527288      -15.86161973905453
H          -15.27668969484354       -7.76088915508918      -15.78205484135382
C          -17.90598903933381      -10.73924038079817      -16.57483852014540
H          -18.36095016816768      -11.72395706709967      -16.62547110352250
H          -18.16808985728679      -10.19806899461639      -17.48407409437896
H          -18.33370566066139      -10.21231947216691      -15.72546932654835
C          -10.65878428947855       -8.03954091608350      -14.79565396895590
H          -11.35127412568401       -7.95576131488866      -13.95978970844372
H          -10.98627180844839       -7.34905600255569      -15.57439738130780
H           -9.67662749299909       -7.73582322535892      -14.45231112721999
C           -8.15976447061793      -10.12894368817483      -15.51629299864771
H           -7.57867638089991      -11.04017215498843      -15.46062230479152
C           -7.51313156130143       -8.96758737491893      -15.54790624242045
H           -8.05447249719836       -8.04817596006862      -15.63026184267311
H           -6.44168017237093       -8.91920814402393      -15.50147716784567
C           -7.58860244522362      -14.92895924117583      -17.19275243455934
H           -7.15735580106374      -15.37222969169348      -16.29438864830400
H           -7.19724714096643      -13.92059226623294      -17.29718261560153
H           -7.26051371985269      -15.50633754903743      -18.05250442328113
C           -9.66401795387990      -17.35669833472484      -17.77574858446027
H          -10.54896508041202      -17.93750501059701      -17.99305417223923
C           -8.49343980999004      -17.97541236155869      -17.92493511244399
H           -7.55695890527805      -17.49681689735378      -17.72790824127664
H           -8.46391902110321      -18.99715331957075      -18.25348435961556
C          -14.90518760997106      -17.82294433712994      -18.18708165365815
H          -14.76471911372209      -18.39943990574903      -17.27547035655890
H          -14.13431627480417      -18.09097498895233      -18.90125652753798
H          -15.87761851708883      -18.05577208166399      -18.60708418274590
C          -17.29714289410495      -15.83620313331655      -18.17071937520966
H          -17.59596078958667      -16.76315135520820      -17.68239420660461
H          -17.40021073493046      -15.97872464677879      -19.24731298673721
H          -17.98405227111125      -15.05723412402949      -17.86180410234361
C          -15.28487888035199      -14.06553756000258      -11.73517957673851
H          -15.30754625880796      -13.26428584878873      -10.99843046733008
H          -15.05015199816243      -14.99651191005302      -11.22146053935894
H          -16.27000580962720      -14.15358734719538      -12.18069127670071
N          -12.94863763159876      -13.60403933246455      -12.52192817156721
H          -12.52223593925612      -13.64979590646221      -11.61099298024058
C          -14.28072597319352      -13.78364124259081      -12.79281325939090
C          -12.31894805214635      -13.37467382236256      -13.69629102294041
H          -11.26947348954177      -13.18677483384336      -13.78574061231281
N          -13.16461395203630      -13.39914644960229      -14.69319226861975
C          -14.39190786964858      -13.65237763542350      -14.14718100466455
H          -15.26747895344966      -13.71558013782419      -14.75926522368447
C          -11.56075453942555       -9.99836685245540      -21.28797575400780
H          -12.35135365063987       -9.73815749946118      -21.98935073325794
H          -10.70516433656397      -10.36245510154801      -21.85509250007233
H          -11.26439945794812       -9.10597065145945      -20.74820463290609
N          -12.45613792510708      -12.26822073038448      -20.73246707195249
H          -12.53706501927301      -12.57703847237396      -21.68737094385028
C          -12.02139219179047      -11.03431919954622      -20.32953693584957
C          -12.75775718447448      -12.98056440991850      -19.62512157125937
H          -13.11627577854221      -13.98836666014046      -19.64523926962342
N          -12.54482752741475      -12.27460474978391      -18.54552835987911
C          -12.09015071289281      -11.05839282691297      -18.96615487308422
H          -11.84369486254435      -10.28525616960716      -18.26916193220818
87
 energy: -128.458727221549 gnorm: 0.018126628114 xtb: 6.7.1 (edcfbbe)
Fe         -12.79236887356629      -12.90296475946050      -16.63764275794456
N          -14.29616068372674      -11.65482915350073      -16.46063126108843
N          -11.54147609551476      -11.45407377913436      -16.03458741710344
N          -11.23889443358639      -14.18236156368934      -16.85870521097323
N          -13.99853032285308      -14.35455279190313      -17.22033109062684
C          -15.59420478528848      -11.91889429731797      -16.74647190645407
C          -16.43308180605940      -10.79627022785990      -16.42195356617264
C          -15.60236624669994       -9.83643015428413      -15.93366694967876
C          -14.26857357728971      -10.38919996815697      -15.95906780784604
C          -11.85038356077599      -10.19516521709154      -15.61672488291817
C          -10.65228978923493       -9.44027739297464      -15.31725640263618
C           -9.59671969620954      -10.27095091236607      -15.59251791403782
C          -10.18843021080691      -11.52575840885808      -16.03195658277922
C           -9.92115705639883      -13.85274842083708      -16.78833832398280
C           -9.07627597305500      -14.96573555423655      -17.12364571593645
C           -9.92171783971748      -16.02216089176995      -17.37106298905758
C          -11.26453589528569      -15.49162834878403      -17.20434826736597
C          -13.68204618731563      -15.65603768890972      -17.46589820449186
C          -14.85324232344343      -16.39989901097372      -17.85004660433249
C          -15.89417786090111      -15.52303380603975      -17.83331913821540
C          -15.33726868410107      -14.25400539194348      -17.42996695297877
C          -16.08764353140722      -13.11453987965917      -17.23702155518692
H          -17.14281299414796      -13.18293600003571      -17.44392018759016
C          -13.14328694274348       -9.69948684961758      -15.54437393490610
H          -13.27765526866338       -8.69624560846205      -15.16835035290113
C           -9.43373671345021      -12.61684188771110      -16.40667371835478
H           -8.36323519278951      -12.51023433978900      -16.38976343668059
C          -12.42150060815520      -16.21410595062138      -17.42753613060586
H          -12.35214056026775      -17.27024972620436      -17.63068069120321
C          -15.99137916177099       -8.48238012816875      -15.45170511695546
H          -16.04175254843788       -8.46480659461018      -14.36290299846343
H          -16.96888814303092       -8.21931979892191      -15.84581355062767
H          -15.27415848292640       -7.73303351812260      -15.77405531345742
C          -17.91318647856587      -10.72422638334409      -16.57413324925041
H          -18.35584042830238      -11.71489711539773      -16.62182229152338
H          -18.18047169700862      -10.19013068830952      -17.48671210074691
H          -18.35258357915783      -10.19738105732371      -15.72955318986068
C          -10.67228955511940       -8.04561988765262      -14.79127431626991
H          -11.37732955246982       -7.96115226424384      -13.96533964312285
H          -10.98270456967007       -7.34801201482552      -15.57106355235507
H           -9.69442487081573       -7.74581426684588      -14.42898647798852
C           -8.16536749543402      -10.08855763305934      -15.49987007172204
H           -7.58605691279264      -10.99799273361476      -15.41235344475488
C           -7.50775895457575       -8.93156213618151      -15.54888109364927
H           -8.02412405808886       -7.99785346845141      -15.68563843611557
H           -6.43480288516251       -8.89359724856348      -15.48937413975516
C           -7.58995583415666      -14.93205405847205      -17.19608041246074
H           -7.15246678868581      -15.37902279075210      -16.30186789939096
H           -7.21551654032544      -13.91579647704464      -17.28706936515204
H           -7.24583017391268      -15.49207982790866      -18.06320050316602
C           -9.65759373636211      -17.37347558006549      -17.78024124386661
H          -10.54152776351813      -17.95427848815913      -18.00476074660897
C           -8.48132056073399      -17.98711651250672      -17.92109152740457
H           -7.54181177446473      -17.51853248637589      -17.70613586300441
H           -8.44069092499039      -19.00774194778153      -18.25854735190823
C          -14.90202584669233      -17.84948578421260      -18.18464011952558
H          -14.75497359705354      -18.44568377386874      -17.28452257049962
H          -14.12884112272413      -18.11507679796836      -18.90113674371692
H          -15.86857252031596      -18.09749933208235      -18.61191901973005
C          -17.31004781338849      -15.83408840645451      -18.17013140472634
H          -17.61506945391297      -16.75721349623501      -17.67875637103159
H          -17.42000467265249      -15.97433350727157      -19.24670625985640
H          -17.98651445412091      -15.04483193063975      -17.86017879653278
C          -15.27601153381845      -14.06225624532405      -11.73819566635211
H          -15.29951855832522      -13.25940094777237      -11.00262553740673
H          -15.04691929580480      -14.99227640614388      -11.21890083118612
H          -16.25985308830171      -14.15007854231082      -12.18682925030004
N          -12.93900698841300      -13.60440093123249      -12.51889693206888
H          -12.51523314140627      -13.64296663184286      -11.60619702193764
C          -14.26872343149833      -13.78608035277797      -12.79473501848754
C          -12.30565671248217      -13.38129457576504      -13.69528385692189
H          -11.25613930965819      -13.19574987747217      -13.78463995814563
N          -13.14801664646748      -13.40816593127708      -14.69446101351482
C          -14.37488537250406      -13.66020593233354      -14.15058933056692
H          -15.25073318398072      -13.72603991367621      -14.76087389914719
C          -11.56603794518561      -10.00223058851707      -21.28935544616481
H          -12.35725160955126       -9.74133640257848      -21.99042077892505
H          -10.70903781253623      -10.35903285408473      -21.85997867286513
H          -11.27178281676991       -9.11081118528661      -20.74622427356747
N          -12.45107347398388      -12.27805962590582      -20.74077149131058
H          -12.53138248884862      -12.58721084032930      -21.69563972708926
C          -12.02064346609875      -11.04313418316607      -20.33306622277430
C          -12.75236920995335      -12.99096640752024      -19.63121496478183
H          -13.11328931982057      -13.99741768957949      -19.65070331444115
N          -12.53971044665759      -12.28868474277005      -18.54980496693824
C          -12.09002462639145      -11.07127421049676      -18.96932547303480
H          -11.84790285674437      -10.29565886420840      -18.27434121282134
87
 energy: -128.460585343965 gnorm: 0.011715278332 xtb: 6.7.1 (edcfbbe)
Fe         -12.79078727283659      -12.90621040220314      -16.63759182231902
N          -14.30833748649102      -11.65174662358889      -16.46292003908686
N          -11.53354529407824      -11.46823619363073      -16.02952857059771
N          -11.23005380720382      -14.18447264481862      -16.85973424144397
N          -14.01797251093999      -14.35889540730281      -17.22197539675065
C          -15.60781889525628      -11.91313254823470      -16.75076570654497
C          -16.44151587565959      -10.77993350034727      -16.42181928748093
C          -15.60742561720896       -9.82306345304349      -15.93162488152273
C          -14.27476893956284      -10.38708057964580      -15.96239420998774
C          -11.85069637082778      -10.20866477338353      -15.61283919471473
C          -10.66468542274315       -9.44611559734288      -15.31538077623533
C           -9.59978622321150      -10.26851355281921      -15.58356469292670
C          -10.17693894992295      -11.53096384337981      -16.01767763172958
C           -9.91409449655037      -13.85468028687977      -16.78679472163683
C           -9.07555805309629      -14.97522772878949      -17.12672789358041
C           -9.92331798114039      -16.02965155899183      -17.37559407265000
C          -11.26624953173796      -15.49224387144924      -17.21019574031657
C          -13.69855449723202      -15.66153256248618      -17.46337097325462
C          -14.86750623741137      -16.41302158287892      -17.84178020114862
C          -15.90784350086674      -15.53287936072972      -17.83414912584440
C          -15.35712692437995      -14.25880969783115      -17.43638275988150
C          -16.10048090901069      -13.10877462931133      -17.24316679176699
H          -17.15781729204744      -13.16498704198034      -17.45095699264703
C          -13.14351290188518       -9.70988623889388      -15.54924499394720
H          -13.27608719205356       -8.70266980960861      -15.18240007388302
C           -9.42117687151505      -12.62065546018179      -16.40116833338768
H           -8.34894237942871      -12.51359652066999      -16.39046038790703
C          -12.42868901984858      -16.20506719220904      -17.43158255214865
H          -12.35403354866156      -17.26007379246077      -17.64346984712671
C          -15.98342902530776       -8.46332849615748      -15.44557301833739
H          -16.02545321515678       -8.43934261428045      -14.35503310620093