78
 energy: -115.985122881167 gnorm: 0.235018020096 xtb: 6.7.1 (edcfbbe)
Fe          35.22000000000000        4.21000000000000       10.24400000000000
N           37.05400000000000        3.93300000000000        9.70800000000000
N           34.98500000000000        5.58300000000000        8.77400000000000
N           33.37200000000000        4.60300000000000       10.91700000000000
N           35.58500000000000        3.01600000000000       11.85600000000000
C           38.05400000000000        3.14500000000000       10.26800000000000
C           39.34400000000000        3.13100000000000        9.50300000000000
C           39.09700000000000        4.00100000000000        8.45800000000000
C           37.71000000000000        4.48900000000000        8.60500000000000
C           35.87299999999999        5.90600000000000        7.80100000000000
C           35.31700000000000        6.86600000000000        6.85200000000000
C           34.02900000000000        7.11900000000000        7.30800000000000
C           33.86400000000000        6.28800000000000        8.48500000000000
C           32.49800000000000        5.48400000000000       10.39900000000000
C           31.27800000000000        5.63500000000000       11.23600000000000
C           31.49300000000000        4.78800000000000       12.30000000000000
C           32.77800000000000        4.15600000000000       12.08700000000000
C           34.65500000000000        2.72800000000000       12.87100000000000
C           35.23200000000000        1.82800000000000       13.81400000000000
C           36.50500000000000        1.63700000000000       13.42000000000000
C           36.70800000000000        2.32800000000000       12.17900000000000
C           37.87300000000000        2.35500000000000       11.43500000000000
H           38.70400000000000        1.73200000000000       11.76400000000000
C           37.16100000000000        5.40100000000000        7.75600000000000
H           37.80300000000000        5.77200000000000        6.95700000000000
C           32.70200000000000        6.24900000000000        9.24200000000000
H           31.87200000000000        6.87000000000000        8.90600000000000
C           33.37400000000000        3.24400000000000       12.96700000000000
H           32.77000000000000        2.90800000000000       13.81000000000000
C           40.00100000000000        4.33300000000000        7.31500000000000
H           40.94899999999999        3.76200000000000        7.41400000000000
H           40.23200000000000        5.42000000000000        7.32300000000000
H           39.51200000000000        4.05500000000000        6.35700000000000
C           40.56999999999999        2.24200000000000        9.75700000000000
H           40.39500000000000        1.23500000000000        9.32100000000000
H           40.73800000000000        2.13700000000000       10.85000000000000
H           41.46500000000000        2.69100000000000        9.27700000000000
C           36.01000000000000        7.34200000000000        5.56100000000000
H           36.51700000000000        6.48200000000000        5.07300000000000
H           36.76900000000000        8.11600000000000        5.80600000000000
H           35.25400000000000        7.75900000000000        4.86100000000000
C           33.01100000000000        7.97500000000000        6.72500000000000
H           31.97000000000000        7.62400000000000        6.67600000000000
C           33.29300000000000        9.26300000000000        6.20600000000000
H           34.31800000000000        9.66300000000000        6.23000000000000
H           32.49100000000000        9.87800000000000        5.77300000000000
C           30.11799999999999        6.61300000000000       10.94700000000000
H           29.91200000000000        6.63100000000000        9.85600000000000
H           30.39800000000000        7.63600000000000       11.27800000000000
H           29.20300000000000        6.27800000000000       11.48100000000000
C           30.77200000000000        4.58900000000000       13.52600000000000
H           31.16300000000000        3.82300000000000       14.20900000000000
C           29.63000000000000        5.24000000000000       13.97800000000000
H           29.15700000000000        6.02500000000000       13.37000000000000
H           29.18500000000000        4.97800000000000       14.94900000000000
C           34.51200000000000        1.21800000000000       15.00600000000000
H           33.54900000000000        0.77700000000000       14.67200000000000
H           34.30499999999999        2.00500000000000       15.76200000000000
H           35.13900000000000        0.41700000000000       15.45300000000000
C           37.61099999999999        0.93500000000000       14.13900000000000
H           37.72600000000000       -0.09200000000000       13.73100000000000
H           37.37100000000000        0.86700000000000       15.22200000000000
H           38.56300000000000        1.48900000000000       13.99500000000000
O           35.79399999999999        5.80100000000000       11.66300000000000
H           34.97600000000000        6.20800000000000       11.94900000000000
H           36.61300000000000        6.02800000000000       11.92400000000000
C           32.35400000000000        0.03200000000000        7.55700000000000
H           32.56400000000000       -0.95300000000000        8.02600000000000
H           32.35800000000000       -0.08700000000000        6.45200000000000
H           31.35800000000000        0.38800000000000        7.89700000000000
N           34.74000000000000        0.81700000000000        7.67800000000000
H           35.09100000000000        0.08500000000000        7.09400000000000
C           33.40500000000000        1.01200000000000        7.96300000000000
C           35.46700000000000        1.73500000000000        8.28900000000000
H           36.55300000000000        1.80500000000000        8.23300000000000
N           34.65100000000000        2.52500000000000        8.95800000000000
C           33.35200000000000        2.10000000000000        8.76500000000000
H           32.51500000000000        2.61600000000000        9.21900000000000
78
 energy: -116.031182380522 gnorm: 0.086048732117 xtb: 6.7.1 (edcfbbe)
Fe          35.23888777138006        4.21305981944491       10.24757391339798
N           37.09977617290942        3.93156549040492        9.70834969799293
N           34.97425092354044        5.57566591952090        8.75811685910876
N           33.36497303817371        4.61130856553901       10.92309043948087
N           35.55970530680370        3.00488190477935       11.84835746796053
C           38.05485144454255        3.11879287533962       10.27090985720907
C           39.31121311819139        3.12414769332530        9.50073160397738
C           39.08578807563362        3.98548876823301        8.46385293687675
C           37.72313543116851        4.48763086297144        8.60719905846031
C           35.87279751000059        5.90630905085364        7.79431948326866
C           35.31387795824256        6.85904829291868        6.85336996172774
C           34.03239268534251        7.11804453180923        7.29717797226760
C           33.84995602036035        6.28485804464377        8.47823125856265
C           32.48498769765516        5.49678402979118       10.39433040611786
C           31.29078423608642        5.64049733907375       11.23320558311010
C           31.49680786230864        4.80182003986677       12.30857079621083
C           32.78171607420477        4.15664332160848       12.08351765936418
C           34.64604410366026        2.71727632170360       12.84603384711938
C           35.23149397963878        1.82879121174817       13.81226934318444
C           36.51621518022398        1.63491612943494       13.41997781369603
C           36.69947430859654        2.34302997338218       12.17738996885799
C           37.86703302750352        2.36158007973737       11.42795253242904
H           38.69465914081302        1.74588252915211       11.76095633896560
C           37.16625924636179        5.40242021568200        7.74460178928727
H           37.80205011288911        5.77177513501748        6.94891918310240
C           32.69065589870852        6.24992111002604        9.23841646634556
H           31.87289137419559        6.87734643919115        8.91058764775341
C           33.37141003054416        3.24003306280031       12.94698419387371
H           32.78566616488737        2.91264769601682       13.79862104186848
C           39.99409817988827        4.32982028594646        7.32753161476392
H           40.93385665194923        3.77407998063472        7.40978004954096
H           40.22758998881922        5.40171571618927        7.31761220334496
H           39.52496612788352        4.06734832091037        6.37137748360303
C           40.53280306867419        2.26385786474524        9.75802509600821
H           40.38844567452026        1.26108136610473        9.33293536643848
H           40.72768033080487        2.14754376955383       10.82928428100018
H           41.42878325978404        2.69163077151055        9.29241565782517
C           35.99803848427770        7.33331979517738        5.58852349464077
H           36.50479952530305        6.49693316701021        5.09188433662799
H           36.75027115482710        8.10120762428410        5.80743068341583
H           35.26488600560558        7.75214889818155        4.89002984702885
C           33.03160840341815        7.99664997441961        6.71698883756149
H           31.99979105281376        7.64365337604454        6.68737189121986
C           33.29307021595132        9.22403139807703        6.21353866586301
H           34.29310283429356        9.64079794067417        6.23961313032993
H           32.50851236293166        9.84246111099402        5.78887818614016
C           30.14521488027089        6.59004969548447       10.94345631648575
H           29.92487283106166        6.62587604371071        9.87160464268808
H           30.39737693630215        7.60663071237624       11.27238179918012
H           29.23244715652553        6.27647723298509       11.45810646359755
C           30.74860627877386        4.59440922506782       13.52475424444648
H           31.14729836609041        3.83886232193979       14.19951873924459
C           29.64538147773130        5.23014900887252       13.96405025001217
H           29.16993876050801        6.01499130070518       13.39288765608938
H           29.20364402248111        4.97971415606265       14.92190274590939
C           34.51892269026881        1.22906572709936       14.99489712059828
H           33.56738932015282        0.78671654586792       14.67798702727322
H           34.30745670976013        1.99212137484042       15.75285091789493
H           35.12695399042065        0.43872137481719       15.44669799650558
C           37.61221614205298        0.92379635190691       14.13804452668046
H           37.73802081268371       -0.09059989634921       13.74178026806469
H           37.38495495379237        0.85940234644749       15.20685008833500
H           38.55212385482908        1.46964814000338       14.00817493562781
O           35.78200823386035        5.81445449720640       11.64233590697163
H           34.98245544215248        6.22539543201201       11.96811116784208
H           36.63901742258227        6.05122276401329       11.94697040584843
C           32.35672636394226        0.03315416434041        7.55221118406539
H           32.55311060517053       -0.94263670242259        8.01251315138352
H           32.34812827848626       -0.09084979682428        6.46366372828455
H           31.37617864787795        0.38247474742027        7.88485198309746
N           34.73206724680867        0.80475248466135        7.67752676694027
H           35.08834943540885        0.07084594032774        7.08962849752066
C           33.40610966383478        1.00105689881170        7.97094159908070
C           35.45192687361354        1.75007599613235        8.29695527076625
H           36.52595934525772        1.81905276171180        8.24162910280039
N           34.65348397552469        2.55298623797612        8.96640828953526
C           33.37154712060004        2.10176290541830        8.77344292178226
H           32.53805494486145        2.61277219290321        9.21802833851732
78
 energy: -116.043012256677 gnorm: 0.029835503246 xtb: 6.7.1 (edcfbbe)
Fe          35.24304770760965        4.21129820697218       10.25098031997015
N           37.12994156801296        3.93421901590276        9.70173122867610
N           34.96626425144542        5.56070996406574        8.74719178864574
N           33.35477933311871        4.61734868668816       10.92513964358715
N           35.54054235363396        2.99321346091609       11.83447053977471
C           38.05477498241684        3.10700470103010       10.26725898453088
C           39.28550775695222        3.11504986610373        9.49489655485805
C           39.07772275417075        3.97568905903367        8.46315904462839
C           37.73135756806831        4.48680572520943        8.60720777251916
C           35.87156106341944        5.89367252472988        7.78986158655530
C           35.31206671805010        6.84535683189215        6.85820407884992
C           34.03652326601257        7.10222650826352        7.29213636865395
C           33.84054712551551        6.27163661753250        8.47384374638999
C           32.47446718665750        5.50944304227827       10.39136857558024
C           31.30227775103080        5.64285833694881       11.22903620049287
C           31.50296949354674        4.81125981216569       12.30972358516764
C           32.78654013273227        4.16071699821184       12.07720786674519
C           34.64098010266154        2.70441927202772       12.81619552682581
C           35.23295025551727        1.82691504117310       13.80159646327743
C           36.52484618521492        1.63550267626966       13.41385892044826
C           36.69125316840164        2.35175045058045       12.16809357444860
C           37.86000664006087        2.36926261071924       11.41923237051237
H           38.68548378720564        1.76274340746377       11.76329246850006
C           37.16698666793262        5.39749052832041        7.73357752197133
H           37.79716513123829        5.76489807234906        6.93759207307555
C           32.68334619045176        6.25007761114220        9.23434586737982
H           31.87696349626751        6.89080201696936        8.91278798400222
C           33.36988297844747        3.23592411370279       12.92702364715321
H           32.79826311406362        2.91601276804707       13.78664926800672
C           39.99207414587613        4.32676295233146        7.33588123421493
H           40.92718272471625        3.77916757842809        7.41382135995518
H           40.21816666533019        5.39234342646316        7.32655213603703
H           39.52939701181165        4.07429393200440        6.38191364618332
C           40.49820098360129        2.27752982081031        9.76024914255585
H           40.36698291906243        1.27625804306390        9.34308024000118
H           40.69586621252929        2.17060633145736       10.82394266994199
H           41.38465250927348        2.71071712437670        9.29933659770828
C           35.98724421491761        7.32691683868821        5.61629710678452
H           36.49379950212690        6.50153451010925        5.11656375104540
H           36.73347664959419        8.09205134120984        5.83128586421991
H           35.25956477647184        7.74864737544341        4.92597222433539
C           33.04652523196534        7.99839873946643        6.71832380232326
H           32.02201254982394        7.63845665679547        6.70907936992994
C           33.29887722461088        9.19651491141617        6.22671383832960
H           34.28698142291952        9.62244252680485        6.23950650253859
H           32.52580916643823        9.81372351146812        5.79842279490919
C           30.16826233400253        6.56896874413698       10.93926417627255
H           29.95456779382551        6.61072184223827        9.87353682654370
H           30.40672626242677        7.58134029447480       11.27201171634969
H           29.26043459256909        6.25337799379813       11.44337044865683
C           30.74004661917271        4.60086337400123       13.52024563240568
H           31.13932525166498        3.83649759865563       14.17635480519773
C           29.65784913125975        5.23483188338002       13.95311789170272
H           29.17385255266643        6.02114649575092       13.40717688379901
H           29.20843004898082        4.97735714795018       14.89696650604561
C           34.52586196896610        1.24176327728647       14.98096146731029
H           33.57928484006379        0.79893357404942       14.67386253880641
H           34.31365329048484        1.99711380678090       15.73703352881253
H           35.12813970462992        0.46080819792485       15.43770030140609
C           37.61342408772348        0.91440139098955       14.13346736553765
H           37.74513356358833       -0.09386039529645       13.74330285826087
H           37.38873414121803        0.84680672630450       15.19429200838105
H           38.55181035014120        1.45105225317219       14.01775290958957
O           35.78906426153498        5.87213714215425       11.58034364233198
H           35.01086459763543        6.24513155229113       12.01782003200518
H           36.64514049415792        6.05799120213513       11.98481837019253
C           32.35742665667578        0.03892745799067        7.55246181888089
H           32.54116020039590       -0.93709108667847        8.00158366782336
H           32.34793602760774       -0.08169687129276        6.47125867870195
H           31.38384843713474        0.38782208500331        7.87620709577089
N           34.73061163619627        0.79800912822032        7.68716960072267
H           35.09193596583291        0.06421015285715        7.09841628922102
C           33.40891122178233        0.99463136572817        7.98649910562466
C           35.44219234808627        1.76651966085455        8.30420038732183
H           36.50806610324081        1.84030164011908        8.24534681219521
N           34.65469598272511        2.57043104429062        8.97675805735937
C           33.38552537832613        2.10460431921224        8.78481269631254
H           32.55125151435698        2.60827345447035        9.22528002821748
78
 energy: -116.044644105680 gnorm: 0.061674073387 xtb: 6.7.1 (edcfbbe)
Fe          35.24197230438412        4.21791026197402       10.25443621121975
N           37.13579271223314        3.93871008414667        9.69386530900864
N           34.95934372569875        5.53831884843888        8.73854673020652
N           33.35405495880035        4.61965332422820       10.92569807587257
N           35.53675041027994        2.99429635972597       11.82370192920634
C           38.05076146438833        3.10448249430573       10.25773423708215
C           39.27343427478571        3.10862949209728        9.48624584104363
C           39.07330098864463        3.96960937807565        8.45404746619417
C           37.73110516955214        4.48252319666090        8.59975048965976
C           35.86684114078260        5.87381670435798        7.78537547148446
C           35.30805068434893        6.82976602075165        6.86203007747793
C           34.03562571061266        7.08299503272259        7.29362441116227
C           33.83579701408235        6.25270660279244        8.47096701099242
C           32.47366123871677        5.51245987882221       10.39065167807263
C           31.31082259649310        5.64282288650425       11.22829439881816
C           31.50772866294938        4.81221600692083       12.30807910516732
C           32.79025236351521        4.16154619993070       12.07257473135675
C           34.63967066160041        2.69704760403878       12.79686580521931
C           35.23465958025061        1.82399156330642       13.78765740080331
C           36.52810849621044        1.63584132775597       13.40349691455975
C           36.68902206528572        2.35638827082134       12.15850246708980
C           37.85662551031075        2.37478384615145       11.41337487041205
H           38.68175641737638        1.77456083190799       11.76650426758223
C           37.16260038456960        5.38730462869442        7.72153554300438
H           37.78839606840926        5.75363423201572        6.92202377817159
C           32.68152126281232        6.24585107781145        9.23161612684948
H           31.88372009882921        6.90123780607138        8.91548423978331
C           33.36922130815430        3.22925761914136       12.91509368540321
H           32.80435758090164        2.91051774063450       13.77766538748980
C           39.99381543532858        4.32626742868439        7.33600803713709
H           40.92977152455825        3.78261877570911        7.41687149240132
H           40.21261083296378        5.39246662875015        7.33556140627687
H           39.53681378800617        4.07846083487108        6.37897706937220
C           40.48147997741143        2.28232529256358        9.76524517005875
H           40.35586190388894        1.27748279185904        9.35814172430632
H           40.66921839907150        2.19149561238803       10.83114876275756
H           41.36212981244815        2.72262762471275        9.30429222336247
C           35.98311644520939        7.32568160983684        5.63302419715384
H           36.49236637136309        6.50675618733172        5.12708221098603
H           36.72502297994178        8.09009544499926        5.86088897111264
H           35.25282971482895        7.75369614340334        4.95093723594579
C           33.04849763183889        7.98230276032077        6.72553526436694
H           32.02553788760894        7.62196444672249        6.73414462151202
C           33.30659060227006        9.17927541476648        6.22054012185976
H           34.29287166457866        9.60850281386689        6.23534531493880
H           32.53203729040948        9.80233528375708        5.80632131230364
C           30.17622678070907        6.55557383041760       10.92970311204183
H           29.98150962671298        6.60065254380698        9.86106147647122
H           30.40251021690935        7.56690565566454       11.27285405886589
H           29.26670208269138        6.22495620982574       11.41845838042286
C           30.73445595918165        4.59583248743454       13.51022743597895
H           31.12775397360710        3.82038123146795       14.15496679045399
C           29.65634302650074        5.23824124985106       13.94582102302604
H           29.18724612966176        6.05206779812856       13.42577903672744
H           29.20417549543703        4.97331866688402       14.88584175466790
C           34.52965207782401        1.25242063270708       14.97039557645179
H           33.58267050052767        0.80830560955426       14.66883187324111
H           34.31948112014071        2.01467293689496       15.71978944390175
H           35.13308340350857        0.47729500954933       15.43404901941064
C           37.61213230940201        0.90546933111547       14.12324020313457
H           37.74523570162498       -0.10127294649972       13.72982848542611
H           37.38272502832364        0.83001041807946       15.18236531972120
H           38.55546086754804        1.43635346699831       14.02093961115595
O           35.80883384038091        5.96909707514027       11.49484897936343
H           35.04432131730834        6.23978930026229       12.08742130572340
H           36.64795712357187        6.04537341354269       12.03928365610411
C           32.35787217695830        0.04953118163587        7.55637239011431
H           32.52846533635539       -0.93383781652541        7.99446001372648
H           32.35501935540965       -0.06010852123843        6.47400901254329
H           31.38405125350844        0.40242647210518        7.87347839747120
N           34.73343038811119        0.80165565926393        7.70479813159966
H           35.09793014890352        0.06886463397301        7.11633952706619
C           33.41176004546966        0.99523100794530        8.00757896052108
C           35.44001249824743        1.78080455890863        8.31678092404366
H           36.50365545626047        1.86389188022743        8.25059732760586
N           34.65338747990361        2.58161777231638        8.99096290839446
C           33.38885716955551        2.10645201773614        8.80531890511691
H           32.55155499303947        2.60379281747640        9.24608816326081
78
 energy: -116.047405117673 gnorm: 0.021448286405 xtb: 6.7.1 (edcfbbe)
Fe          35.23967220715264        4.22443708294515       10.25878404753131
N           37.13485560755784        3.94327506486689        9.68743101198474
N           34.95428934462696        5.51663316530938        8.73469966039082
N           33.35668121884154        4.62019740058498       10.92667265551184
N           35.53729849469185        2.99767211879968       11.81563756291725
C           38.04639460986640        3.10501367468667       10.24878451158579
C           39.26605137880841        3.10340035921314        9.47831367710605
C           39.07030070686804        3.96511075208240        8.44451593674632
C           37.72933766178013        4.47876834924985        8.59255369785559
C           35.86233814017759        5.85502316411704        7.78423884095585
C           35.30484596406778        6.81635178515176        6.86769575287355
C           34.03430509570904        7.06635614436617        7.29903925117953
C           33.83355404737296        6.23430415242027        8.47072586532479
C           32.47630248929924        5.51258432302994       10.39185813566216
C           31.31777656772448        5.64140382244419       11.22906884845473
C           31.51207459670134        4.81062423914205       12.30679776000954
C           32.79341276541597        4.16066388654456       12.06964604775989
C           34.63926091451579        2.69080683932782       12.78319932439944
C           35.23580246840012        1.81877134554694       13.77393930458746
C           36.52928883500366        1.63402372540471       13.39279481972417
C           36.68865581765113        2.35815237852169       12.15005418716280
C           37.85469555661656        2.37847865735433       11.40897707966532
H           38.67972690653165        1.78244175277758       11.76854915876856
C           37.15787320651673        5.37767987603809        7.71208241655666
H           37.77949109139145        5.74324929503024        6.90823642122914
C           32.68197857028277        6.24126405791386        9.23109765482768
H           31.89128050898312        6.90952587034453        8.91911433526868
C           33.36866121888622        3.22176348032214       12.90742241772623
H           32.80720842680390        2.90151844400833       13.77039621611122
C           39.99617989095661        4.32675809101855        7.33481143167283
H           40.93417952959336        3.78556336716046        7.42006515836829
H           40.20873045026531        5.39511308297077        7.34471911455584
H           39.54451780901621        4.08242311027631        6.37346186457763
C           40.47102521175073        2.28385290596643        9.77056026370996
H           40.34826487436384        1.27453537573669        9.37346355568351
H           40.64690903610514        2.20952443798385       10.84080813026224
H           41.34763923942339        2.73028469113153        9.30838298730617
C           35.98167904160436        7.32707567269928        5.64748463165546
H           36.49413377088283        6.51330879148166        5.13490213414738
H           36.71995972179660        8.09132845804798        5.89122067890612
H           35.24736840755064        7.76163354949036        4.97268929195079
C           33.04828493667220        7.96628608233451        6.73725140208511
H           32.02536111937987        7.60849415692133        6.75832143613598
C           33.31362293754914        9.16761631629062        6.22043962585257
H           34.30279646833804        9.59250513715371        6.23037802744910
H           32.53662657060090        9.79204867707829        5.81198060060739
C           30.17937232738053        6.54475977332031       10.92178786118799
H           30.00467241591272        6.59264449448013        9.84843754047026
H           30.39474313166287        7.55566383002041       11.27602150177404
H           29.26774857439352        6.19650424341035       11.39682325141681
C           30.73175034302295        4.59029121404404       13.50123011043732
H           31.11200528313789        3.79879912874386       14.13474511749545
C           29.65627367302601        5.24530388166152       13.94124025258729
H           29.20169717054428        6.08115623663268       13.43772805144807
H           29.19656466741786        4.96742986989712       14.87562950862152
C           34.53142336578311        1.25925697435185       14.96116382202084
H           33.58279278777325        0.81402579345740       14.66361441671383
H           34.32391400568626        2.03165283666039       15.70296952741781
H           35.13721407412643        0.48863880110026       15.43178146322828
C           37.60984684134310        0.89529713288512       14.11175870446375
H           37.74299459535892       -0.11069475076359       13.71210868880886
H           37.37416540973571        0.81068814087899       15.17063174994267
H           38.55888637790505        1.42199728250233       14.02164174352539
O           35.81853870582851        5.94837676691159       11.55205216243226
H           35.08361829897139        6.30205120277268       12.04625140066182
H           36.64656632929854        6.08892016442887       12.02254104813798
C           32.35804124117480        0.06176178123292        7.55967102359706