72
 energy: -105.980166351495 gnorm: 0.000092655821 xtb: 6.7.1 (edcfbbe)
Fe         -18.68996537701865        9.00431076030443       81.21103735538878
N          -18.91547686312398       10.66948519377396       80.14195367282728
N          -20.05959951999672        8.08320965585412       80.08297814392732
N          -18.52800403508562        7.35559377262435       82.35595891090398
N          -17.35226956994023        9.93304475045354       82.37643936630855
C          -18.22519855962507       11.82940112870648       80.28131332628256
C          -18.67957411078792       12.81434355380669       79.32292822824920
C          -19.67578283285006       12.22313169483728       78.61261768555185
C          -19.80419466610363       10.87996712084104       79.13581877744649
C          -20.79050304934958        8.63687694547625       79.07887775592884
C          -21.67121733592102        7.66184443087539       78.49149226624058
C          -21.43538990447663        6.48307728515717       79.14519528235888
C          -20.44623855628735        6.78226710308121       80.16172874508528
C          -19.16916605810202        6.16688921853068       82.16767889680125
C          -18.81748089438528        5.22868880653624       83.20031962699973
C          -17.93777135613479        5.87726005527697       84.02726819685920
C          -17.75993084373382        7.20012144785305       83.46566779846255
C          -16.71561499240161        9.42018821338086       83.46325307255553
C          -15.77125190313297       10.37553244333655       83.99882073116270
C          -15.84079940266972       11.47152050576726       83.19710339318193
C          -16.83821402611893       11.17755738053091       82.19255010294124
C          -17.23391880024474       12.06798657738122       81.21411110981704
H          -16.74973086240659       13.03176350990390       81.19225423846811
C          -20.69140713270356        9.94643937956378       78.64159084536449
H          -21.34790098521222       10.25366349011827       77.84242981638653
C          -20.05276499073863        5.88982152548177       81.13969623294031
H          -20.50618993941646        4.91172470663814       81.12302544164774
C          -16.92197082973819        8.16303919330775       83.99678231529977
H          -16.36526206818972        7.90525207386552       84.88384120968446
C          -20.50560817616551       12.77545223758558       77.50562276340182
H          -20.23792519419545       13.80888480359003       77.30047850077005
H          -21.56291538491864       12.74039199043166       77.76786540927526
H          -20.36387117823379       12.19636965863156       76.59256286273359
C          -18.12256830334983       14.19101902453610       79.20565273317980
H          -17.05227308520116       14.15574483957631       79.00135656515481
H          -18.27169564205324       14.74432473879991       80.13303620438434
H          -18.60724660655869       14.73660807100063       78.39990457696594
C          -22.59680359772592        7.92207105002096       77.35458442463239
H          -22.03889014002782        8.18426555197516       76.45463494591641
H          -23.26642315000622        8.74962178734139       77.58883421747775
H          -23.19407315485652        7.03991160093024       77.13863111087949
C          -22.04637112537524        5.19789958984297       78.87356747305127
H          -23.09707264452749        5.23143532582319       78.60698612100568
C          -21.42021657243101        4.02686959976346       78.88501852436529
H          -21.93811643067096        3.10836801253382       78.66473688987200
H          -20.36591097680605        3.94297958246386       79.08942465119986
C          -19.28988516334942        3.81937212857825       83.27266164921208
H          -19.35236086629392        3.38154323030546       82.27770101925350
H          -20.28059434477728        3.76365591886058       83.72678008884297
H          -18.60268394277047        3.22647969495620       83.87263309050559
C          -17.26501125834698        5.38692144981923       85.21028821661207
H          -16.26370006095274        5.76839670005544       85.37155521742541
C          -17.78012868831826        4.53345335527234       86.08874993028199
H          -18.78545773632413        4.15930912961527       86.00302537137374
H          -17.21756470395157        4.19786041640195       86.94392402197681
C          -14.91435137018630       10.12967537024752       85.19218003790088
H          -14.25192485818103        9.28166908220692       85.01771273586462
H          -15.52667747908458        9.90658093879408       86.06625343593848
H          -14.30371704559558       11.00088687229836       85.41528844251486
C          -15.08426256505126       12.75204751252890       83.27835038124881
H          -14.38354542266291       12.73502424181426       84.10923713003096
H          -15.76510306252525       13.59178254212559       83.42018069010182
H          -14.52344234433843       12.92264658471405       82.35946810955862
C          -17.29785875018183        8.68237296233885       78.13054830629503
H          -16.69400639920115        8.08038552675082       77.45845913993892
H          -17.01676584295623        9.72746034980460       78.05296358917714
H          -18.35599540826852        8.57011144099854       77.91999300388022
S          -16.95916417951924        8.17880647115992       79.85400600626852
H          -17.42295487328260        6.93222292207738       79.70864799552145
O          -20.26419117418764        9.66776727409280       82.66738196651276
H          -20.47728252604772        8.83135963303336       83.09706956166963
H          -19.73259910462512       10.17798886302497       83.28931034275958
