78
 energy: -116.058100083728 gnorm: 0.000082432962 xtb: 6.7.1 (edcfbbe)
Fe          38.74689441400686       38.99934636253946       56.12965898837201
N           37.50644388135937       40.07811162188053       57.25555162960186
N           40.30872348384452       39.69494674219100       57.15570058889850
N           39.98879196916586       37.93298887393522       54.95441265763208
N           37.18465699654985       38.35143835042854       55.03955545381554
C           36.15210670193065       40.12682763097632       57.17068386092100
C           35.60550675893590       41.00236455168002       58.18548574658287
C           36.66660609809649       41.48392862884053       58.88476999537311
C           37.84594336773826       40.89332526484967       58.28854625900856
C           40.27689019746100       40.57786750658984       58.18932400814932
C           41.60496411238525       40.84088426875739       58.68314718055312
C           42.45422263383240       40.08122396427281       57.92391270028885
C           41.61583241353848       39.37861531926625       56.97020485000207
C           41.33850879255618       37.81500437181354       55.09715778814589
C           41.88175937826953       36.92173809572371       54.10811611272450
C           40.82299344653737       36.49711613334584       53.34784399909575
C           39.64820419070620       37.13277580027740       53.90970671521788
C           37.22271680663174       37.51438788814286       53.96643244654834
C           35.88948437104371       37.26288748883864       53.46744906549074
C           35.04259790400049       37.95675713176254       54.27519641932027
C           35.87003815931072       38.62908051897890       55.25103029987765
C           35.37796517808481       39.45222550880293       56.24556781920539
H           34.30816626518194       39.58385551192680       56.29872454658921
C           39.13122499020155       41.13820933842816       58.72810191848821
H           39.25112393588625       41.81607374035852       59.55963943070530
C           42.10257347702652       38.48798299725531       56.03409904604270
H           43.16669501174832       38.30889771755950       56.02385011214621
C           38.36470924782454       36.95360859996970       53.42462731135579
H           38.23965052833142       36.30762997693535       52.56923054858491
C           36.69020405809913       42.43185300567399       60.03469199821854
H           35.68213562088835       42.73370482490086       60.30804107683554
H           37.25842352973989       43.32655436442944       59.77977532508888
H           37.15824818469574       41.97110574617383       60.90518752419086
C           34.15190095579703       41.27833028025088       58.36423296512705
H           33.60632901216940       40.35387007653843       58.55515381691798
H           33.73621711803766       41.73672935836920       57.46666798460131
H           33.98598365851517       41.95309409434569       59.20045094913753
C           41.94262608958260       41.81396811992376       59.75849198892800
H           41.79904729942075       41.37196533578944       60.74622830020618
H           41.31013796507666       42.69750977478372       59.68895614317248
H           42.98225900390694       42.12218162522312       59.66896899118816
C           43.89561932414192       39.98339624394163       57.98482132704016
H           44.39472860356847       39.82540409543561       57.03577768391020
C           44.62898755365572       40.06450448249207       59.09047228188536
H           44.18662167819907       40.17419199095665       60.06525944914729
H           45.70392680886037       39.99788376207139       59.05963437676056
C           43.31092770643993       36.51611514024479       54.01229421926025
H           43.74534017614084       36.40164170585061       55.00425146650481
H           43.89373841228182       37.26468738088396       53.47267880824985
H           43.39541011189380       35.56909771909393       53.48300887770020
C           40.80960401882681       35.58273776955419       52.22765145597997
H           39.92235345312088       34.96673309559087       52.13562862037660
C           41.77600780430620       35.45583163050516       51.32399440100818
H           42.65719654018689       36.07310770010093       51.33649299005589
H           41.70510368841427       34.74209190408271       50.52002702005579
C           35.57983059940086       36.39609364195252       52.29523373899438
H           35.90260843596006       35.37092979387090       52.47976811168738
H           36.09415185202553       36.75630549923738       51.40389668664187
H           34.51160676472358       36.38630638264745       52.09333441967866
C           33.55660725756096       38.05490267698296       54.22316409884396
H           33.15768698368792       37.46261251907440       53.40330471342019
H           33.24517520821286       39.09022129875905       54.08207400024296
H           33.11682562070281       37.69395892049265       55.15310318498178
O           38.93915934235611       40.67908389828222       54.57699080906404
H           39.65614418746451       40.32676981532194       54.03847715432448
H           38.12219650325090       40.54216678175575       54.08499411947680
C           38.10560762539242       33.93242198603026       58.36339843415301
H           37.21222000744303       33.74400324835698       58.95872787266090
H           38.95827401663996       33.49104762193902       58.87919022766546
H           37.99126899828637       33.44494198805665       57.40036664644717
N           38.48916550495041       36.25946001988217       59.20524258488567
H           38.50475315945718       36.01227944942864       60.18109354979146
C           38.30804705434141       35.38947012575465       58.16216262883237
C           38.64414450224474       37.49755631783545       58.68442175159667
H           38.80338273519831       38.38032345793744       59.26907589791828
N           38.57187924489541       37.46411523324738       57.37577697696630
C           38.36273960228355       36.15990457287571       57.03627549785949
H           38.26645170533690       35.86473361669284       56.01235935359256
