78
 energy: -115.569036532998 gnorm: 0.361760658049 xtb: 6.7.1 (edcfbbe)
Fe          28.18900000000000       93.94100000000000       53.02100000000000
N           29.23100000000000       95.60700000000000       52.39300000000000
N           29.26800000000000       93.89100000000001       54.78199999999999
N           27.14800000000000       92.27900000000000       53.68500000000000
N           27.05900000000000       94.01200000000000       51.28000000000000
C           28.98200000000000       96.34099999999998       51.30000000000000
C           29.74299999999999       97.49400000000000       51.28899999999999
C           30.44200000000000       97.48399999999999       52.48199999999999
C           30.07500000000000       96.31999999999999       53.12800000000000
C           30.18500000000000       94.79200000000000       55.15100000000000
C           30.81100000000000       94.45099999999999       56.33900000000000
C           30.29200000000000       93.17799999999998       56.66199999999999
C           29.32400000000000       92.89899999999999       55.68700000000000
C           27.45300000000000       91.50500000000000       54.73699999999999
C           26.56400000000000       90.43899999999999       54.85000000000000
C           25.65200000000000       90.61099999999999       53.76599999999999
C           26.14000000000000       91.69000000000000       53.03100000000000
C           26.11800000000000       93.12300000000000       50.92500000000000
C           25.71900000000000       93.33199999999998       49.60800000000000
C           26.40600000000000       94.45799999999998       49.18600000000000
C           27.19500000000000       94.85599999999999       50.27000000000000
C           28.04900000000000       95.96899999999998       50.30900000000000
H           27.98200000000000       96.64000000000000       49.45399999999999
C           30.51400000000000       95.92400000000001       54.39700000000000
H           31.22200000000000       96.60200000000000       54.87100000000000
C           28.49400000000000       91.77300000000000       55.63500000000000
H           28.68100000000000       91.00800000000000       56.38800000000000
C           25.67100000000000       92.09600000000000       51.77000000000000
H           24.82700000000000       91.52300000000000       51.38800000000000
C           31.38700000000000       98.55100000000000       52.98199999999999
H           30.92800000000000       99.07800000000000       53.84499999999999
H           31.58400000000000       99.28699999999999       52.17300000000000
H           32.34000000000000       98.08400000000000       53.31099999999999
C           29.75100000000000       98.58700000000000       50.22800000000000
H           28.74800000000000       98.65100000000000       49.75399999999999
H           30.50400000000000       98.34699999999998       49.44800000000000
H           29.99000000000000       99.56499999999998       50.69800000000000
C           31.86400000000000       95.32599999999999       57.02099999999999
H           31.48400000000000       96.36700000000000       57.10500000000000
H           32.79600000000000       95.33100000000000       56.41700000000000
H           32.07300000000000       94.93600000000001       58.03999999999999
C           30.63300000000000       92.28400000000001       57.68500000000000
H           30.00800000000000       91.38699999999999       57.79099999999999
C           31.72800000000000       92.38800000000001       58.64600000000000
H           32.41100000000000       93.25000000000000       58.62299999999999
H           31.88200000000000       91.60599999999999       59.40400000000000
C           26.52400000000000       89.49200000000000       56.06400000000000
H           26.48600000000000       90.09000000000000       57.00000000000000
H           27.43800000000000       88.86000000000000       56.07700000000000
H           25.61900000000000       88.84999999999998       56.00900000000000
C           24.48500000000000       89.91200000000001       53.38100000000000
H           23.86800000000000       90.37800000000000       52.60100000000000
C           23.97200000000000       88.63599999999998       53.88000000000000
H           24.51300000000000       88.08400000000000       54.66300000000000
H           23.03900000000000       88.21400000000000       53.47800000000000
C           24.74900000000000       92.50600000000000       48.76499999999999
H           23.70400000000000       92.77600000000000       49.02999999999999
H           24.90400000000000       91.42399999999999       48.96600000000000
H           24.91300000000000       92.71899999999999       47.68699999999999
C           26.31600000000000       95.09900000000000       47.81500000000000
H           25.30400000000000       94.92500000000000       47.39000000000000
H           27.07300000000000       94.64699999999999       47.13900000000000
H           26.48800000000000       96.19300000000000       47.90000000000000
O           26.86900000000000       95.16400000000000       53.84399999999999
H           27.08900000000000       96.04100000000000       53.52799999999999
H           26.20400000000000       94.95500000000000       54.39500000000000
C           30.75800000000000       90.28700000000001       49.74500000000000
H           30.89700000000000       89.27300000000000       50.17799999999999
H           31.68900000000000       90.58400000000000       49.21700000000000
H           29.90800000000000       90.25999999999999       49.02999999999999
N           31.18000000000000       91.61600000000000       51.91100000000000
H           32.06900000000000       91.21899999999999       52.14000000000000
C           30.46000000000000       91.27900000000000       50.86000000000000
C           30.55400000000000       92.53500000000000       52.59000000000000
H           30.93200000000000       92.99800000000000       53.49999999999999
N           29.41800000000000       92.78700000000001       51.98600000000000
C           29.31500000000000       92.04400000000000       50.92999999999999
H           28.44500000000000       92.09300000000000       50.28699999999999
78
 energy: -115.648567769117 gnorm: 0.150381311614 xtb: 6.7.1 (edcfbbe)
Fe          28.18568948092449       93.93415617414408       53.01207557382562
N           29.19853305284698       95.59864870215539       52.40321090374325
N           29.25931799041057       93.88947985860354       54.76314805459013
N           27.17095834766140       92.28500105143466       53.66385384794833
N           27.05956277585392       94.01422182310188       51.30502652249132
C           28.96538913494679       96.32873381442796       51.28520308257863
C           29.74413637706946       97.51311148999972       51.28691741629181
C           30.44766780604835       97.50267122281984       52.47195116377645
C           30.07527902487971       96.31178009228468       53.14124737146312
C           30.18001594614133       94.80838094733633       55.14178854236729
C           30.82325959778040       94.44628971217536       56.34663095527490
C           30.31283011832841       93.18277507124937       56.67895222920625
C           29.31781960271664       92.89308823010607       55.68177933744805
C           27.45885625093079       91.51454244838696       54.74123759981779
C           26.54276401264031       90.43722748744899       54.85876145029052
C           25.64728436142730       90.57979957237983       53.77846233002268
C           26.13003843127464       91.70305224918805       53.02891685306557
C           26.12318853597546       93.10590317794075       50.93856415840006
C           25.71193154973895       93.33440894937857       49.59559789414454
C           26.39445171558666       94.45735693821489       49.17422884425260
C           27.21119663429274       94.86091081430610       50.27013243115355
C           28.05296409019798       95.96981527043967       50.29446577448168
H           27.98573228283849       96.63878826824522       49.44753799851608
C           30.51921644947174       95.93677003328922       54.40216332611255
H           31.22764293436003       96.60649204315679       54.86951261964235
C           28.49718936502803       91.77120185326862       55.63877120733586
H           28.67289587713868       91.01165806359893       56.38941183359847
C           25.66037092907154       92.09185660512070       51.77360003556169
H           24.83234127497551       91.51755565817297       51.37997618019639
C           31.38563092196732       98.55065917266892       52.97998763643062
H           30.93802867399535       99.07330960804940       53.83508410423269
H           31.58844523114945       99.27852452129672       52.18931804002011
H           32.32880221582087       98.09621809663513       53.30527914222365
C           29.74899636395117       98.58323176660920       50.23327474277809
H           28.76391893818462       98.65394105891110       49.75892085887374
H           30.49259202870662       98.35374587070376       49.46005998495900
H           29.98749375817584       99.55123194413710       50.68542728378227
C           31.85369806541371       95.31551159459653       57.01905908833853
H           31.48735241050857       96.34695594155684       57.10157413732050
H           32.78100444442982       95.32750675732245       56.43117817785282
H           32.06934962775129       94.95209658844749       58.02522627178029
C           30.66190678684892       92.28663782361220       57.72444849216810
H           30.03581576204315       91.39804657500650       57.80774582510441
C           31.69818696626647       92.38510920017363       58.62289357619457
H           32.39119899172798       93.21891864835902       58.61493205405500
H           31.86242691460850       91.62005922565852       59.37468367757703
C           26.51934114141529       89.50114955368635       56.04724445355513
H           26.48671840538547       90.08156493803337       56.97898814817662
H           27.41917073095149       88.87159066689712       56.07034346402291
H           25.63634658573076       88.86011274770048       56.01468378392389
C           24.47021367682489       89.86667707962127       53.39976877706088
H           23.86951703369091       90.34705095268644       52.62504161884262
C           23.98778060048759       88.66925754026383       53.87128800596213
H           24.50680281051967       88.10082285091504       54.63500716868205
H           23.06802184023725       88.24290945207518       53.48132455515140
C           24.75426479398970       92.51207071423607       48.77397222605800
H           23.71794465292020       92.77018046871595       49.02725364653342
H           24.90124607789704       91.44182025246482       48.96189600362214
H           24.90992119242885       92.71160022177858       47.70842050336309
C           26.31277394933818       95.09763053404590       47.82137325085204
H           25.31908697777803       94.93120496134125       47.39236644808119
H           27.06129790614965       94.65878867362794       47.14858601812895
H           26.48717373354333       96.17636921193261       47.89341391728083
O           26.87468925985525       95.17869493699629       53.84553575204956
H           27.06693214310680       96.06617337625195       53.54068497567433
H           26.16479052949471       94.96865846595537       54.42332913662236
C           30.76519166477967       90.28182340354191       49.74823199883911
H           30.90103205148219       89.27933219426978       50.16870975536158
H           31.67924652141976       90.57460756335590       49.21989151201067
H           29.92840083127459       90.26066022456229       49.04360808089481
N           31.19990195542148       91.59879514523084       51.89572156042986
H           32.09169555443323       91.20045084416867       52.12635328577103
C           30.45124102570839       91.26453226670753       50.83091428074094
C           30.56662434951670       92.53375491607355       52.59680715406300
H           30.94230848874020       92.99127750368913       53.49208465488037
N           29.41797462760757       92.79773738390109       52.01356466796584
C           29.31502355360542       92.03981356085660       50.92512449862179
H           28.45295328215871       92.08850537829707       50.28724806548849
78
 energy: -115.669224252355 gnorm: 0.052502712664 xtb: 6.7.1 (edcfbbe)
Fe          28.18157156647655       93.92967360942767       53.00123969540514
N           29.16273840807697       95.59817216600129       52.41637769182537
N           29.25439316918917       93.88977093983101       54.74255010420691
N           27.19250973233971       92.29089662164249       53.64123731443159
N           27.06600226659770       94.01117259907949       51.32516400745564
C           28.94565693056765       96.32014933383732       51.27950207483511
C           29.73960862484532       97.52336450067418       51.28973761632563
C           30.44297200245445       97.51229082142683       52.46276529068881
C           30.06309833549085       96.30803234958047       53.15328366157179
C           30.17303963852061       94.82158348909415       55.12922065517613
C           30.82541728407276       94.43830963717862       56.34690652931946
C           30.32520026516125       93.18941522675738       56.67813563858694
C           29.31580691145473       92.88999959480955       55.66788972919572
C           27.46681214536525       91.52868761792101       54.73855815754354
C           26.52411719517840       90.44840631681960       54.86100904330748
C           25.65006013766771       90.57052897879809       53.79226393681596
C           26.12912450119420       91.71277329408153       53.02377195817282
C           26.12965242225996       93.09360233582811       50.95391151940581
C           25.70978472524807       93.33766322756290       49.59466261839415
C           26.38706267604977       94.45366286335415       49.17463706103029
C           27.22585309925690       94.86029217126863       50.27476688327599
C           28.05603857319866       95.96919902557525       50.28149974156585
H           27.99638101058971       96.63036006286639       49.43187005020766
C           30.51998903543882       95.95135710644871       54.40627121118114
H           31.23681783356276       96.61287279694315       54.86477372121928
C           28.50018335025427       91.77246054888350       55.63842002184991
H           28.65729849480608       91.02202552531433       56.39794927939275
C           25.65230299381057       92.08355141191315       51.77473416430330
H           24.83721003281190       91.50382044029428       51.37029349795291
C           31.38160483757085       98.54554070275732       52.97675644698048
H           30.94467524686701       99.06704018797328       53.82882437166916
H           31.59517572987393       99.27373375916513       52.20162556884771
H           32.31935352106428       98.09897461888238       53.30018507410660
C           29.74494616780417       98.57649802712241       50.23851490537031
H           28.77199724020668       98.65504354285756       49.76102788537079
H           30.48397440009759       98.35310103148299       49.46933353402735
H           29.98784641544667       99.54119490973285       50.67497382993110
C           31.83922586938242       95.30254136597475       57.01591365195875
H           31.47968881132492       96.32875269398701       57.09057369891776
H           32.76755136988589       95.31769746413137       56.44227187645561
H           32.05898856423643       94.96007224007934       58.01799173469670
C           30.67896293847681       92.28717657752377       57.74508235556866
H           30.04310149596078       91.41120913700965       57.81696589972879
C           31.67482482619177       92.38242805424244       58.60126635504205
H           32.38151322183234       93.19285359551507       58.60759405556281
H           31.84211679765117       91.62910349495857       59.35231949629249
C           26.51276961916317       89.51604411752460       56.02688048550399
H           26.48980436559543       90.08344092975848       56.95843810185666
H           27.40485081710386       88.88815217560732       56.04769093276531
H           25.64355304838435       88.87144902132181       56.01129925663163
C           24.46277256603506       89.84030158621829       53.41497547371883
H           23.87579521654131       90.33207282954163       52.64422489473161
C           24.01024267847903       88.69079446986116       53.86456115818012
H           24.51040816723118       88.10520626678959       54.61531603909416
H           23.09262868451832       88.26742093771828       53.48941373879705
C           24.76026937051973       92.51788820792032       48.78948716035946
H           23.72786510482006       92.76735321070625       49.03452157888119
H           24.90293655492607       91.45472820160337       48.96990885871335
H           24.90906843054949       92.70698142678231       47.72952484121575
C           26.31068067041465       95.09621468968183       47.83378151090588
H           25.32924008594292       94.93640671142786       47.39592929856939
H           27.05507493211014       94.66764083378060       47.16129671461164
H           26.48824806724221       96.16605631893911       47.89505435104875
O           26.86899120518328       95.19824414083914       53.86962194657781
H           27.01038762043243       96.10287064719756       53.57526261144761
H           26.12766305662261       94.99771834738037       54.44112419170194
C           30.77088927450678       90.27768635090190       49.74913757535309
H           30.91040771160954       89.28229218884343       50.16343872821539
H           31.67780031540488       90.56445705715981       49.22188731666285
H           29.94709765701946       90.25120767474519       49.04390989225016
N           31.22532354520929       91.57894937465180       51.87354187582941
H           32.12051096965948       91.17758098893499       52.09800994402283
C           30.44192344971527       91.25609505805880       50.80723136184520
C           30.59293452755516       92.51800554882449       52.59692506593237
H           30.97633581327199       92.97095211171234       53.48195387815359
N           29.42983090187420       92.79789888378815       52.04831210293489
C           29.31971791621830       92.03612945498467       50.93396140853274
H           28.46072684032581       92.08770422018534       50.29975408978547
78
 energy: -115.675844361968 gnorm: 0.026200488921 xtb: 6.7.1 (edcfbbe)
Fe          28.17755382658688       93.93605811313415       52.99938329067434
N           29.13666587549470       95.60938657706380       52.42620405706152
N           29.25536180899513       93.89359679226584       54.72788395420515
N           27.20147846318289       92.29742556449141       53.62496327964414
N           27.07283974691948       94.00904195414302       51.33319113595646
C           28.92952247127904       96.32395466453058       51.28191970762008
C           29.72881539057126       97.53058577868710       51.29224321903970
C           30.43102282898155       97.52022296514248       52.46111649110443
C           30.04423509669015       96.31651754257231       53.16039103617461
C           30.17011272074789       94.82802712007266       55.11917000443573
C           30.82219039299365       94.43435487324103       56.34062186068838
C           30.32214790999089       93.19291342748633       56.66775995305582
C           29.31514378023468       92.89270646692974       55.65224558939921
C           27.46935556887252       91.54295932792148       54.73009813954384
C           26.51604604570844       90.46589835671624       54.85782693471923
C           25.65328365340847       90.57936811730985       53.79280518100245
C           26.13316097824906       91.71874396204193       53.01497639741793
C           26.13589273827818       93.09118880797649       50.96036027277351
C           25.71169429456213       93.33974130395423       49.59995360695070
C           26.38706851344671       94.45157096294295       49.17938245343745
C           27.23325313915732       94.85722078495442       50.27769945189498
C           28.05849800788339       95.96714526912817       50.27221526908676
H           28.01375637090564       96.61393096257824       49.41003088827137
C           30.51559294308882       95.96375665823108       54.40758407425496
H           31.24266929047774       96.62012758524337       54.85830966509582
C           28.49671884857313       91.78008503119162       55.63308901297651
H           28.63419951408770       91.04065379599442       56.40783649382300
C           25.65190433817262       92.07827564997461       51.76893269983006
H           24.84744124438452       91.48955048618704       51.35536406083670
C           31.37894092655348       98.54313208357146       52.97610176644304
H           30.94878844873270       99.06448151587136       53.83066861412532
H           31.60219703513474       99.27417649112768       52.20678346871090
H           32.31347281728132       98.08972285027781       53.29627461077079
C           29.73958674804268       98.57475951182720       50.23561129718772
H           28.76918533829543       98.65753599063734       49.75594843609847
H           30.47865901442283       98.34412807174121       49.46985197143865
H           29.98963068602055       99.54069415973034       50.66411032720142
C           31.82664374778816       95.29861814721183       57.01457394289211
H           31.46488335401029       96.32372315003980       57.07224573704809
H           32.76169943344683       95.30539613111772       56.45339975887686
H           32.03507660609424       94.97010773094365       58.02321323280154
C           30.66530030773932       92.28710675507416       57.74324673594548
H           30.02031627896057       91.42049470857772       57.81747805748968
C           31.67742242029446       92.37216383816296       58.59969698101299
H           32.40377212749489       93.16347668753413       58.60031884244440
H           31.82981872423478       91.62117635411946       59.35397666233165
C           26.51026186209140       89.53201462408472       56.01518464178647
H           26.49890703209419       90.09476484629045       56.94821854121519
H           27.40048637473381       88.90352452732078       56.01762527111764
H           25.64134290291063       88.88812245023274       56.00700966038254
C           24.46385074886030       89.84377770232119       53.41769542332813
H           23.87117095618680       90.33869213121490       52.65786324350945
C           24.01795663164403       88.67868813064516       53.87233785295448
H           24.52925502716223       88.07741506692351       54.60117275140899
H           23.09974236323092       88.26007329350762       53.49913163883018
C           24.76023483925226       92.51803118626501       48.80636519341968
H           23.72901134206856       92.76578743620342       49.05407472476451
H           24.90587047521056       91.45704490936802       48.98982667976569
H           24.90475908676793       92.70176029517687       47.74583763397121
C           26.31085922195694       95.09847014236935       47.84301649407126
H           25.33185125739972       94.94146693005024       47.40031878990288
H           27.05687856460027       94.67362273759855       47.17144054331509
H           26.48981258222660       96.16692681943883       47.90529632816332
O           26.85275181479289       95.22178675783076       53.91524869721083
H           26.93402079583517       96.13724185847039       53.61325121616426
H           26.08193142502819       95.01992600056523       54.45701062655912
C           30.77767257368802       90.26994543018031       49.74094657973794
H           30.92445777747636       89.27737771553460       50.15924209214170
H           31.68579569855358       90.55552330373148       49.21581441133434
H           29.96052230912969       90.23217970139021       49.02980836449697
N           31.25525531220024       91.56170082798016       51.85047448445589
H           32.15543007872188       91.15666937299410       52.05515730703366
C           30.44458242771064       91.24992409614504       50.79464283621061
C           30.63309100829530       92.49565382638312       52.59536905805157
H           31.03794200625481       92.94189707437268       53.47533520066757
N           29.45623019450805       92.78915264417087       52.07838930185785
C           29.32969185337725       92.03076137275323       50.95301733859662
H           28.46435363955886       92.08717370881448       50.32781844978157
78
 energy: -115.680679960747 gnorm: 0.030307108655 xtb: 6.7.1 (edcfbbe)
Fe          28.17936214953552       93.93945081061496       53.00118163837377
N           29.11300167041342       95.62133064568729       52.43545386822215
N           29.26446988261448       93.89506960144631       54.71107807660001
N           27.20110060812822       92.30701791150179       53.61195349519480
N           27.08307832903607       94.00581975506041       51.34152774754748
C           28.91329257746273       96.32983718244644       51.28822560545357
C           29.71551780276114       97.53748528220480       51.29528834396434
C           30.41490329539470       97.52884660079492       52.46235119804863
C           30.02264906063365       96.32689166331852       53.16709901562851
C           30.17348149128198       94.83026311408366       55.10627929945540
C           30.82116139247482       94.43034031092071       56.33195275504060
C           30.32172185282345       93.19258406168007       56.65258696627647
C           29.31707838912816       92.89606579490990       55.63477637807536
C           27.46618799390719       91.56196951769004       54.72284102096649
C           26.50940028373224       90.48591195616218       54.85541988195940
C           25.65546386463799       90.58831787071534       53.78906543378729
C           26.13577944447479       91.72245223039270       53.00440641296838
C           26.14361899114144       93.09175562356229       50.96631579051461
C           25.71478814961077       93.34293838332968       49.60795059429395
C           26.38994283504515       94.45028899026177       49.18656057060197
C           27.24071151319969       94.85320121914619       50.28251706034072
C           28.06341743464158       95.96267689157914       50.26369518256749
H           28.03791280823001       96.59069362816879       49.38596846660698
C           30.51270192446182       95.97472828661441       54.40681483419487
H           31.24539426675873       96.62966107205789       54.85045514877481
C           28.48768719068863       91.79244983868153       55.62914506074268
H           28.60561346198398       91.06394505646104       56.41692996630676
C           25.65328155813107       92.07086422180292       51.75855600622200
H           24.85914297324360       91.47550995681246       51.33560582683229
C           31.37527710851831       98.54045849653953       52.97786630178066
H           30.95382223552565       99.06154044633450       53.83792811471534
H           31.60633721781392       99.27460739293029       52.21154369146790
H           32.30669561612093       98.07234768943059       53.29076499531948
C           29.73263787996187       98.57249539422509       50.22858323210336
H           28.76198024660750       98.65936559721715       49.74818745175678
H           30.47113814345245       98.32761445226885       49.46499845277017
H           29.99285435601905       99.54127842167883       50.64859280710836
C           31.81493663098901       95.29618217960180       57.01754998178755
H           31.45325601874336       96.32331193013557       57.05137396514750
H           32.76297424709902       95.28880880196880       56.47626458474880
H           31.99628169612576       94.97385242210855       58.03600494114663
C           30.65160678441789       92.28571812256357       57.73349115844356
H           29.98611538318800       91.43905623502253       57.83163673964749
C           31.67597919069085       92.35945683509468       58.58509947685679
H           32.41983779476293       93.13409678811746       58.57171110461976
H           31.80488191443101       91.61000536730590       59.34698459347862
C           26.51024422379847       89.54962557883732       56.00864403441194
H           26.51659307056832       90.10714948364756       56.94523171280608
H           27.39707641706167       88.91517204592428       55.98619722071433
H           25.63372704469821       88.91394815767387       56.00386889184201
C           24.46711912974914       89.84727322498298       53.41927995206623
H           23.85076207664361       90.34684482624529       52.68492028605837
C           24.04161775461248       88.66500444079080       53.86622041103161
H           24.56592076099077       88.06070079647542       54.58147675389205
H           23.11052174464007       88.26023640578185       53.50809566046510
C           24.75661931016179       92.51653884193709       48.82780006793839
H           23.72673786862357       92.76423442933805       49.08449045951551
H           24.90754850872063       91.45643200379585       49.01809087680011
H           24.89225824172183       92.69440230282827       47.76397405874466
C           26.31322466576243       95.10368883444622       47.85337261553313
H           25.33455325094226       94.94654050412709       47.40741448435445
H           27.06309454010684       94.68274018257296       47.18202598004986
H           26.48931927691423       96.17324058593634       47.92218120644766
O           26.83583788741723       95.25281858533513       53.98980396643239
H           26.82099005005682       96.17030714344570       53.65536869547102
H           26.00813383798903       95.05049009109061       54.46023536627603
C           30.78693227283683       90.25990098979868       49.72904190328891