78
 energy: -115.933178080476 gnorm: 0.359897313615 xtb: 6.7.1 (edcfbbe)
Fe          28.18900000000000       93.94100000000000       53.02100000000000
N           29.23100000000000       95.60700000000000       52.39300000000000
N           29.26800000000000       93.89100000000001       54.78199999999999
N           27.14800000000000       92.27900000000000       53.68500000000000
N           27.05900000000000       94.01200000000000       51.28000000000000
C           28.98200000000000       96.34099999999998       51.30000000000000
C           29.74299999999999       97.49400000000000       51.28899999999999
C           30.44200000000000       97.48399999999999       52.48199999999999
C           30.07500000000000       96.31999999999999       53.12800000000000
C           30.18500000000000       94.79200000000000       55.15100000000000
C           30.81100000000000       94.45099999999999       56.33900000000000
C           30.29200000000000       93.17799999999998       56.66199999999999
C           29.32400000000000       92.89899999999999       55.68700000000000
C           27.45300000000000       91.50500000000000       54.73699999999999
C           26.56400000000000       90.43899999999999       54.85000000000000
C           25.65200000000000       90.61099999999999       53.76599999999999
C           26.14000000000000       91.69000000000000       53.03100000000000
C           26.11800000000000       93.12300000000000       50.92500000000000
C           25.71900000000000       93.33199999999998       49.60800000000000
C           26.40600000000000       94.45799999999998       49.18600000000000
C           27.19500000000000       94.85599999999999       50.27000000000000
C           28.04900000000000       95.96899999999998       50.30900000000000
H           27.98200000000000       96.64000000000000       49.45399999999999
C           30.51400000000000       95.92400000000001       54.39700000000000
H           31.22200000000000       96.60200000000000       54.87100000000000
C           28.49400000000000       91.77300000000000       55.63500000000000
H           28.68100000000000       91.00800000000000       56.38800000000000
C           25.67100000000000       92.09600000000000       51.77000000000000
H           24.82700000000000       91.52300000000000       51.38800000000000
C           31.38700000000000       98.55100000000000       52.98199999999999
H           30.92800000000000       99.07800000000000       53.84499999999999
H           31.58400000000000       99.28699999999999       52.17300000000000
H           32.34000000000000       98.08400000000000       53.31099999999999
C           29.75100000000000       98.58700000000000       50.22800000000000
H           28.74800000000000       98.65100000000000       49.75399999999999
H           30.50400000000000       98.34699999999998       49.44800000000000
H           29.99000000000000       99.56499999999998       50.69800000000000
C           31.86400000000000       95.32599999999999       57.02099999999999
H           31.48400000000000       96.36700000000000       57.10500000000000
H           32.79600000000000       95.33100000000000       56.41700000000000
H           32.07300000000000       94.93600000000001       58.03999999999999
C           30.63300000000000       92.28400000000001       57.68500000000000
H           30.00800000000000       91.38699999999999       57.79099999999999
C           31.72800000000000       92.38800000000001       58.64600000000000
H           32.41100000000000       93.25000000000000       58.62299999999999
H           31.88200000000000       91.60599999999999       59.40400000000000
C           26.52400000000000       89.49200000000000       56.06400000000000
H           26.48600000000000       90.09000000000000       57.00000000000000
H           27.43800000000000       88.86000000000000       56.07700000000000
H           25.61900000000000       88.84999999999998       56.00900000000000
C           24.48500000000000       89.91200000000001       53.38100000000000
H           23.86800000000000       90.37800000000000       52.60100000000000
C           23.97200000000000       88.63599999999998       53.88000000000000
H           24.51300000000000       88.08400000000000       54.66300000000000
H           23.03900000000000       88.21400000000000       53.47800000000000
C           24.74900000000000       92.50600000000000       48.76499999999999
H           23.70400000000000       92.77600000000000       49.02999999999999
H           24.90400000000000       91.42399999999999       48.96600000000000
H           24.91300000000000       92.71899999999999       47.68699999999999
C           26.31600000000000       95.09900000000000       47.81500000000000
H           25.30400000000000       94.92500000000000       47.39000000000000
H           27.07300000000000       94.64699999999999       47.13900000000000
H           26.48800000000000       96.19300000000000       47.90000000000000
O           26.86900000000000       95.16400000000000       53.84399999999999
H           27.08900000000000       96.04100000000000       53.52799999999999
H           26.20400000000000       94.95500000000000       54.39500000000000
C           30.75800000000000       90.28700000000001       49.74500000000000
H           30.89700000000000       89.27300000000000       50.17799999999999
H           31.68900000000000       90.58400000000000       49.21700000000000
H           29.90800000000000       90.25999999999999       49.02999999999999
N           31.18000000000000       91.61600000000000       51.91100000000000
H           32.06900000000000       91.21899999999999       52.14000000000000
C           30.46000000000000       91.27900000000000       50.86000000000000
C           30.55400000000000       92.53500000000000       52.59000000000000
H           30.93200000000000       92.99800000000000       53.49999999999999
N           29.41800000000000       92.78700000000001       51.98600000000000
C           29.31500000000000       92.04400000000000       50.92999999999999
H           28.44500000000000       92.09300000000000       50.28699999999999
78
 energy: -116.012223654610 gnorm: 0.149865439618 xtb: 6.7.1 (edcfbbe)
Fe          28.18453855446532       93.93328869460154       53.00827940350810
N           29.19582279033764       95.59992724907877       52.40462090629730
N           29.26060641072929       93.88856633449937       54.76107131630171
N           27.17166056743949       92.28557864606682       53.66237678619387
N           27.05871263498028       94.01498872684171       51.30611501128422
C           28.96491789129561       96.32831428940486       51.28695233934692
C           29.74351902368516       97.51218251461606       51.28806177519494
C           30.44727966965078       97.50156079999250       52.47180337226224
C           30.07451111195542       96.31109615487588       53.14067946445349
C           30.17948683248065       94.80630077780687       55.14083851469466
C           30.82240294829764       94.44474849553471       56.34673545339435
C           30.31304980753086       93.18362310011032       56.67936441549941
C           29.31777405730876       92.89493378942842       55.68069186361707
C           27.45773076610887       91.51625501863424       54.74031857573732
C           26.54293458646655       90.43770889171395       54.85693931928736
C           25.64754023550880       90.58000270687056       53.77895636782717
C           26.13107887383930       91.70330587957447       53.02978666242031
C           26.12410862352382       93.10700473898493       50.93916984312408
C           25.71282544298316       93.33549677990531       49.59553811657823
C           26.39340186741247       94.45654964972859       49.17525174651890
C           27.21047333801013       94.86006590411736       50.27163719197782
C           28.05234591802555       95.96863519499790       50.29492674468271
H           27.98596729424474       96.63788802190507       49.44683982018920
C           30.51895084525900       95.93557652391272       54.40189375292950
H           31.22757829267535       96.60623948560207       54.86976792744468
C           28.49664403070151       91.77286315637407       55.63806999150296
H           28.67291286964727       91.01216503319124       56.38887808743094
C           25.66107784915239       92.09281880600849       51.77350828384894
H           24.83233115247958       91.51809543252102       51.37968201458128
C           31.38591514191473       98.55124694738457       52.98009515435455
H           30.93861718540381       99.07416958147287       53.83589914089527
H           31.58912945147167       99.27972163994225       52.18911961624674
H           32.32944990113488       98.09663217821934       53.30566948752788
C           29.74956202993734       98.58366109862087       50.23314394486725
H           28.76385028429328       98.65390655660276       49.75895211678389
H           30.49281648625637       98.35446943528898       49.45871455128812
H           29.98755530762287       99.55270389784135       50.68500589941866
C           31.85405340003585       95.31551006348312       57.01935794350075
H           31.48750980862873       96.34746236196744       57.10163435879635
H           32.78179687483630       95.32805289342758       56.43130349880730
H           32.06997679596252       94.95215438070093       58.02582512839734
C           30.66273217011804       92.28822664119829       57.72503469927537
H           30.03642441429050       91.39869792864739       57.80774042242307
C           31.69822258352886       92.38413417094407       58.62313664073561
H           32.39109385116906       93.21781426459347       58.61589653792368
H           31.86286254044940       91.61941157182167       59.37557006481516
C           26.51926654130957       89.50104983369251       56.04740031403060
H           26.48692795985132       90.08151261074605       56.97969944979960
H           27.41943483735596       88.87113105602934       56.07104296214724
H           25.63607007716471       88.85957827706898       56.01486714331267
C           24.47108332040271       89.86545503868857       53.40085489475361
H           23.87000593568495       90.34630485023477       52.62559989124145
C           23.98762755989127       88.66897947186614       53.87016807588045
H           24.50570028437977       88.10072645607799       54.63454924676607
H           23.06698987339954       88.24252416022594       53.48151290120669
C           24.75365641636092       92.51223113886864       48.77334127055303
H           23.71652212785948       92.76935290583761       49.02678675766501
H           24.90133133682655       91.44170222567659       48.96173429048884
H           24.90945774835354       92.71095388708937       47.70704896597204
C           26.31254134195928       95.09709248926555       47.82032022645607
H           25.31824245662775       94.93173827873973       47.39076008551008
H           27.06184414318566       94.65920625202780       47.14693575887780
H           26.48713931821948       96.17630892424771       47.89334912796505
O           26.87472853180050       95.18008944937151       53.84876266099796
H           27.06756056985272       96.06463466424624       53.54010253251629
H           26.16497721182530       94.96919938679305       54.42407121802815
C           30.76634053594309       90.28086804590318       49.74790963141072
H           30.90119613432030       89.27775019588761       50.16821850529779
H           31.68021357954267       90.57406540553913       49.21848270296478
H           29.92845714298129       90.26108100354966       49.04431570865167
N           31.20136598783465       91.59809041488620       51.89567921166125
H           32.09227672098845       91.19969645668392       52.12699065181686
C           30.45124470794216       91.26436429571515       50.83079196442870
C           30.56537778781661       92.53435652717565       52.59647772181913
H           30.93937909549282       92.99182579151221       53.49217405805778
N           29.41840682008911       92.79717124128422       52.01463626381856
C           29.31633363911465       92.04051918370965       50.92641294684356
H           28.45354774237360       92.08968367230241       50.28914858487379
78
 energy: -116.032794101529 gnorm: 0.052906938475 xtb: 6.7.1 (edcfbbe)
Fe          28.18019107329118       93.92751910547879       52.99381329572751
N           29.15666338284723       95.59982326870576       52.41919124878003
N           29.25838818977337       93.88730496775644       54.73877592611711
N           27.19274719040031       92.29284495434287       53.63809493736551
N           27.06595818662507       94.01146035225794       51.32676811443527
C           28.94310913115434       96.31986854802055       51.28378872015841
C           29.73813982118591       97.52199293260095       51.29195635331862
C           30.44199868830251       97.51031853538890       52.46247542380845
C           30.06103004712066       96.30616248214002       53.15247134901205
C           30.17348771943558       94.81702512436084       55.12678115649187
C           30.82502338159872       94.43574021504381       56.34664534456196
C           30.32527447841892       93.19084464300484       56.67927635388862
C           29.31536248898153       92.89335940061633       55.66605831980279
C           27.46468400715766       91.53281463997577       54.73655411645450
C           26.52490276342466       90.45015038664755       54.85826913888951
C           25.65109894475460       90.57087904246021       53.79176626571220
C           26.13146084561380       91.71348911919748       53.02408386652550
C           26.13151450714874       93.09579943695040       50.95491268396973
C           25.71045811046734       93.34019253909710       49.59392759147310
C           26.38444404325202       94.45225425453174       49.17594271767737
C           27.22406424503706       94.85904786180593       50.27815496010626
C           28.05385849355120       95.96740997302696       50.28310485939861
H           27.99761461365652       96.62744430206386       49.43040500683701
C           30.51994432790081       95.94892987817393       54.40503769671328
H           31.23605115055276       96.61257819389083       54.86465422129926
C           28.49883281368685       91.77592570584443       55.63717212379617
H           28.65717015238576       91.02332098705962       56.39639532794466
C           25.65356378055386       92.08552735199956       51.77367230617639
H           24.83700545837331       91.50553567710192       51.36916596575564
C           31.38230605968524       98.54657024588428       52.97695773113598
H           30.94599048680961       99.06854066427638       53.83023173494042
H           31.59646074273489       99.27582143572906       52.20142723555252
H           32.32066731181178       98.09969981460152       53.30070626487015
C           29.74602107576866       98.57752994513301       50.23800041840965
H           28.77178532448083       98.65505863384999       49.76132502782281
H           30.48425147546319       98.35446080687193       49.46665731654395
H           29.98785793518445       99.54399142434872       50.67392183215761
C           31.84064584161592       95.30282530259466       57.01665297905907
H           31.47995201524530       96.32950337782647       57.09057171371398
H           32.76939747624522       95.31901440656884       56.44240380093660
H           32.06086852194689       94.96078067053999       58.01948325779209
C           30.67987087770716       92.29016135406273       57.74596478017597
H           30.04363162703635       91.41278470881272       57.81677315079850
C           31.67502110955032       92.38055929762201       58.60347604701371
H           32.38192570444835       93.19098732964171       58.61058217728312
H           31.84377318365561       91.62643063830669       59.35471569020539
C           26.51286768218161       89.51598015701117       56.02737273947763
H           26.49019685392335       90.08372097829169       56.95953457548872
H           27.40562967622548       88.88766116905238       56.04889657041034
H           25.64330571273804       88.87051559565604       56.01192688528157
C           24.46514440364123       89.83890396100688       53.41657591168956
H           23.87788074279790       90.33096693090064       52.64451610926077
C           24.00827313497225       88.69018408230619       53.86407129224002
H           24.50786971901444       88.10379532950664       54.61503119279427
H           23.09023809866190       88.26543792807452       53.48868771365157
C           24.75833650556931       92.51784806069885       48.78778320257604
H           23.72449224917284       92.76511242438441       49.03312526925959
H           24.90355872080090       91.45450256620899       48.96929703222909
H           24.90756301995602       92.70526746072939       47.72658918715414
C           26.31019161180552       95.09552076029527       47.83113012103082
H           25.32788768522334       94.93782149827091       47.39197714162521
H           27.05613517097178       94.66858934994735       47.15797875512452
H           26.48791237311359       96.16602289030473       47.89494332643444
O           26.87237130933293       95.20115255108438       53.88138539966948
H           27.01190459290018       96.09849722207467       53.57151693626576
H           26.12598050805434       94.99856323871107       54.44224952976412
C           30.77310093395179       90.27596324241159       49.74845877763383
H           30.91078689795582       89.27937384186166       50.16216861674523
H           31.67955933346868       90.56297643217889       49.21899692671956
H           29.94723543125380       90.25200789507217       49.04529366218993
N           31.22869590942317       91.57782137476919       51.87369050907314
H           32.12189918930368       91.17588478662455       52.09980996740881
C           30.44213597861464       91.25633600583376       50.80746634591646
C           30.59013662737958       92.51955395865087       52.59702244429735
H           30.96971671613748       92.97197754081898       53.48310322771062
N           29.42964041935662       92.79716787640429       52.05110079150128
C           29.32201938811344       92.03751942470993       50.93650165588956
H           28.46186459794219       92.09006952993209       50.30363163287781
78
 energy: -116.039491553737 gnorm: 0.027007915797 xtb: 6.7.1 (edcfbbe)
Fe          28.17809814317551       93.93304651236076       52.99285607934453
N           29.12905161348280       95.61041996584105       52.42949691053008
N           29.26237827450992       93.88984293914432       54.72353974679913
N           27.20146470621102       92.30042633898273       53.62113537524610
N           27.07319263417281       94.00899993238397       51.33514120228043
C           28.92494823136548       96.32389368079282       51.28757830642588
C           29.72625736561121       97.52943075847378       51.29505491272894
C           30.42928274497192       97.51798503169299       52.46081698819499
C           30.04129575865032       96.31360441507336       53.15951826453878
C           30.17309765568625       94.82194200441583       55.11563307048384
C           30.82390038559212       94.43162363417026       56.34004443427978
C           30.32285675762777       93.19473595144366       56.67022220124778
C           29.31518224698732       92.89646265247515       55.65084066684007
C           27.46699967151167       91.54886834096925       54.72773835564355
C           26.51762577453919       90.46861948690650       54.85516352566233
C           25.65520946980815       90.57916437814237       53.79141795874191
C           26.13631648791666       91.71959446281092       53.01448617190653
C           26.13818016251390       93.09359622818907       50.96138413713950
C           25.71118444020432       93.34290513508910       49.59866399341224
C           26.38315233233705       94.45039901810983       49.18038168949433
C           27.23054211841324       94.85603009571132       50.28214531481279
C           28.05513513072242       95.96546593278944       50.27475519227402
H           28.01595453118554       96.60942321032169       49.40821869874453
C           30.51658333697485       95.96034633007326       54.40528324700726
H           31.24187495467351       96.61966773132320       54.85724408614429
C           28.49503276077704       91.78487289499124       55.63205213539117
H           28.63360158169219       91.04276859848409       56.40582946354574
C           25.65350372104321       92.08021987044594       51.76719189492320
H           24.84700370739099       91.49205981089023       51.35374524711929
C           31.37959927125571       98.54391102583723       52.97624130553754
H           30.95080281935413       99.06584527448845       53.83234083789341
H           31.60339889865061       99.27627959119556       52.20673040611099
H           32.31490206514012       98.09025832159412       53.29632571202745
C           29.74014277353116       98.57604025336835       50.23518874037399
H           28.76834609348296       98.65765123455921       49.75662288103124
H           30.47805228298151       98.34572184931150       49.46689662086341
H           29.98905219278397       99.54405842742791       50.66255843262000
C           31.82976906770176       95.29940806192434       57.01515792918522
H           31.46585316718287       96.32458242185952       57.07180502777702
H           32.76525996074081       95.30811403956687       56.45345004044655
H           32.03895214810797       94.97215209204124       58.02482652454250
C           30.66631476633389       92.29097897362652       57.74552220172204
H           30.02076749098972       91.42311166787152       57.81789458711711
C           31.67788016212434       92.36825427285520       58.60379875673416
H           32.40447967451174       93.15975197541049       58.60730171363479
H           31.83115543038999       91.61539790090694       59.35758741269220
C           26.51107916468921       89.53281212341264       56.01581717135090
H           26.49970286675092       90.09587814862654       56.94939923650499
H           27.40202133659306       88.90396834324241       56.01939831472541
H           25.64202102914162       88.88776052423198       56.00782399636185
C           24.46790062252285       89.84135603521938       53.41872607008975
H           23.87571836716942       90.33613649390539       52.65683305464599
C           24.01577224495780       88.67687460300351       53.86964656832745
H           24.52293963204419       88.07573567342278       54.60191909980013
H           23.09539835039157       88.25911554572724       53.49732120820032
C           24.75734760105679       92.51760274810479       48.80394619162582
H           23.72413301681901       92.76128366951279       49.05159089626093
H           24.90737341500346       91.45675623942431       48.98858666635230
H           24.90191357187568       92.69913836597335       47.74198881980401
C           26.31010559307308       95.09817166829180       47.83951306252006
H           25.33069854787302       94.94384699301892       47.39409445152362
H           27.05820252837598       94.67545873526039       47.16753347104786
H           26.48907016132692       96.16719726849695       47.90503210908332
O           26.86673472643455       95.22585989300937       53.94220086609336
H           26.93208128244998       96.12834843794897       53.59898474196641
H           26.07450101119107       95.01985275898230       54.45223050179733
C           30.78028000911873       90.26833588532955       49.74059582737250
H           30.92463101126042       89.27428741560674       50.15789846319966
H           31.68780244930320       90.55347290761391       49.21258532953932
H           29.96068763499536       90.23369486466447       49.03195690315667
N           31.25871248959876       91.56101941687194       51.85124930460693
H           32.15589990402700       91.15448693802789       52.05936472157219
C           30.44472097008792       91.25097202128853       50.79519193240911
C           30.62833547713859       92.49866007078451       52.59582249472884
H           31.02742361107422       92.94372651273112       53.47789559650047
N           29.45463732637073       92.78991300397924       52.08088720708087
C           29.33200736330217       92.03292653094783       50.95534094548632
H           28.46551171897094       92.09041743699626       50.33179637505339
78
 energy: -116.043625709267 gnorm: 0.049024508058 xtb: 6.7.1 (edcfbbe)
Fe          28.18391077021312       93.93608940962318       52.99992414828469
N           29.10609872842973       95.62022403665858       52.43880642886855
N           29.27413037178133       93.89005351306395       54.70712610361012
N           27.20207147833494       92.31124015885753       53.60864929874866
N           27.08244890225292       94.00701155579836       51.34486599579171
C           28.90760842503420       96.32936836227064       51.29487620148544
C           29.71216311551693       97.53643123554886       51.29871467816092
C           30.41246919197031       97.52612074147389       52.46213183660279
C           30.01925301189985       96.32232320622251       53.16621066841358
C           30.17918705333102       94.82294285121509       55.10221421545789
C           30.82554963280052       94.42725482802331       56.33107912810448
C           30.32314061483541       93.19464061817338       56.65693681511006
C           29.31788736667445       92.89958830539217       55.63464523042420
C           27.46453900089923       91.56931045138468       54.72048540842931
C           26.51186029538570       90.48987603581084       54.85321012717753
C           25.65868957924618       90.58784158437503       53.78730544658268
C           26.14041449063928       91.72372183403208       53.00366426004161
C           26.14595068563189       93.09468083831349       50.96808657852181
C           25.71280114519904       93.34647647769772       49.60694814969321
C           26.38491277998963       94.44983488558820       49.18768378272507
C           27.23689045771949       94.85264196667841       50.28850916959794
C           28.05947763389965       95.96165071022554       50.26744987176838
H           28.04096916373268       96.58561357110030       49.38491274568542
C           30.51500400534587       95.97012983582057       54.40369707001755
H           31.24574068902200       96.62836659410914       54.84804662273952
C           28.48638883098246       91.79787937701306       55.62888616555834
H           28.60395374688422       91.06682626704303       56.41599818093560
C           25.65537292823013       92.07259074533827       51.75726923784782
H           24.85933566361696       91.47774320710278       51.33434383797943
C           31.37573306629130       98.54042110863949       52.97793739430922
H           30.95626797500822       99.06189217531146       53.83984745857403
H           31.60711063373695       99.27610232248607       52.21155000431536
H           32.30804116256243       98.07198787589911       53.29005277019175
C           29.73196108614742       98.57373009416546       50.22868914416357
H           28.75992042998444       98.65937874476431       49.74936487096659
H           30.46922712176480       98.32918299508822       49.46260156027358
H           29.99102453937611       99.54466148286971       50.64727116254521
C           31.82046361162695       95.29675059144287       57.01756937684980
H           31.45502989222811       96.32324599807909       57.05090272521274
H           32.76846528814979       95.29317654759824       56.47514361135525
H           32.00385446324259       94.97559605579663       58.03678682671237
C           30.65295056385912       92.28990216326515       57.73735488482881
H           29.98683631812956       91.44204752627869       57.83259022973400
C           31.67615853340946       92.35456453734119       58.59230575347200
H           32.42025242527020       93.12958474691135       58.58413647573099
H           31.80544202551836       91.60137573561161       59.35186326366625
C           26.51167079293295       89.55152875110998       56.00896559897048
H           26.51726021543428       90.10947128964976       56.94593759958452
H           27.39949497219736       88.91728892981017       55.98813750484708
H           25.63541678506248       88.91421880627026       56.00343809562450
C           24.47271435908288       89.84485766437967       53.42031885156982
H           23.85972195303324       90.34215472285931       52.68045935642604
C           24.03644279429938       88.66517911180969       53.86615567085406
H           24.55596410953368       88.05828720773846       54.58360454517922
H           23.10668415584217       88.25975900052684       53.50264181168124
C           24.75344013451392       92.51541842351136       48.82547102314414
H           23.72104358053107       92.75692580489668       49.08155326118377
H           24.91073677544172       91.45579659317050       49.01669066232155
H           24.88890144855907       92.69141839908346       47.76025649439625
C           26.31246926284279       95.10425424042850       47.85003604363070
H           25.33411683824230       94.94968084341350       47.39977206725614
H           27.06507949425550       94.68553502747436       47.17913525522108
H           26.48840799891346       96.17432371695267       47.92221574212824
O           26.87009769448801       95.25987483482039       54.04314334869080
H           26.81378162174904       96.15094996876508       53.61884485676079
H           25.98625323414006       95.04789767643577       54.43291894096129
C           30.78851905774920       90.25863469168476       49.72908372801454