78
 energy: -116.058037826247 gnorm: 0.000043829848 xtb: 6.7.1 (edcfbbe)
Fe          28.19587347472768       93.97768073307006       53.02577298253870
N           29.14888236966295       95.62524585488264       52.43471711238176
N           29.25823016291511       93.94903446724784       54.71307255083638
N           27.18154153802085       92.34636901564139       53.63196934614071
N           27.07595959983774       94.03387391703622       51.35390664032355
C           28.97303507844255       96.30434288810768       51.27196450585140
C           29.86817361889564       97.43953224848003       51.20022685144387
C           30.59006823922580       97.42868473921567       52.35156528332612
C           30.12656113492639       96.28577572792837       53.10920272271067
C           30.21706566562472       94.83742585423795       55.08742691407052
C           30.78104624278770       94.47902855604882       56.36422001702201
C           30.14324989733355       93.33294187748477       56.75742869150463
C           29.18727905934207       93.02891298219267       55.70863383279542
C           27.40875933728619       91.62347881321425       54.76426580423956
C           26.52725602908205       90.48772186750922       54.83233088152009
C           25.75211395945786       90.53226700577241       53.70261381207833
C           26.18219843911652       91.70576966751354       52.96954206398581
C           26.09364016414957       93.16261545449794       50.99411598170212
C           25.55247088704112       93.50916051576849       49.69931389919774
C           26.23953724676307       94.60600954762090       49.27981956872745
C           27.18786831112087       94.91679578304398       50.32525952059874
C           28.06888044256160       95.98005637922385       50.27818718011694
H           28.04615866446133       96.60669580813519       49.39988366251536
C           30.62924539758034       95.93067419944857       54.34458792002961
H           31.40861031779903       96.55110280901096       54.76048561452152
C           28.34816234496273       91.93266727312299       55.73192420533998
H           28.43078014404719       91.26042426920340       56.57205889072598
C           25.66581146385480       92.08102107693229       51.74179027183396
H           24.88433095867678       91.46738348864005       51.32057006094899
C           31.65124845278334       98.36869258008007       52.81165429849160
H           31.35763955887777       98.84768407323106       53.74582659968675
H           31.82868359072910       99.14442250841168       52.07084974310211
H           32.58835500354137       97.83834046376646       52.98398223173607
C           29.92654039872170       98.39373666216110       50.05691774866929
H           28.96471518486985       98.88899169070055       49.92232189943901
H           30.16931834495800       97.87011010739457       49.13190049356594
H           30.68250080149695       99.15631789110998       50.22743496651751
C           31.79997900897451       95.27304004310089       57.10489983730984
H           31.62154708172118       96.33967213299398       56.97864943494353
H           32.80647811546258       95.05333895465574       56.74395765591967
H           31.75737823372862       95.03626983925905       58.16603639937271
C           30.31298860481104       92.56245813358113       57.96910020959957
H           29.41692896778812       92.08789856963188       58.35194076498964
C           31.45773029966026       92.39452968879027       58.62354848673490
H           32.38751453335181       92.80188010653519       58.26657951845554
H           31.50774741449559       91.81746997714117       59.53204480592103
C           26.45325910947754       89.52605028838934       55.96631767810277
H           26.58723862473333       90.04002695326983       56.91698450817952
H           27.23077918835954       88.76502019140298       55.88233101432716
H           25.48502951073436       89.02943011031918       55.97259911956220
C           24.69098220930463       89.64344278157388       53.28398767911501
H           23.87768213640277       90.10902375619000       52.73875780066279
C           24.64847293823286       88.33380891836197       53.50662423651283
H           25.44892010440190       87.81036311832750       53.99956427391937
H           23.81669920889771       87.73327132755264       53.17738234664358
C           24.45660094431757       92.76262808278847       49.01888859133055
H           23.55374962162954       92.76282557669172       49.63037216513281
H           24.74732675504373       91.72586329824911       48.84719156177285
H           24.21903549389894       93.21454354454202       48.05905548128268
C           26.09681837119077       95.38342599871274       48.01658045483675
H           25.31980815224667       94.95846078074962       47.38589291950718
H           27.03281054156308       95.38012521229264       47.45769529391947
H           25.83564869959375       96.41998993116050       48.23141105265572
O           26.52648104337997       95.21137305873710       54.00662004340421
H           26.02281185005223       95.45577188785744       53.22254396912601
H           26.03810436746425       94.50887898451582       54.44954446046444
C           30.79797552642964       90.04519683973361       50.05284967035801
H           31.40413650459378       89.31762831520513       50.59241664787589
H           31.34651853248562       90.35253032943760       49.16251946333632
H           29.87341243089351       89.56735230820163       49.74460068669791
N           31.46553331742199       92.01145187182732       51.45285231686837
H           32.45754595001938       91.89101084346211       51.33022033336284
C           30.48955240997110       91.21551249171112       50.91286191469311
C           30.85410648170487       92.97613021857593       52.17651042380593
H           31.37186187961435       93.74412587820217       52.71369367097519
N           29.55110050731389       92.83936061778709       52.12707146273503
C           29.30912025131243       91.74886282866589       51.34458377644823
H           28.30979355165242       91.42196741272372       51.14597309891538
