72
 energy: -105.980696135973 gnorm: 0.000095448024 xtb: 6.7.1 (edcfbbe)
Fe          42.33729811628780       85.59038145072634      123.43291540966570
N           42.38268705636364       84.07604193024983      124.72545124697452
N           43.71922488630173       84.68325159600057      122.30627854247861
N           42.33005173443134       87.15530853182705      122.16140750082491
N           41.01850100909235       86.54808083385457      124.59929237375192
C           41.62982312888674       83.93476732746460      125.84564536948054
C           41.93007871865291       82.68476460510063      126.51070382768762
C           42.89574427988973       82.08140704221897      125.76912240011325
C           43.16522388520723       82.96757467939986      124.65711966675453
C           44.34505362081188       83.50567904397749      122.57558507533268
C           45.29658486290744       83.18242007800082      121.54354215181002
C           45.23098777799505       84.19817388859880      120.62775767522869
C           44.24659928046254       85.13262275635718      121.13778296677751
C           43.00562851481799       87.24701931767549      120.98082535971588
C           42.70838796974478       88.48885602350173      120.31769862260282
C           41.83582680023412       89.16161591196837      121.13258842254422
C           41.60134403961829       88.29688180672031      122.27015495276505
C           40.47955121037563       87.77906396041585      124.38969586834176
C           39.53958150370500       88.10960408301317      125.43776160150691
C           39.50897194147031       87.03842487037146      126.27473072486272
C           40.44031304060258       86.07376067711830      125.73422099744791
C           40.71076882300338       84.85204529441829      126.31800563786211
H           40.17571035141955       84.60225300016776      127.22080899441798
C           44.08880431885273       82.69656225898372      123.66869412208406
H           44.64850636407963       81.77784425187750      123.75007498650979
C           43.89448193161605       86.30393366651916      120.49584452181648
H           44.37160268129808       86.51545212875972      119.55180723935158
C           40.75841071014354       88.60800187647742      123.32054567076591
H           40.25608212022347       89.56196117617448      123.29084480212340
C           43.58338770512811       80.77856800553330      125.99026766589874
H           43.20670837804895       80.28991909539650      126.88528259899037
H           44.65659456317935       80.92897050542669      126.10785074072659
H           43.42582446379534       80.11135408020340      125.14240605763034
C           41.27296618273327       82.22214065940813      127.76504278491548
H           40.19270742979769       82.16049320339326      127.63221573533501
H           41.47432460382208       82.91674500190987      128.58082054808008
H           41.63945032728405       81.24024363800554      128.05379203429879
C           46.20040810676382       82.00012234452777      121.55359313001709
H           45.68207809548890       81.10854387313782      121.19613588295297
H           46.55954532555549       81.80045000885174      122.56188778530004
H           47.05706541512226       82.18098512245034      120.90776299175727
C           45.98649220673614       84.37966729749681      119.40759405776149
H           46.22940216593570       85.40502336604169      119.15428965808435
C           46.38418673122386       83.40389975991154      118.59806697060390
H           46.13173367643503       82.37301026302745      118.77569532506422
H           46.95800370500112       83.60825034751811      117.70956180856760
C           43.22335858078846       88.88937941884855      118.98006047871603
H           43.26851298189779       88.03092143329306      118.31149809714088
H           44.22747641542828       89.30968319795731      119.05841788033096
H           42.57062196044495       89.64025038189807      118.53980962363329
C           41.21281628495134       90.45236180074778      120.93640857538961
H           40.20629850433895       90.55011449018535      121.32562812541640
C           41.77774221411822       91.49499431171833      120.33708438715445
H           42.79031502380391       91.46839324046614      119.97374668918692
H           41.25052218918367       92.42602971004742      120.21204174899829
C           38.78071512850515       89.38925994916701      125.51175159978324
H           38.12961575962937       89.49722474868838      124.64405772009533
H           39.46194498188288       90.24019591390116      125.53160961877543
H           38.16528244625567       89.42198298660662      126.40721000859509
C           38.71073383029916       86.82986400423756      127.51489758245955
H           38.06487568426132       85.95802089357375      127.41064791010949
H           38.08660110275813       87.69519831002884      127.72303294716025
H           39.36640500611879       86.66498930261696      128.37021787222218
O           43.94168665539286       86.69103073739232      124.55314615556843
H           44.21323872464927       87.33184842491707      123.88589665567822
H           43.41628287011431       87.16788573926550      125.20609992519117
C           40.80866506400754       82.83296853730131      122.14487837238620
H           40.20482010959420       82.41584299638355      121.34485493245710
H           40.46500275040950       82.46376555937007      123.10547344540879
H           41.85871104371202       82.59480759103329      122.01403736843655
S           40.59059352831984       84.64697073994849      122.17496411042690
H           41.11345139857815       84.85087494023507      120.96035566168209
