87
 energy: -124.720509065948 gnorm: 0.000050448399 xtb: 6.7.1 (edcfbbe)
Fe           2.75180682065372       20.95647652336319       13.05309667973593
N            4.15141405246042       19.84962572545552       12.15680410905047
N            3.40195342398095       20.32824496063542       14.84042078680167
N            1.34736954103355       22.06917983377589       13.96135182571595
N            2.15130160940826       21.65180042759698       11.27136816790352
C            4.37860402018448       19.74870327000333       10.82177671604430
C            5.44609988868773       18.80842797864769       10.55404259507800
C            5.85918589603882       18.34712103720706       11.76343061938254
C            5.03902671380285       19.01328026723128       12.75222093312828
C            4.42375239678475       19.46552669747739       15.08131880732646
C            4.61462981461011       19.28287873378799       16.50319044170946
C            3.68138367338292       20.05990002665160       17.11582357790683
C            2.93366415452455       20.70411932091337       16.05919123752753
C            1.13789639429421       22.19125804216595       15.29654524810366
C            0.01560497047443       23.07002171933210       15.56121974433682
C           -0.42319323627555       23.50115615925009       14.33706982607563
C            0.42932959699741       22.87547241069005       13.35940529928804
C            1.15349943477473       22.54213195024131       11.03547697685113
C            1.02905941001429       22.80768730654787        9.61524329812326
C            1.99921895273144       22.05617244280081        9.00649080517769
C            2.68016254013897       21.34492188081274       10.05773938506684
C            3.71036635902183       20.44702395070284        9.83791179271496
H            4.00901450745792       20.27329515696808        8.81552680834118
C            5.18122349418290       18.83022237412618       14.11465081296864
H            5.94458394342121       18.14484511729117       14.45034076919039
C            1.87247695724380       21.55995135955737       16.28352939601078
H            1.59519700085649       21.74626039180604       17.30966194841913
C            0.32924406050671       23.09627142027215       11.99589620338852
H           -0.45317448981387       23.75857441009150       11.65810538437694
C            5.94060343742670       18.46284466578549        9.19150167080597
H            6.32106339699742       19.35005775185089        8.68437056792529
H            5.13438142990234       18.04744812922485        8.58685237051728
H            6.74150143819819       17.72941556166830        9.24472532554442
C            6.92784578596180       17.35920470765044       12.08503564140818
H            6.51266825669899       16.51243722156165       12.63164298079524
H            7.70105029602949       17.81497813125945       12.70468929299281
H            7.39452944363734       16.98506766934624       11.17717726712119
C            2.36186841909088       22.00646992316321        7.56342216007977
H            1.92785708301319       21.12813224182540        7.08251102776367
H            3.44273803357299       21.95838183014642        7.44000733120935
H            1.99178996068939       22.89435982302903        7.05460334850490
C            0.07080510373542       23.71681242200698        9.02715155303228
H           -0.18991386294552       24.57865191153201        9.63099081455146
C           -0.50278860750929       23.56960010890263        7.83717099276728
H           -0.31963506140877       22.71102355195060        7.21506822068046
H           -1.20041686556131       24.29597731703942        7.45436292164277
C           -1.50498413042402       24.47826700816251       14.03384555444193
H           -2.41936936882578       23.96650518221465       13.72812202087634
H           -1.20805459003659       25.14558804276150       13.22589840489406
H           -1.72462472164002       25.07672499771884       14.91562383802945
C           -0.47555041713193       23.40716917270775       16.87884206008349
H            0.27504123221376       23.46071588440151       17.65909143823365
C           -1.74627585765378       23.63920783439424       17.19164820314613
H           -2.53951182492729       23.55327202942037       16.46951428623633
H           -2.04103084406896       23.89941757679544       18.19478697637109
C            3.41895980567591       20.25167320903297       18.56999433422367
H            2.40969512667442       19.92558972287395       18.82322521796661
H            3.51202738759529       21.30345628689025       18.84153235628648
H            4.12320416688661       19.67965662470885       19.16921064325779
C            5.64784585628140       18.39332850346115       17.10538759756161
H            5.59877760430860       18.42368183761443       18.19107198432166
H            6.64794084281246       18.70099482146665       16.79836392668255
H            5.49902267948196       17.36191580067033       16.78452179176943
C            5.18886794706469       25.97733455148733       13.01139897198030
H            5.97441990721347       26.16246530198343       12.27885690561756
H            5.50994572189991       26.39102652979405       13.96741838644862
H            4.28832224690413       26.49362138267643       12.69408489584660
N            5.87171966260114       23.61853403827878       13.50360789348043
H            6.82989835072447       23.83444056285162       13.72477868077585
C            4.91206834605442       24.52359710995621       13.13207067999822
C            5.29750264869680       22.39485744765836       13.51756076482306
H            5.81258288580861       21.49190111692971       13.77235549882787
N            4.03406554884078       22.47013692050801       13.17811820860756
C            3.77928778818804       23.78719605977631       12.93516731413857
H            2.80574575242217       24.11587521332675       12.63680711481615
C            1.32363559517448       17.59933496559568       15.17999016953155
H            0.89201248212679       17.39016946638811       16.15682107841275
H            2.35465475916678       17.91202491985240       15.31507062329418
H            1.31475799818198       16.68717472405801       14.58805805361331
C            0.52997781457768       18.68790073737762       14.48410324487326
H            0.52224985138887       19.60627756572785       15.06869202080999
H           -0.49237887649445       18.35956242456817       14.29666068910481
S            1.27283883832112       19.06586455174787       12.84403435867988
C           -0.23466452845033       19.66468414516186       12.02057839527186
H           -0.63630996972109       20.51587325826884       12.56102111770132
H           -0.95792525555095       18.85475548356717       11.97281989378378
H            0.04996194852511       19.96781312382354       11.01911072219365
