87
 energy: -124.720484081654 gnorm: 0.000064543913 xtb: 6.7.1 (edcfbbe)
Fe         -48.27836753848850      -32.89664032466971       68.76501429833058
N          -46.66150136609277      -31.86944880777347       69.32899334501246
N          -48.42290160023807      -33.68920409598562       70.60062503575362
N          -49.90130148261918      -33.93167255851753       68.19015522024731
N          -48.09074112005478      -32.16983203257393       66.90843777458257
C          -45.93459191028379      -31.00804405205762       68.57310142377261
C          -44.86352622981089      -30.42185927719493       69.34989647032488
C          -44.95986072655944      -30.95762176990651       70.59479191716076
C          -46.09033006530606      -31.86104395681647       70.56099377889836
C          -47.58839812808981      -33.46888285190268       71.65039193899679
C          -48.00258300442004      -34.22670878825561       72.80314117986096
C          -49.12455129096126      -34.91712814034549       72.42768701989132
C          -49.35879191542087      -34.56983537653911       71.03938516313983
C          -50.66170925826615      -34.75443632255107       68.96471065860453
C          -51.75087448718958      -35.31203956617293       68.20523829290019
C          -51.62094320012380      -34.82308918809663       66.93202135360161
C          -50.44361285704669      -33.97733991499011       66.94694263348673
C          -48.86368914138222      -32.46820597688509       65.83159124837064
C          -48.39699811410593      -31.76659795905925       64.65653735387991
C          -47.32147388256513      -31.03392418920054       65.05219163977945
C          -47.14536665667308      -31.30179476272482       66.46243210461030
C          -46.14747643148460      -30.73683838197886       67.23482001523838
H          -45.47959479235379      -30.03871757840912       66.75349852491162
C          -46.50378063924607      -32.60899531627384       71.64350500835212
H          -45.94373362464337      -32.50747738010145       72.56039879146631
C          -50.42008421336190      -35.04944078755574       70.29608395579977
H          -51.11299966627710      -35.71387814077627       70.78938138833584
C          -49.96648185814791      -33.30029790489131       65.83951832230294
H          -50.49911576984992      -33.42521089245137       64.90935221281069
C          -44.11450001217947      -30.71274860401069       71.79726107890403
H          -43.33253334279247      -29.98919852485851       71.58004761369260
H          -43.64306253249891      -31.63796301293581       72.13019811206898
H          -44.72004051207853      -30.32762846973066       72.61770934860075
C          -43.88560644552128      -29.43004509824543       68.81942861237303
H          -44.40171463486748      -28.53783400680305       68.46466453233963
H          -43.32417374892317      -29.85011793426129       67.98411069219513
H          -43.17912098123352      -29.13305155481584       69.59058114645418
C          -47.28032538917169      -34.27197941769438       74.10419038859813
H          -47.54131666173072      -33.41304453166099       74.72489032989499
H          -46.20289826294805      -34.25857170349317       73.94664682133649
H          -47.54256137358457      -35.17884617548620       74.64549385865725
C          -49.93365978533861      -35.83705854594221       73.19566889183581
H          -50.37120432132465      -36.65646800375027       72.63666714288681
C          -50.17884208966707      -35.74566722552085       74.49881307261046
H          -49.81145109788217      -34.92872184865892       75.09494500660436
H          -50.78192154486997      -36.47676554642253       75.01128857114720
C          -52.74978226538387      -36.28669918598674       68.72408436156074
H          -53.54440732348628      -35.77739510213440       69.27239832906986
H          -52.27962562735792      -36.99962680232510       69.40005106395091
H          -53.19902905597844      -36.83506079257294       67.89859081664508
C          -52.43657875672382      -35.08114378385520       65.76620515635362
H          -51.90768648372239      -35.10416330871062       64.82026830296248
C          -53.75119497317400      -35.27649486823908       65.77330838893485
H          -54.33475452740881      -35.21733594399016       66.67554082523898
H          -54.29579503401579      -35.47772861067960       64.86568123416789
C          -49.02700420256617      -31.86832889325949       63.31006649447216
H          -50.06298914912921      -31.53005190705613       63.34548628949251
H          -49.02078597247119      -32.90099763426596       62.96034668420772
H          -48.49294833337255      -31.25816184536540       62.58570464726058
C          -46.45786078200145      -30.11598789964295       64.25656131636086
H          -46.78089302857418      -30.08370303053515       63.21893938021100
H          -45.41866043457040      -30.44528497185303       64.28225695214151
H          -46.50099190848404      -29.10410424787167       64.66051486949021
C          -46.08099624016675      -37.95003403812368       67.88604401363369
H          -45.14518654990732      -38.19765054360355       68.38702605771157
H          -46.02093311522156      -38.30451771790988       66.85703486400668
H          -46.89171000220419      -38.47030508197898       68.38633909350825
N          -45.46892687683420      -35.57662123233553       67.37079773451084
H          -44.60858280363463      -35.79461066971693       66.89548165768755
C          -46.32992035499665      -36.48683559964123       67.92608080033763
C          -45.98546609212102      -34.34466707354231       67.57783056186371
H          -45.52374379803055      -33.43622230064061       67.25055042402469
N          -47.11986759505160      -34.41959070194834       68.22947842969535
C          -47.34746640511283      -35.74490707960464       68.45367292080807
H          -48.22117422725752      -36.07500039298439       68.97570941335505
C          -50.19674328340398      -29.45272541838180       67.23411557804415
H          -50.88750722514096      -29.21151936967728       66.42855050176512
H          -49.25169023278803      -29.76440708715858       66.79984739491292
H          -50.02449709850583      -28.55953561408590       67.82994690371684
C          -50.77153596035068      -30.55986851969789       68.09607540223209
H          -50.95885601288894      -31.45858373641733       67.51099639868178
H          -51.69276556238331      -30.23355610879317       68.57871193387994
S          -49.59489943901247      -30.99425598176481       69.44207784510478
C          -50.81186553260107      -31.59934131073058       70.65137810122155
H          -51.36655868959064      -32.43200990286535       70.23076242729186
H          -51.47660982966251      -30.78365456109413       70.92369197635831
H          -50.25619550704076      -31.93139463002586       71.52135116244581
