87
 energy: -124.720440450433 gnorm: 0.000034676262 xtb: 6.7.1 (edcfbbe)
Fe         -37.24725197805839        5.76498460305269        0.66705316197070
N          -35.96657283742624        4.23257705375966        0.81548147680341
N          -37.02524004196871        5.74515826877955       -1.32671789504745
N          -38.59191338043167        7.24229208258936        0.49661843123215
N          -37.46524255500867        5.78273241618530        2.65453540024009
C          -35.55549710075871        3.62299711569736        1.95917009689200
C          -34.65446308980598        2.53122167588299        1.66092175207992
C          -34.53498247106228        2.49533724853793        0.30667167408407
C          -35.36065218867535        3.56774259274748       -0.20188031419780
C          -36.24838882342905        4.90205806504481       -2.05677258523227
C          -36.34575046294122        5.20780868574993       -3.46697091483738
C          -37.21775214060697        6.24584260649766       -3.57297893950662
C          -37.64283541207272        6.55670472551410       -2.22589048717750
C          -39.03308786659453        7.82135620871449       -0.64853182155186
C          -40.02109622970817        8.84208934425343       -0.35941788884870
C          -40.16742253404042        8.84815741030177        1.00274843520688
C          -39.26640438775326        7.84585731909314        1.51113846854394
C          -38.25853973023450        6.61097688426277        3.37776353162511
C          -38.09798672708306        6.36300408962678        4.79836083159270
C          -37.19112053655536        5.34286578940193        4.90249549936907
C          -36.81465854114890        4.99869942846929        3.55484785745743
C          -35.92566260570511        3.98571951323990        3.23946021002700
H          -35.48728906561504        3.43309311432593        4.05651751383674
C          -35.47720279025366        3.87588788430132       -1.54450567511147
H          -34.92341150687508        3.27052302771700       -2.24561484799295
C          -38.57914089859364        7.52750524949839       -1.92165481150478
H          -38.99241631188283        8.09189206062759       -2.74359080503340
C          -39.10111033813291        7.57188612088282        2.85698870945906
H          -39.67196457328446        8.16491123011807        3.55481847980275
C          -34.01535839196794        1.66291111602691        2.69001619708725
H          -34.77144886599755        1.15048633738161        3.28579289365794
H          -33.40040075229702        2.25849117258566        3.36531134357058
H          -33.38173734269319        0.91274182300788        2.22329687663955
C          -33.73093173965481        1.57564491770131       -0.54666352366795
H          -32.98671305406465        2.13362168382215       -1.11576956729698
H          -34.37225179819571        1.04963816072276       -1.25419012681640
H          -33.21300828263494        0.83745369682896        0.06079781643782
C          -36.71573814613135        4.64911796086554        6.13133132834246
H          -35.73853694966287        5.02677149344803        6.43620786579992
H          -36.62322209965571        3.57724397691618        5.96092060451433
H          -37.41697953691396        4.81256663734472        6.94723070205491
C          -38.80722227674125        7.06530699202517        5.84474031406571
H          -39.81357365605520        7.38323892573071        5.59698804219921
C          -38.32273046401190        7.34698746096802        7.04987313658534
H          -37.31450799895053        7.10081880611618        7.33351642965715
H          -38.91358920869292        7.86391592340472        7.78790074170797
C          -41.10668821583228        9.65496227293113        1.82919958513149
H          -40.59631543476429       10.50965208387776        2.27651963520590
H          -41.52433995791125        9.05305232983015        2.63489049880762
H          -41.92275304488344       10.02613014231919        1.21239204236645
C          -40.69836325697841        9.63904487415265       -1.35793477850236
H          -40.88140999238701        9.14581523948145       -2.30589884185439
C          -41.09190276162835       10.89908997497498       -1.20289113493310
H          -40.89478631518351       11.45423874632117       -0.30250998554684
H          -41.60550051882603       11.42948940646291       -1.98762660421103
C          -37.69200416396119        6.96225147071090       -4.79073561928447
H          -37.19889575169851        6.57952321379678       -5.68099928979827
H          -37.48397047804258        8.02991642323869       -4.71490799788583
H          -38.76812964021418        6.83656258828759       -4.91533616888575
C          -35.60657279674813        4.48140666212900       -4.53780062416864
H          -35.82456161710049        4.90614903134947       -5.51468475552378
H          -35.88923978053002        3.42838173009225       -4.55128088287868
H          -34.53065070087917        4.53994512145216       -4.37033265864346
C          -41.81164801855370        2.92571036771699       -0.83404054790691
H          -42.65514301134460        2.92397810209091       -0.14369599315609
H          -41.68583281607170        1.91447665699822       -1.22092977869338
H          -42.04141859719505        3.58917717771592       -1.66184126789037
N          -40.04047213215136        2.73863910367304        0.92688249949074
H          -40.41488884172448        1.91044190188760        1.35995408725818
C          -40.57529977412822        3.38866374083377       -0.15455202562139
C          -38.92973876009896        3.41187104941422        1.30140882487337
H          -38.30487253333868        3.12994910224394        2.12339491660005
N          -38.72901486935405        4.44726223833771        0.52369224449288
C          -39.74350753286223        4.44621028254606       -0.38692959112763
H          -39.80762457463275        5.20058005935966       -1.14296167910825
C          -33.05396211742126        6.06080601802542        1.05593984341877
H          -32.16989534364214        5.69758565078661        0.53552321899976
H          -33.56715087151461        5.21436535185612        1.50232383694883
H          -32.74289648461394        6.73381365051637        1.85136758264985
C          -33.97057712631295        6.77958352787714        0.08509434892379
H          -34.28698750958647        6.12052585089800       -0.72154266273987
H          -33.48053607318020        7.66175260216503       -0.32693867116354
S          -35.47934102439003        7.37068235631979        0.95648227564954
C          -35.86241344481419        8.77611855041462       -0.13263387027643
H          -36.01918611213176        8.42376247503553       -1.14714805993400
H          -35.04591049059466        9.49213624746700       -0.08814925195580
H          -36.77358982274824        9.22845772463513        0.24287168213106
