87
 energy: -124.474765370707 gnorm: 0.282534584234 xtb: 6.7.1 (edcfbbe)
Fe         -37.27800000000000        5.79600000000000        0.68300000000000
N          -36.01800000000000        4.19100000000000        0.78900000000000
N          -37.07699999999999        5.68800000000000       -1.46600000000000
N          -38.55299999999999        7.26900000000000        0.48000000000000
N          -37.43800000000000        5.80300000000000        2.77100000000000
C          -35.55000000000000        3.65400000000000        1.97900000000000
C          -34.50000000000000        2.71300000000000        1.65500000000000
C          -34.33700000000000        2.68500000000000        0.32400000000000
C          -35.29900000000000        3.61000000000000       -0.25200000000000
C          -36.25400000000000        4.84900000000000       -2.17000000000000
C          -36.40400000000000        5.17800000000000       -3.57500000000000
C          -37.27600000000000        6.17900000000000       -3.67800000000000
C          -37.71800000000000        6.52400000000000       -2.34800000000000
C          -38.97900000000000        7.83600000000000       -0.71300000000000
C          -39.91100000000000        8.88800000000000       -0.39400000000000
C          -40.02499999999999        8.95600000000000        0.94500000000000
C          -39.17400000000000        7.93100000000000        1.52900000000000
C          -38.27400000000000        6.64600000000000        3.47500000000000
C          -38.22900000000000        6.22900000000000        4.86900000000000
C          -37.35000000000000        5.21000000000000        4.95800000000000
C          -36.85699999999999        4.91500000000000        3.63000000000000
C          -35.96599999999999        3.93900000000000        3.26700000000000
H          -35.54600000000000        3.33100000000000        4.06800000000000
C          -35.45200000000000        3.87800000000000       -1.60800000000000
H          -34.88000000000000        3.25700000000000       -2.29700000000000
C          -38.61600000000000        7.50100000000000       -2.00200000000000
H          -39.08199999999999        8.06000000000000       -2.81300000000000
C          -39.02900000000000        7.65900000000000        2.89300000000000
H          -39.56799999999999        8.31400000000000        3.57700000000000
C          -33.71500000000000        1.90400000000000        2.71400000000000
H          -34.60199999999999        1.43800000000000        3.19500000000000
H          -33.39200000000000        2.77600000000000        3.32200000000000
H          -32.89700000000000        1.15400000000000        2.66300000000000
C          -33.32500000000000        1.81100000000000       -0.45700000000000
H          -32.84500000000000        2.65200000000000       -1.00200000000000
H          -34.07099999999999        1.32800000000000       -1.12400000000000
H          -32.54300000000000        1.07700000000000       -0.16700000000000
C          -36.94300000000000        4.41300000000000        6.22200000000000
H          -36.54100000000000        5.33800000000000        6.68900000000000
H          -36.34000000000000        3.54500000000000        6.56400000000000
H          -38.00200000000000        4.28500000000000        6.53100000000000
C          -38.98999999999999        6.90500000000000        6.02400000000000
H          -39.99099999999999        6.57300000000000        6.31000000000000
C          -38.30500000000000        7.30700000000000        7.07200000000000
H          -37.27400000000000        7.67400000000000        6.95800000000000
H          -38.75399999999999        7.28100000000000        8.07600000000000
C          -40.90800000000000        9.92100000000000        1.75400000000000
H          -40.08900000000000       10.33100000000000        2.38300000000000
H          -41.44899999999999        9.14000000000000        2.33000000000000
H          -41.60300000000000       10.74500000000000        1.48600000000000
C          -40.56100000000000        9.75800000000000       -1.51700000000000
H          -40.36400000000000        9.29600000000000       -2.47200000000000
C          -41.16300000000000       10.93100000000000       -1.25000000000000
H          -41.29099999999999       11.26900000000000       -0.21100000000000
H          -41.53400000000000       11.56700000000000       -2.06700000000000
C          -37.72099999999999        6.84000000000000       -5.00200000000000
H          -36.67099999999999        7.03400000000000       -5.30800000000000
H          -38.36100000000000        7.67500000000000       -5.36000000000000
H          -38.05700000000000        5.88300000000000       -5.45500000000000
C          -35.68200000000000        4.52300000000000       -4.76800000000000
H          -35.27300000000000        5.48500000000000       -5.14300000000000
H          -36.63400000000000        4.30600000000000       -5.29800000000000
H          -34.94500000000000        3.71600000000000       -4.96600000000000
C          -42.06099999999999        2.95600000000000       -0.74800000000000
H          -42.92099999999999        3.30100000000000       -0.13600000000000
H          -42.14300000000000        1.85800000000000       -0.89900000000000
H          -42.08500000000000        3.47700000000000       -1.72900000000000
N          -40.48500000000000        2.77300000000000        1.20800000000000
H          -41.08000000000000        2.16600000000000        1.73400000000000
C          -40.78500000000000        3.27400000000000       -0.03900000000000
C          -39.30099999999999        3.22000000000000        1.58500000000000
H          -38.81699999999999        2.96800000000000        2.52800000000000
N          -38.83000000000000        4.00300000000000        0.63500000000000
C          -39.73800000000000        4.05500000000000       -0.39300000000000
H          -39.55199999999999        4.64500000000000       -1.28200000000000
C          -33.05400000000000        5.84400000000000        0.88500000000000
H          -32.21800000000000        5.38300000000000        0.31600000000000
H          -33.68200000000000        5.03300000000000        1.31100000000000
H          -32.62800000000000        6.45800000000000        1.70700000000000
C          -33.89000000000000        6.71700000000000       -0.03200000000000
H          -34.15200000000000        6.13800000000000       -0.94300000000000
H          -33.28800000000000        7.59800000000000       -0.34100000000000
S          -35.38200000000000        7.25800000000000        0.79600000000000
C          -35.77200000000000        8.83400000000000        0.03800000000000
H          -35.93900000000000        8.72600000000000       -1.05500000000000
H          -34.93600000000000        9.54900000000000        0.18800000000000
H          -36.69600000000000        9.25700000000000        0.48600000000000
87
 energy: -124.588013665431 gnorm: 0.156311261598 xtb: 6.7.1 (edcfbbe)
Fe         -37.27019056738740        5.76669842469466        0.66715068230406
N          -35.99082762508176        4.19676999074531        0.79174100609495
N          -37.07255134259873        5.69250498935625       -1.44086882057163
N          -38.55678591545096        7.26373954185581        0.47977570616262
N          -37.44834060842462        5.80686382468870        2.74047846494588
C          -35.53852993938145        3.64635640416206        1.96768691835010
C          -34.48943804564618        2.69184487018278        1.65944884020077
C          -34.33173726285361        2.66490132852861        0.32579463017849
C          -35.29286964538986        3.60395647940038       -0.23906639413455
C          -36.26514157027636        4.85191775729489       -2.15033141798671
C          -36.39495860087146        5.16525395769387       -3.55538770496052
C          -37.28533618420319        6.18495828506195       -3.66198239130013
C          -37.71032202626775        6.51181451398108       -2.32836593794210
C          -38.98707225315233        7.83448094386126       -0.70117735429225
C          -39.92123977421012        8.90349282327138       -0.41492994409376
C          -40.03540133770918        8.96937015583745        0.93411191713250
C          -39.17791518554737        7.93596882865646        1.51245932697517
C          -38.27170876075414        6.63726291627842        3.45504934880511
C          -38.22394733676301        6.24208220574570        4.85699147670390
C          -37.34585604119444        5.19832411566971        4.93706034090482
C          -36.86929236112281        4.92786722158205        3.60493431097401
C          -35.96729207201018        3.94003054716883        3.25292551402435
H          -35.55100020266099        3.34127517023687        4.06007966233869
C          -35.45361758570097        3.87491383002496       -1.59435872393919
H          -34.88062934258770        3.26586580080208       -2.28962896854295
C          -38.61323830519411        7.49467954303393       -1.98860589384537
H          -39.06674365271849        8.04824051848496       -2.80587206736205
C          -39.02863474807451        7.65726115114346        2.87797890514038
H          -39.56784003184457        8.30289715126495        3.56867991019971
C          -33.74633093254074        1.92755227597049        2.74039249588470
H          -34.58375881926025        1.42401027001864        3.23747062032055
H          -33.37969014144651        2.75324213152405        3.36145846093245
H          -32.93308238894634        1.19438628144485        2.60857295866818
C          -33.35117919293110        1.84016565779234       -0.49425639503670
H          -32.82553519076190        2.63117064597111       -1.04161828247003
H          -34.04306210560796        1.31251162256611       -1.16052562149686
H          -32.59804436689902        1.12117964382078       -0.12525451985647
C          -36.97728837787984        4.46189981011711        6.23129192331546
H          -36.54448082762998        5.32368121519571        6.75358203348456
H          -36.35727220314106        3.57832109180828        6.47500079977861
H          -37.99578020722981        4.27769245886987        6.59458724995139
C          -38.96171133775420        6.83431394818469        6.03342468373067
H          -39.99485624573806        6.56444833027539        6.26545675310110
C          -38.29300080202644        7.30697517716834        7.07890028890596
H          -37.27290665495541        7.66188415669850        6.97313969764364
H          -38.74971894064466        7.32898381428834        8.06638249725719
C          -40.88300350662625        9.89113064376671        1.79337499479690
H          -40.11095879574580       10.34770219295084        2.42335056974066
H          -41.46404631189275        9.16249038101378        2.36876058133643
H          -41.56489254922838       10.69055843141798        1.46243521949096
C          -40.54598799049464        9.75583073938393       -1.48794340810474
H          -40.38074362543813        9.31725387348210       -2.46232734038797
C          -41.15328902401138       10.91715800377967       -1.25406649679157
H          -41.28351594362489       11.27532583179657       -0.24214177999988
H          -41.53120764092711       11.54620391268903       -2.05867687908329
C          -37.68584162768643        6.80256412226872       -5.00224717822635
H          -36.67833986564339        7.04144208494138       -5.36904757191435
H          -38.34712344129269        7.64407683315649       -5.27623221643946
H          -38.05563801471532        5.89944437460109       -5.50720892170701
C          -35.71182444402481        4.55795049279981       -4.77623402245970
H          -35.26247330201360        5.46915771942059       -5.19533530438019
H          -36.61068503439324        4.29703195141280       -5.35164573236200
H          -34.97887722867559        3.74157909214738       -4.89098915201946
C          -42.06320524855337        2.95429852016560       -0.74532189486286
H          -42.91792759578390        3.29412799434918       -0.14636413738474
H          -42.14884297473382        1.87093905124374       -0.90184724753231
H          -42.08528092499012        3.46623164241885       -1.71367998114076
N          -40.49393965314341        2.76771671231683        1.20164197740967
H          -41.08796936241440        2.15697804377700        1.73359478179152
C          -40.79253429607572        3.27175415668797       -0.03983268372416
C          -39.29625724620865        3.23748542359240        1.57419289291911
H          -38.81630375111997        2.98268340849400        2.50812437883385
N          -38.82105048135850        4.03166791350622        0.64016971091692
C          -39.73291459134020        4.05628359294405       -0.38066431939592
H          -39.55074230729370        4.63838766724384       -1.26730317294617
C          -33.05250993474236        5.84846598628802        0.88464280632213
H          -32.22723773990623        5.38966862897977        0.32511644659551
H          -33.66670102659421        5.04892568057436        1.30988374912401
H          -32.63352765192320        6.44794799433945        1.70109003851591
C          -33.88885495307147        6.71854017904430       -0.04075130788243
H          -34.15679259216648        6.14627293976774       -0.94059593358178
H          -33.30096746949316        7.59782744379387       -0.34202335778621
S          -35.38807095612553        7.26456490516551        0.82252202709606
C          -35.76586079299715        8.83957603858095        0.02599609832305
H          -35.93926810552559        8.72205703043529       -1.05014576832278
H          -34.94131163160210        9.54459013104231        0.18754643901883
H          -36.67832330593070        9.24309641179659        0.48240610962598
87
 energy: -124.651619898516 gnorm: 0.063602070871 xtb: 6.7.1 (edcfbbe)
Fe         -37.26160147528365        5.73776035738650        0.65371818794191
N          -35.97193387516562        4.20144550396375        0.79287597520896
N          -37.06944732402442        5.69107305114200       -1.41933848097827
N          -38.56794141719217        7.25810021948197        0.47730376936871
N          -37.46241693025173        5.80191140169384        2.71514360014094
C          -35.52890855278307        3.64373950679574        1.95602772138453
C          -34.47988212971077        2.67317040663542        1.66446193186053
C          -34.32655128259636        2.64720634962230        0.32513317689481
C          -35.28768990613981        3.60257428091933       -0.22689609022447
C          -36.27114777991549        4.85371653818005       -2.13629813329968
C          -36.38678618396157        5.15318697793623       -3.54212289159321
C          -37.29074438365728        6.18802698739223       -3.65127695507122
C          -37.70212595648256        6.50009474616569       -2.31275083863228
C          -38.99629190573475        7.83189407699484       -0.68936238824459
C          -39.92858566979078        8.91851466016910       -0.42362021537546
C          -40.04167069998917        8.98026658774698        0.93697835472315
C          -39.18337661140786        7.93466085658421        1.49908055235452
C          -38.27372284021459        6.62530903188582        3.43572347120468
C          -38.22065373871077        6.25460725330789        4.84574506790165
C          -37.34159796401590        5.19005870989537        4.92181300199054
C          -36.88211532642845        4.93419265723451        3.58499149816263
C          -35.96845963983568        3.94181255559956        3.23872789167454
H          -35.55710601754111        3.35331949727143        4.05087316533063
C          -35.45068325778943        3.87342656760549       -1.58151946318751
H          -34.87994597213532        3.27412613596234       -2.28135006178030
C          -38.61095237196776        7.48944472150852       -1.97513432982599
H          -39.05219428804586        8.03830446113590       -2.79757562284930
C          -39.03104407707453        7.65231471269301        2.86365369635638
H          -39.56831666265096        8.28965685684072        3.55962195230432
C          -33.77680331448984        1.94868626890846        2.76247734317243
H          -34.56527099391364        1.40954555864769        3.28458713209422
H          -33.36899183276807        2.73033807426450        3.40160668173609
H          -32.96933097011516        1.23426105478453        2.54288045660213
C          -33.37936371560670        1.86700826618687       -0.52769037324768
H          -32.80978518846275        2.61128372530611       -1.08107175702957
H          -34.01562220039883        1.29808154994105       -1.20300200783148
H          -32.65720958570028        1.16740629370777       -0.07391572388463
C          -37.01059231290931        4.51197522189786        6.23179024800304
H          -36.54891096938524        5.31141979696061        6.80984993053119
H          -36.37357139689711        3.61396583468502        6.36270137690037
H          -37.99053097733036        4.27540100505930        6.64860744856909
C          -38.92936945511788        6.78426184593408        6.03205085064048
H          -39.98172145473311        6.54694368764703        6.21023036215050
C          -38.28482047213259        7.30671447397457        7.07298124142566
H          -37.26662538310698        7.64202035720628        6.98578676022324
H          -38.75477737393008        7.37783607615526        8.04430443503138
C          -40.85775400490358        9.86090908544972        1.83079596644808
H          -40.13093744741922       10.36045207496726        2.46769956053507
H          -41.47417004507307        9.18022686698791        2.41255002170443
H          -41.52397150819208       10.63381215664536        1.42472273676170
C          -40.52819198372531        9.74217615599900       -1.45508403633155
H          -40.39573781929306        9.34082196603730       -2.45660302924213
C          -41.14519182043021       10.90355937057242       -1.25725714417479
H          -41.27649976942158       11.29073937994796       -0.26546210491508
H          -41.52907403604770       11.52099492835627       -2.05641589161581
C          -37.65278096903592        6.76521008885622       -4.99484053380194
H          -36.68590229987801        7.04652721622057       -5.41957656046600
H          -38.33656656327376        7.61498277961431       -5.16928301547702
H          -38.05292356232371        5.91320747134620       -5.55108668281654
C          -35.74062819530298        4.58988969989216       -4.77766215064348
H          -35.25429400074404        5.45379723632260       -5.23843523731448
H          -36.58938595946849        4.28925454731579       -5.39673014739042
H          -35.01210922990764        3.76346057705948       -4.79483035531525
C          -42.06293943683669        2.95323184304451       -0.74465327862115
H          -42.91494149886116        3.28859834010971       -0.15326881312796
H          -42.15253116636309        1.87892671983099       -0.90418063166936
H          -42.08503756439077        3.45921082944937       -1.70500108229818
N          -40.49544128167508        2.76478065640618        1.19645662444728
H          -41.08594439710485        2.15106076238916        1.73407623353623
C          -40.79526656080899        3.27149423895036       -0.04142210705524
C          -39.29207496960156        3.25972898262203        1.56559715725291
H          -38.81480095140913        3.00116422536387        2.49213892834796
N          -38.81774914878790        4.06055036894962        0.64281237283685
C          -39.73213895751456        4.06445772639937       -0.36984175179789
H          -39.55525774434178        4.63704272788151       -1.25829214965233
C          -33.04756813693010        5.85128649066028        0.88443841977538
H          -32.22984334050038        5.39566054468335        0.32957389797037
H          -33.65653838148608        5.06157623977688        1.30908285302327
H          -32.63768504044015        6.44615561106638        1.69608247992614
C          -33.88343214101076        6.71839200075457       -0.04667744517504
H          -34.16804815702822        6.15411107592423       -0.93482690535659
H          -33.31614130235197        7.60205825856442       -0.34126665040529
S          -35.39275969666645        7.26998316225814        0.84438890928969
C          -35.76352788196206        8.84653580116121        0.01628384130285
H          -35.93720938811131        8.71127927509205       -1.04638993570252
H          -34.94304434784858        9.53906686061999        0.18555874628647
H          -36.66776745603271        9.23356089543388        0.48002694209383
87
 energy: -124.678733903644 gnorm: 0.048427682758 xtb: 6.7.1 (edcfbbe)
Fe         -37.25800415625362        5.71789136696186        0.64533220303224
N          -35.96374853454359        4.21002267432747        0.79188176322621
N          -37.06519818020234        5.68376486713514       -1.40647969140198
N          -38.57889811515047        7.24606407078641        0.47466984077814
N          -37.47535287145255        5.78856157093177        2.69480573013472
C          -35.52848344932971        3.64650567131567        1.94954700574716
C          -34.48453724068616        2.66713497041567        1.66658824067911
C          -34.33266674545727        2.64146067162775        0.32221661192532
C          -35.28753756208819        3.60521530191003       -0.22211280855488
C          -36.26905236413681        4.84969595269831       -2.12839313437036
C          -36.38413791186601        5.14702094908315       -3.53314906438382
C          -37.28823608666104        6.18301007982611       -3.64071008460167
C          -37.69800943458376        6.49184169017513       -2.30031962525025
C          -39.00306716506216        7.82401046196289       -0.68167000433426
C          -39.92836735781978        8.91937329831767       -0.41098206281116
C          -40.03747306164097        8.97469974882370        0.95531287111700
C          -39.18632632737199        7.92142301607352        1.49476899744054
C          -38.27881031655505        6.61517490724939        3.41537515291278
C          -38.21486396244904        6.26332234409230        4.82582321140881
C          -37.33862378241658        5.19776946123203        4.90891761428789
C          -36.89078858676214        4.93198675251375        3.57037155921554
C          -35.97210208827890        3.94331580863831        3.22787665705223
H          -35.56163999264247        3.36431104755070        4.04340783524197
C          -35.44591426817993        3.87169808345674       -1.57416914355762
H          -34.87321983399076        3.27913543677919       -2.27398736710468
C          -38.60912069739685        7.48225690685230       -1.96386295157340
H          -39.03789475397798        8.03144358108402       -2.78964696883887
C          -39.03666647872254        7.64169721010888        2.85345081179375
H          -39.57248004447963        8.27377779126366        3.55147400980262
C          -33.79387863591462        1.95698374748771        2.77311414092827
H          -34.54390023037107        1.39127205038986        3.33022252416180
H          -33.35721405297824        2.70530173388418        3.43771036256042
H          -32.99559540641542        1.26152434199782        2.47735956304796
C          -33.39851142598991        1.88039561166216       -0.54754244395505
H          -32.79694298019781        2.59104149460557       -1.11682452573522
H          -33.98883176500486        1.28292136170213       -1.24503327171460
H          -32.70616771970970        1.20286673103526       -0.02443666085355
C          -37.02700798236965        4.54210524385273        6.21832411885852
H          -36.54950864824164        5.29476033766245        6.85262355782307
H          -36.38322059584043        3.64094648872346        6.24815377075354
H          -37.97952557720593        4.27496521716279        6.68797144551900
C          -38.90911532604137        6.76413411149944        6.01736443534914
H          -39.96640946507207        6.52825609644195        6.15049878148477
C          -38.28182617286001        7.30113300491212        7.05779650577848
H          -37.25270740655586        7.61331828582549        6.99412533120650
H          -38.77733193395764        7.44520418472349        8.01349442083662
C          -40.84079175269328        9.83685721437379        1.86404704619243
H          -40.15020061667144       10.37118594482776        2.51820748058698
H          -41.47991724523713        9.19133623978415        2.46551826695402
H          -41.49167636039394       10.58212314099655        1.39338459857331
C          -40.51950686413542        9.73932998667182       -1.43729438600148
H          -40.40995316420943        9.36025662143527       -2.45069927098369
C          -41.14044602014883       10.90459804155384       -1.26321537598167
H          -41.26641643302703       11.32509038176105       -0.28280049442863
H          -41.53521907837669       11.49488087994477       -2.07277054316178
C          -37.63829030671593        6.74626585795089       -4.97765348122546
H          -36.70091030341184        7.05564225957923       -5.45685545406167
H          -38.33710051109065        7.59851700670491       -5.05444139034586
H          -38.05412985276681        5.93144845597940       -5.58287703838137
C          -35.75205943350295        4.59935667862164       -4.76720232363050
H          -35.24139954523547        5.42943992861154       -5.26951499571943
H          -36.56274275291194        4.27445705770229       -5.42967830356745
H          -35.03204530921963        3.76908114773310       -4.69104596277742
C          -42.06087974427532        2.95177091396030       -0.74476955359642
H          -42.91554645857491        3.28448108959867       -0.15607262378694
H          -42.15308078887076        1.87853727505403       -0.90663724569141
H          -42.08433879244075        3.45640105806505       -1.70485348497641
N          -40.48767382575834        2.76908565536341        1.19363084979633
H          -41.07118783204702        2.14923279778849        1.73319446904053
C          -40.79362563048934        3.27557297383295       -0.04311354882418
C          -39.28912425051612        3.28551928330344        1.56146244543616
H          -38.80833275063829        3.02833323918407        2.48424748645914
N          -38.82459055950797        4.09268962804860        0.64181535919609
C          -39.73906452945413        4.08179886814731       -0.36775593045062
H          -39.56831388202973        4.64846373306617       -1.25950242374037
C          -33.04224252134417        5.85950928081206        0.88234163033832
H          -32.22470970513844        5.40427569127091        0.32866477735388
H          -33.64793524333373        5.07036168064900        1.31093637630133
H          -32.63582718033260        6.45508254198297        1.69417774669308
C          -33.88510370861565        6.72198258000231       -0.04432494183473
H          -34.18761711605612        6.16155574769317       -0.92725121987037
H          -33.33457476255396        7.61344166292992       -0.34127938849167
S          -35.39568355582978        7.27313696988085        0.86594906927347
C          -35.76159634858199        8.84518660722005        0.01326084515660
H          -35.93433108632878        8.69056974178451       -1.04623122578747
H          -34.93971441336953        9.53468867870847        0.18026119492853
H          -36.66418306927988        9.22873972065976        0.47748169997397
87
 energy: -124.691150771667 gnorm: 0.038716446434 xtb: 6.7.1 (edcfbbe)
Fe         -37.25989918442026        5.70185193853716        0.64155770251578
N          -35.96495706257204        4.21565986869614        0.79030360385311
N          -37.06180907128860        5.67512027426261       -1.39609449450739
N          -38.58814097401211        7.23029396971914        0.47327934969417
N          -37.48576368330423        5.76974723281855        2.67670144368464
C          -35.53194049286849        3.64711738382366        1.94485838519555
C          -34.49467123736115        2.66358538213765        1.66666623097145
C          -34.34330198904706        2.63876894774431        0.31827106923180
C          -35.28990722126048        3.60745763434512       -0.21980756111035
C          -36.26534706235297        4.84399746779714       -2.12199550971626
C          -36.38369105281209        5.14308557413959       -3.52576082384228
C          -37.28465079627262        6.17527645640813       -3.62972468714233
C          -37.69698643573351        6.48528969423412       -2.28790372128329
C          -39.00935308470930        7.81795338611465       -0.67495387583208
C          -39.92603450594130        8.91889904430914       -0.39138086495260
C          -40.03173383389603        8.96328677766225        0.97752462698866
C          -39.19024620310675        7.90232070881275        1.49441107606730
C          -38.28408636723815        6.60127323221328        3.39636160983385
C          -38.20589071807893        6.26756304829828        4.80490027105116
C          -37.33433485526723        5.20722934490837        4.89888534155335
C          -36.89497269748798        4.92509224520042        3.55905847747771
C          -35.97450944417880        3.94204950510254        3.22035301416956
H          -35.56123308937450        3.37067974508779        4.03767330179639
C          -35.44068426870445        3.87047199437820       -1.56997732832907
H          -34.86187204192758        3.28284310267275       -2.26704811371759
C          -38.60786370498892        7.47604385477032       -1.95378800382362
H          -39.02483498227450        8.02846716509682       -2.78202923520597
C          -39.04520585435644        7.62393046378917        2.84739885456487
H          -39.58057123958352        8.25152869861551        3.54679100606943
C          -33.79931194609210        1.95270962669106        2.77074007642637
H          -34.52092123480617        1.36949027198934        3.34996995589136