72
 energy: -105.979970599982 gnorm: 0.000063911089 xtb: 6.7.1 (edcfbbe)
Fe          16.30531985979669       -2.69257715588930       20.07826652981276
N           17.34790163516421       -3.70318602071805       18.71608365379210
N           15.90775224516893       -1.26520096578828       18.73172116107520
N           15.28527471779742       -1.65519661331614       21.47587087416910
N           16.78758814149851       -4.05712562220935       21.46288394917671
C           17.97414896626100       -4.89521283566483       18.88540350550338
C           18.58505394893408       -5.33316738245107       17.64837908503580
C           18.32326311987316       -4.36555987986897       16.73099472871035
C           17.55231771408857       -3.35261392272120       17.41972311855172
C           16.34565478555059       -1.21722461719195       17.44447844676159
C           15.88753032270112       -0.01807118188444       16.79075431157106
C           15.15074568045357        0.66851936770596       17.71838192755731
C           15.19041803876389       -0.12827856138120       18.92913269536839
C           14.59508994013785       -0.49593832675719       21.28321599964743
C           13.92255916038412       -0.09938326700936       22.49050388026309
C           14.19924948719287       -1.06291013698803       23.42304736177004
C           15.06713388054580       -2.01800169764541       22.76756290778695
C           16.44925021371478       -4.04369379189394       22.78052652136114
C           17.00110489164839       -5.19465685546186       23.46024289505782
C           17.65810632047860       -5.91777709521099       22.51446295199538
C           17.51326011511410       -5.19032741853052       21.27343276377582
C           18.05542574825441       -5.59966061963362       20.07107981902534
H           18.59637662670024       -6.53294474281095       20.06082639074543
C           17.10130410475451       -2.19446905512805       16.82052744392796
H           17.35629826075618       -2.04001824553843       15.78365741903552
C           14.55130196438549        0.22353934018882       20.10200636919545
H           13.97770935141375        1.13723639582507       20.10439903694981
C           15.65535786526771       -3.09781647714955       23.39892311278281
H           15.46659366952850       -3.21622063641949       24.45375679129695
C           18.71605087109586       -4.29061887881419       15.29595573924344
H           19.27647641280752       -5.17454761384356       15.00214344887625
H           19.33927472205816       -3.41451566389629       15.11618616907415
H           17.83424295472329       -4.21532808953455       14.65910160976797
C           19.34268659029173       -6.60611084445878       17.49101255305103
H           18.71913827803166       -7.45932923479368       17.75855735362085
H           20.21953534613205       -6.61166222436683       18.13880026597119
H           19.67576586884702       -6.73321548276885       16.46401300933815
C           16.23653823098237        0.38510777536842       15.40129915539936
H           15.59142286886313       -0.11349735558347       14.67562885909506
H           17.26808669755837        0.12187289416270       15.17312190218225
H           16.11714231892769        1.46020803835910       15.28460118119277
C           14.47894459607212        1.94321890535398       17.59229327702037
H           14.46406520926131        2.55575294144152       18.48623727664082
C           13.89078951937412        2.39670171161560       16.49040008717931
H           13.83474418632683        1.81250511880469       15.58843307384634
H           13.41961557035049        3.36502225797396       16.46151365464055
C           13.06323776723413        1.10825274356227       22.63359700009838
H           12.20346142291504        1.04922094405167       21.96548363240443
H           13.62233043076908        2.01046184212458       22.38338365252732
H           12.69680879677208        1.19669930877228       23.65306170001066
C           13.70961344852415       -1.12238416960725       24.78607821033257
H           13.66171544448442       -0.17025097808438       25.30366765119265
C           13.29052857551703       -2.21911692287065       25.40561790135477
H           12.93033245097797       -2.19060542952713       26.42057408365427
H           13.26593257646764       -3.17719259198328       24.91458311831231
C           16.82538907052407       -5.47406187055960       24.91274260967790
H           15.77138105875128       -5.62290186924337       25.14792981604183
H           17.18962566584955       -4.63942607946023       25.51189315993781
H           17.37025646318017       -6.36889040582233       25.20279270603529
C           18.40139727073924       -7.20122958452431       22.65280076458341
H           18.38325677134743       -7.54915635027461       23.68251407693496
H           19.44124622019107       -7.07730377691505       22.34958286030686
H           17.95470008988865       -7.97054971347529       22.02289462026868
O           18.12040546637489       -1.55604054076800       20.75374223077243
H           17.70001911958555       -0.81796650567313       21.20982908426894
H           18.46908547091756       -2.14650997071245       21.43165419587664
C           14.23655421649216       -4.14321877342412       17.78552496946376
H           13.21701802401921       -4.39338187628495       17.50865779193387
H           14.89501112048286       -4.98279130192001       17.58857773650526
H           14.58843399835443       -3.26728047952457       17.25132344593722
S           14.30872029143461       -3.83453220513507       19.58511685384155
H           13.49692775018626       -2.77146967619999       19.55683185986623
