72
 energy: -105.902034419165 gnorm: 0.263097359018 xtb: 6.7.1 (edcfbbe)
Fe          16.31200000000000       -2.63100000000000       20.09900000000000
N           17.35100000000000       -3.67400000000000       18.73500000000000
N           16.00100000000000       -1.15500000000000       18.72200000000000
N           15.32100000000000       -1.56500000000000       21.50900000000000
N           16.67800000000000       -4.01700000000000       21.44300000000000
C           17.95400000000000       -4.89900000000000       18.88700000000000
C           18.51800000000000       -5.32600000000000       17.66100000000000
C           18.36200000000000       -4.30000000000000       16.72700000000000
C           17.59700000000000       -3.25200000000000       17.38100000000000
C           16.44600000000000       -1.13100000000000       17.44300000000000
C           15.99000000000000        0.05100000000000       16.84700000000000
C           15.25000000000000        0.74900000000000       17.76500000000000
C           15.23700000000000       -0.07800000000000       18.98000000000000
C           14.56600000000000       -0.46200000000000       21.28500000000000
C           13.85600000000000       -0.10700000000000       22.49200000000000
C           14.18800000000000       -1.05800000000000       23.40400000000000
C           15.11500000000000       -1.97000000000000       22.80600000000000
C           16.38300000000000       -3.99800000000000       22.73100000000000
C           16.80800000000000       -5.26800000000000       23.38600000000000
C           17.47600000000000       -5.95300000000000       22.49000000000000
C           17.39000000000000       -5.16500000000000       21.24300000000000
C           17.96300000000000       -5.65700000000000       20.06700000000000
H           18.42400000000000       -6.64400000000000       20.06700000000000
C           17.22100000000000       -2.06800000000000       16.78200000000000
H           17.54300000000000       -1.86500000000000       15.76100000000000
C           14.56300000000000        0.25700000000000       20.12100000000000
H           13.97400000000000        1.17400000000000       20.10200000000000
C           15.66100000000000       -3.03800000000000       23.42500000000000
H           15.53100000000000       -3.14900000000000       24.50100000000000
C           18.74600000000000       -4.24800000000000       15.23400000000000
H           19.21100000000000       -5.21200000000000       14.93700000000000
H           19.47600000000000       -3.42800000000000       15.06200000000000
H           17.83600000000000       -4.08200000000000       14.61800000000000
C           19.16300000000000       -6.69700000000000       17.29400000000000
H           18.97200000000000       -7.42700000000000       18.11000000000000
H           20.26000000000000       -6.57400000000000       17.16900000000000
H           18.71500000000000       -7.08300000000000       16.35400000000000
C           16.27700000000000        0.44300000000000       15.43800000000000
H           15.48000000000000        0.04700000000000       14.77300000000000
H           17.25400000000000        0.01800000000000       15.12200000000000
H           16.29900000000000        1.55100000000000       15.35400000000000
C           14.55200000000000        2.01800000000000       17.65100000000000
H           14.20300000000000        2.47900000000000       18.58500000000000
C           14.28000000000000        2.69400000000000       16.57100000000000
H           14.58700000000000        2.31700000000000       15.58400000000000
H           13.74000000000000        3.65000000000000       16.63200000000000
C           12.77800000000000        0.99300000000000       22.59700000000000
H           12.50400000000000        1.34200000000000       21.57800000000000
H           13.17500000000000        1.85300000000000       23.17800000000000
H           11.87200000000000        0.58500000000000       23.09400000000000
C           13.53000000000000       -1.02100000000000       24.71900000000000
H           12.88000000000000       -0.16100000000000       24.93100000000000
C           13.62200000000000       -1.87900000000000       25.66100000000000
H           13.21200000000000       -1.66000000000000       26.65800000000000
H           14.11200000000000       -2.84800000000000       25.48699999999999
C           16.61700000000000       -5.56100000000000       24.89800000000000
H           15.53600000000000       -5.52200000000000       25.15000000000000
H           17.15400000000000       -4.79700000000000       25.49900000000000
H           17.00600000000000       -6.57400000000000       25.13600000000000
C           18.18500000000000       -7.31800000000000       22.57800000000000
H           18.06800000000000       -7.73100000000000       23.60300000000000
H           19.26700000000000       -7.19300000000000       22.36100000000000
H           17.73100000000000       -8.02400000000000       21.85100000000000
O           18.08100000000000       -1.62100000000000       20.75400000000000
H           17.78500000000000       -0.92100000000000       21.33599999999999
H           18.92400000000000       -1.80400000000000       20.53800000000000
C           14.43300000000000       -4.73100000000000       18.28000000000000
H           13.44000000000000       -5.00400000000000       17.86400000000000
H           14.89400000000000       -5.65100000000000       18.69800000000000
H           15.06300000000000       -4.35600000000000       17.44600000000000
S           14.28200000000000       -3.47200000000000       19.56100000000000
H           14.16600000000000       -2.45900000000000       18.71400000000000
72
 energy: -105.950823555686 gnorm: 0.096107837035 xtb: 6.7.1 (edcfbbe)
Fe          16.32005217625203       -2.64606408571380       20.10643525491341
N           17.36203153034809       -3.66909135744441       18.72250551525039
N           16.00084734964768       -1.17590937335500       18.74127553148853
N           15.31365626928647       -1.57539424672589       21.50603137463056
N           16.70109318653970       -4.03628940872353       21.44739518742248
C           17.93811799282342       -4.89917052565519       18.86249148416016
C           18.52174254026933       -5.33147950429879       17.62780392329937
C           18.34976489445568       -4.31315234792142       16.71966442224406
C           17.61395659530291       -3.27252240235726       17.40119670212727
C           16.44940708797665       -1.12940701297818       17.45949203222012
C           15.98755570061462        0.06632334817784       16.83911134391985
C           15.24169988743346        0.75472764312149       17.76125670070060
C           15.25373021709447       -0.07087159155872       18.96660746728811
C           14.57109390511817       -0.45863956246488       21.28638885000792
C           13.82869085113916       -0.10580569336940       22.47139681627386
C           14.15773944484540       -1.04190665970363       23.40859479780515
C           15.09946199348390       -1.95416300954603       22.80278835871075
C           16.37564367413730       -4.02124564298799       22.74638893788950
C           16.82903895146405       -5.25521586342898       23.41258359723587
C           17.48236997947875       -5.96701673039084       22.47939038501731
C           17.39358384604541       -5.19016495509644       21.23510261120571
C           17.94910184831838       -5.64069258266557       20.05076663642077
H           18.42271171322725       -6.61403601291863       20.05200838816678
C           17.22425687933218       -2.08448105082103       16.81498311560285
H           17.53159638656806       -1.88839094287327       15.79295306678405
C           14.57058930963176        0.26269991066664       20.11425755534500
H           13.98038958041886        1.16960296628988       20.09583305525996
C           15.66207916414137       -3.04358547524430       23.42108510241764
H           15.53699542330650       -3.15723539119955       24.48552266629324
C           18.74157031141151       -4.25529140527509       15.25845048517492
H           19.20435160466083       -5.19632779825390       14.94634198394289
H           19.45738538303693       -3.44467319358340       15.07415350649524
H           17.85530318568119       -4.08336688844621       14.63566556482808
C           19.15693374688438       -6.67685110043715       17.30582833255073
H           18.97479025187469       -7.40876924076181       18.09895322426923
H           20.23938103861740       -6.57213716327311       17.17217110409003
H           18.72650366740400       -7.06815325477299       16.37750014537086
C           16.28183129439184        0.44766522580631       15.43190761273150
H           15.49665015819516        0.05967707728650       14.76984131612565
H           17.24252071431599        0.03309588489897       15.11323917473718
H           16.32142537895924        1.53513779114687       15.33951737002407
C           14.55164142140901        2.01954343602179       17.65833765934930
H           14.21263659775650        2.46253603223937       18.59385225418360
C           14.27386272136480        2.70450201208662       16.55890429237514
H           14.55122159870022        2.33993491165580       15.58009374822943
H           13.74575263956729        3.64746905167483       16.61489108972880
C           12.79013253506131        0.98545241274098       22.58682949974085
H           12.50684526130520        1.33976231735110       21.59269735956361
H           13.17047981726733        1.83477013607226       23.16739792278686
H           11.89297243109788        0.59640407292724       23.08001515827934
C           13.53331973622425       -1.00882770073614       24.72164771921715
H           12.91221826138005       -0.13794885900601       24.92012175464864
C           13.62292089640326       -1.89855884532146       25.69007095209505
H           13.19198110442855       -1.69857526292980       26.66254111285399
H           14.11122361940886       -2.84930313587847       25.53464521855302
C           16.61713665642900       -5.55411082538003       24.88294519852410
H           15.55283275504545       -5.52097645254651       25.14078247486457
H           17.14639801851242       -4.81197625661350       25.48962288503837
H           16.99917281814388       -6.54987111911261       25.12738278963697
C           18.17517893869606       -7.30552372349675       22.57687812934417
H           18.06919391693789       -7.72004982567714       23.58442471826089
H           19.24355088204426       -7.19461487278989       22.36043114692974
H           17.73848894375692       -8.01272454141097       21.86404998751977
O           18.06780250586200       -1.61449894144606       20.75625369079174
H           17.80278698412773       -0.90836699956817       21.34343224512997
H           18.96421272667225       -1.79394286385841       20.53900407065888
C           14.43161979988426       -4.74309897122426       18.25995317931407
H           13.44286026974702       -5.00224387823416       17.86728121572263
H           14.89077755972601       -5.63512061685337       18.69542525858173
H           15.06517149098676       -4.36596976892991       17.45321811878772
S           14.27368857119756       -3.48702415652484       19.55205382077701
H           14.13127340672202       -2.46647513838003       18.70993462807122
72
 energy: -105.963948559538 gnorm: 0.029757632203 xtb: 6.7.1 (edcfbbe)
Fe          16.32872323065317       -2.64457351407458       20.10753208463414
N           17.36962961174117       -3.66824659936325       18.71281961839033
N           16.00822074989232       -1.17759717010428       18.75957421214728
N           15.30585773000307       -1.58808234253174       21.50861284406531
N           16.71291315656669       -4.04826951302066       21.44414057674765
C           17.92492347614729       -4.90111154595882       18.84909463267861
C           18.51733543810689       -5.33873996793199       17.60660321148605
C           18.33750482704886       -4.32019132811952       16.71935973525587
C           17.61897476670659       -3.28601524017220       17.42378995972774
C           16.45520173677539       -1.12155983371957       17.47501189871552
C           15.99212504188047        0.07844444296135       16.83227929663520
C           15.23949876098500        0.76023785988636       17.75690217757244
C           15.26650080276088       -0.05811678869442       18.95845290666359
C           14.56885404598874       -0.46504484974360       21.28556954283388
C           13.81031334991936       -0.11373584292014       22.45559599921093
C           14.13610565960089       -1.03895683189663       23.41778984670958
C           15.08177639646104       -1.95141183821336       22.80003864770508
C           16.37674738074191       -4.03524536504607       22.75335621883256
C           16.84317249335428       -5.24488362988337       23.41916785471697
C           17.47859144337469       -5.97545395924760       22.46636033248305
C           17.39137647177473       -5.20678966503122       21.23066066482471
C           17.93638406375664       -5.62770766725781       20.03692499044515
H           18.42549240358126       -6.58968499184210       20.03957440654403
C           17.22149487410960       -2.09445058641358       16.84776978465320
H           17.51589423899216       -1.91165115072004       15.82393738216410
C           14.57295608756024        0.26310322570233       20.10999660709835
H           13.98372549705133        1.16504579653752       20.09598955627007
C           15.66308510345891       -3.05003724881303       23.41034917543182
H           15.53798285251869       -3.16946261832494       24.46861531178354
C           18.73477848391417       -4.25817466183383       15.28147331854902
H           19.19851303249910       -5.18913413146416       14.96809116705575
H           19.44417706178914       -3.45080598708679       15.10027479209736
H           17.86252938685526       -4.08209630305189       14.65164619038407
C           19.14910895750255       -6.66010992082462       17.31389025269895
H           18.96954840106699       -7.38182599673823       18.10426658448744
H           20.22549142006179       -6.55912337466384       17.18145265121577
H           18.73537582094506       -7.06248007051823       16.38979202288417
C           16.29483871080071        0.45112715925622       15.42485472208229
H           15.51354285494510        0.07498351020960       14.76252457904744
H           17.24438697889994        0.03338858561090       15.10508083874390
H           16.34801303494475        1.52955906570929       15.32611634065603
C           14.55089154075893        2.02129597403891       17.65887714295350
H           14.22980801046238        2.45429348820458       18.59827025949257
C           14.26285636720540        2.70617924240043       16.55200154275230
H           14.51264270122144        2.35290418986141       15.57195259123185
H           13.75064565293408        3.64892358047792       16.60795688535327
C           12.80130833259073        0.97705078292716       22.56997104201779
H           12.51113336556277        1.34485929060053       21.59148556675887
H           13.18219842122583        1.81534946692470       23.15408441519077
H           11.90673307704098        0.60426450460885       23.06541828432464
C           13.54600420592568       -1.00896019098964       24.73419802153474
H           12.95999649135215       -0.11828695316121       24.92660465916227
C           13.61797418529168       -1.91306021878259       25.70950076184378
H           13.15940393844284       -1.72685610559244       26.66341159659710
H           14.10953928191128       -2.85473677096312       25.58113192890200
C           16.62694950060687       -5.54730709667301       24.86231462252971
H           15.56835226988502       -5.51574747180010       25.11480518033378
H           17.14443083460844       -4.81830707204911       25.48474141521302
H           17.00142239568231       -6.53605785806532       25.11262095498567
C           18.16405182647848       -7.29403650040745       22.57694934260889
H           18.06307601268568       -7.70588669590510       23.57714355679402
H           19.22641396517652       -7.19182640821589       22.35808752888421
H           17.73955945698919       -8.00546913978666       21.87089036164877
O           18.07214893672589       -1.60245468674050       20.75250603124952
H           17.85300363904310       -0.89051578851298       21.35505235663848
H           18.99150383105001       -1.77218457449472       20.55238775365974
C           14.43086249758175       -4.76024443846501       18.23795049507283
H           13.44481533538171       -5.00882731892865       17.85821711649456
H           14.88945995484281       -5.63337177592535       18.68847738565826
H           15.06847833277801       -4.37802016436792       17.45025765090340
S           14.26517473520808       -3.50927575409722       19.54737354582123
H           14.05449506761388       -2.48680664676946       18.71002706705979
72
 energy: -105.967455329831 gnorm: 0.019751095089 xtb: 6.7.1 (edcfbbe)
Fe          16.33052993651106       -2.63574855702807       20.10703136460063
N           17.36872158321134       -3.66721095745507       18.71485094122670
N           16.01304900092312       -1.16902212441304       18.76790233636728
N           15.29850292004951       -1.59633085815913       21.50884179948464
N           16.71723345369608       -4.05002500557036       21.43821586606581
C           17.91447400882578       -4.90330994417728       18.84892527276879
C           18.50389498851867       -5.34102374981016       17.60216591533706
C           18.32286251220889       -4.31990828728305       16.72122459516788
C           17.61295767550938       -3.28569306590255       17.43506041957873
C           16.45965054539418       -1.11319202452630       17.48270035169195
C           15.99963998289168        0.08577907698640       16.82986172576926
C           15.24312937569799        0.76614128516749       17.75350684277918
C           15.27048845638024       -0.04729046591718       18.95727915107634
C           14.56193173412707       -0.47372524053944       21.28189561320814
C           13.80293616354982       -0.12480524542515       22.44847013839453
C           14.12879072976938       -1.04446915793993       23.42120716544829
C           15.07054643947687       -1.95712113655360       22.79679218706659
C           16.38284688058740       -4.03641850792641       22.75191176607665
C           16.85611614331614       -5.23650576600336       23.41505800316700
C           17.48148576444710       -5.97469154185884       22.45872673142401
C           17.38952556439701       -5.21190184414839       21.22814356151670
C           17.92992057933269       -5.62672390933417       20.02977729626809
H           18.42676875359412       -6.58453984541142       20.02593872301707
C           17.21700055440551       -2.09335693833200       16.86192964247160
H           17.50198964933928       -1.92410852275580       15.83480059169242
C           14.57116917016050        0.26230619202414       20.10889168202700
H           13.98051064226068        1.16305121101708       20.09932454568989
C           15.66144484950357       -3.05498484923517       23.40158254993035
H           15.53137645210492       -3.18072138148328       24.45929830602259
C           18.72950799429727       -4.25413152407465       15.29067497706802
H           19.19696433307135       -5.18525132487687       14.98335047455122
H           19.43962043997159       -3.44504828853114       15.12216891404993
H           17.86304207338273       -4.07657162592442       14.65337510399232
C           19.14571980394899       -6.65537288879125       17.32260808927439
H           18.96555288747324       -7.36847238546504       18.12025977336264
H           20.22277829913523       -6.54621138336246       17.19715262123333
H           18.74532063676133       -7.07182044447620       16.39791478003376
C           16.31472148555674        0.45452947476523       15.42263544474503
H           15.53060235875256        0.09516033857308       14.75376803303847
H           17.25761255808781        0.01944463628302       15.10400883343098
H           16.39120979930973        1.53301246860884       15.32022609244936
C           14.55510485307150        2.02820078441427       17.65566987320087
H           14.25499338090784        2.46136227942754       18.60154474543789
C           14.24944380822076        2.70880383457723       16.55017561482867
H           14.45501701331142        2.34910780563227       15.55915670167352
H           13.74489533920995        3.65661285585198       16.61156676066266
C           12.80729352335895        0.97633884207577       22.55987472909308
H           12.51948140076074        1.35232894898329       21.58308104554456
H           13.20201820826974        1.80805538349912       23.14497592712267
H           11.90771184740848        0.61589838616999       23.05671276564840
C           13.55966735670297       -1.01190014452426       24.74638208678569
H           13.00452673911816       -0.10002615634000       24.94270546700798
C           13.61107225338385       -1.91970635143160       25.72256099696412
H           13.12410799075776       -1.74020772375070       26.66620144411788
H           14.09665951716109       -2.86886545858494       25.61585804181924
C           16.63520627211471       -5.54421585536058       24.85314250388580
H           15.57354780109587       -5.51348648484973       25.09551797439876
H           17.14645503973467       -4.81796549004647       25.48543399397618
H           17.00960904800897       -6.53358011650136       25.10124968833144
C           18.15973326092588       -7.29339742971241       22.57553600966015
H           18.05682502852890       -7.69720034502293       23.57856596005060
H           19.22254117109055       -7.19472843674395       22.35505429461581
H           17.73551489730151       -8.00936232496762       21.87274306782887
O           18.08828313717252       -1.57756023051578       20.74005947069933
H           17.91041806078097       -0.87650512776667       21.37402364694917
H           19.01583444076933       -1.75607402245808       20.56966112261234
C           14.43200549212541       -4.77889338480644       18.21903142670888
H           13.44672172363507       -5.02655022439666       17.83933811648922
H           14.89271015414207       -5.64761123712671       18.67440709545718
H           15.07274116578037       -4.38993440052550       17.43752808652382
S           14.25839503691767       -3.53373994687094       19.54127826281495
H           13.94631785829545       -2.51691411906540       18.71150485652623
72
 energy: -105.969461142557 gnorm: 0.021307937704 xtb: 6.7.1 (edcfbbe)
Fe          16.32364763013748       -2.62964379488260       20.10245459548129
N           17.36271614544680       -3.66581086142972       18.71850526317371
N           16.00458517966685       -1.16565356167470       18.76937045727834
N           15.29064832355252       -1.60435737226530       21.50542330240923
N           16.72296865333904       -4.04779979557364       21.43297267785812
C           17.90380406715538       -4.90471754087986       18.85087248491461
C           18.48765213439772       -5.34151915473038       17.60055751118357
C           18.30647859869314       -4.31898547159280       16.72217313963098
C           17.60067431326609       -3.28429774597189       17.44033948061759
C           16.45810125232259       -1.10740616372958       17.48646505335488
C           16.00383194995368        0.09203924280946       16.82912332122308
C           15.24418173147822        0.77075150843579       17.75066002955762
C           15.26531293464509       -0.04085148198232       18.95578631889957
C           14.55301180803311       -0.48310499441698       21.27689721411263
C           13.79979066226983       -0.13379281711749       22.44457299932715
C           14.12785400628269       -1.04884544927811       23.42275121802744
C           15.06383892114118       -1.96221557061646       22.79326916640079
C           16.39221009775895       -4.03298299541424       22.75040509878475
C           16.86932174890995       -5.22811202577181       23.41067882265191
C           17.48587204408395       -5.97197917205173       22.45354207323318
C           17.39087968200736       -5.21283285429347       21.22741357822045
C           17.92576744304830       -5.62854889810112       20.02522580907537
H           18.42366799994842       -6.58579427835460       20.01374639208492
C           17.20744117155604       -2.09173982058411       16.86794997715608
H           17.48706413435784       -1.93433980918008       15.83844502583698
C           14.56410077934104        0.25964582913778       20.10713814484718
H           13.97269536896650        1.16078543696487       20.10299257360617
C           15.65960169955764       -3.05782691441114       23.39466971909802
H           15.51866627585558       -3.19050998199130       24.45195244402305
C           18.72426687087491       -4.24791162586129       15.29566794416075
H           19.19705357437213       -5.17883591331577       14.99378702841104
H           19.43515757866501       -3.43606497240125       15.14124109670971
H           17.86433161419440       -4.06995036061377       14.64910543671642
C           19.14266705738682       -6.65240138183631       17.33348156070994
H           18.96186633207371       -7.35866180757885       18.13806911802667
H           20.22086132421995       -6.53094846233322       17.21919308333297
H           18.75710084802328       -7.08365775631228       16.40840678692626
C           16.33239563129969        0.46492528876558       15.42535531130958
H           15.54708827503885        0.12488266990578       14.74640627961539
H           17.27004055858346        0.01279081472211       15.10857934336422
H           16.42477020795634        1.54479418256508       15.32771854158120
C           14.55918916198746        2.03540238508614       17.65023798720950
H           14.29542636637557        2.48317296576362       18.60195617335265
C           14.23142702816085        2.70225775619733       16.54413990008873
H           14.41665492794477        2.33834431190737       15.54989573230040
H           13.73963130511377        3.65950373544812       16.60686022776270
C           12.81524530542214        0.97935285663602       22.55530877097547
H           12.53274262126523        1.35909216836092       21.57740529798065
H           13.22574065873377        1.80614016981652       23.13807243122436
H           11.90996763004813        0.63280620806495       23.05324528994187
C           13.57430699432484       -1.01442238314488       24.75587266030706
H           13.04780212930925       -0.08533394313821       24.95864981430349
C           13.59557949859220       -1.92761059494379       25.72763638321255
H           13.10922520424503       -1.73950256804074       26.66902861175587
H           14.06292898187311       -2.89076594674048       25.63963257933345
C           16.64560936725034       -5.54072142609144       24.84810289049479
H           15.58081722423236       -5.51384541890461       25.08085338243516
H           17.15017622541030       -4.81484908430553       25.48722078140001
H           17.02237145606906       -6.53051251768688       25.09270009386740
C           18.15774749790451       -7.29446883624580       22.57442367282884
H           18.05216072842288       -7.69106963252589       23.58060345579904
H           19.22170849693721       -7.20269850886295       22.35216289424614
H           17.72887585403372       -8.01252873619057       21.87544733907709
O           18.10429410341033       -1.53178657823151       20.70327691027821
H           17.97570884243651       -0.87769366840905       21.40955462916182
H           19.04102995470576       -1.75234646866663       20.60787916406843
C           14.43324236357032       -4.79968120804484       18.19937826273316
H           13.45155117016788       -5.04783221766585       17.81067679728518
H           14.89311878753693       -5.66883717359548       18.65561286311263
H           15.08018005911349       -4.40384661240141       17.42497478572210
S           14.24373041103593       -3.56516857604871       19.53636302823089
H           13.85482301450756       -2.55706462415884       18.71946176657847
72
 energy: -105.970445923630 gnorm: 0.023493402757 xtb: 6.7.1 (edcfbbe)
Fe          16.31893692572586       -2.62620345209352       20.09820176433017
N           17.35183957418418       -3.66604609635594       18.71948529217234
N           15.98620167777250       -1.17001417607427       18.76332161180043
N           15.28390919618934       -1.60934662957013       21.49895436005154
N           16.72924851940290       -4.04294741989123       21.43190961827227
C           17.89505804348460       -4.90527202582401       18.85177890000930
C           18.47630594798525       -5.34118779129238       17.60113987460623
C           18.29450362598302       -4.31953196662558       16.72143554979165
C           17.58656199067496       -3.28507749752942       17.43801996342332
C           16.44897970830822       -1.10849548652172       17.48428382771708
C           16.00522499483870        0.09541667118728       16.82998371830672
C           15.24550658639226        0.77467849210576       17.74970839286359
C           15.25318077500727       -0.04174374613238       18.95253961324480
C           14.54519568342234       -0.48867582083154       21.27187040568099
C           13.80018954273141       -0.13654337615112       22.44417217434072
C           14.13066868015427       -1.05079153242953       23.42087485830541
C           15.06112235238709       -1.96598003096928       22.78926534127910
C           16.39952543804102       -4.02821765087407       22.75038306881452
C           16.87788871515241       -5.22315159410241       23.40948344554743