87
 energy: -124.437292048623 gnorm: 0.350153531884 xtb: 6.7.1 (edcfbbe)
Fe           8.90800000000000       12.44700000000000       33.43300000000000
N           10.48100000000000       13.19300000000000       32.51700000000000
N            8.13800000000000       14.25900000000000       33.69900000000000
N            7.36800000000000       11.64200000000000       34.32099999999999
N            9.62100000000000       10.62700000000000       33.20600000000000
C           11.55500000000000       12.54900000000000       31.95900000000000
C           12.47100000000000       13.47700000000000       31.37500000000000
C           11.95000000000000       14.70200000000000       31.56900000000000
C           10.70000000000000       14.54500000000000       32.27800000000000
C            8.69300000000000       15.42400000000000       33.30300000000000
C            7.80900000000000       16.48600000000000       33.62400000000000
C            6.72400000000000       15.98400000000000       34.24400000000000
C            6.92400000000000       14.54700000000000       34.26800000000000
C            6.24500000000000       12.31400000000000       34.78100000000000
C            5.28500000000000       11.41900000000000       35.34900000000000
C            5.80700000000000       10.18000000000000       35.21600000000000
C            7.09200000000000       10.32300000000000       34.56500000000000
C            9.07600000000000        9.47300000000000       33.58900000000000
C            9.87000000000000        8.40400000000000       33.16200000000000
C           10.91600000000000        8.90500000000000       32.52400000000000
C           10.75900000000000       10.32700000000000       32.52400000000000
C           11.66800000000000       11.17500000000000       31.99500000000000
H           12.56600000000000       10.73600000000000       31.56000000000000
C            9.89700000000000       15.56000000000000       32.64300000000000
H           10.22300000000000       16.57100000000000       32.39800000000000
C            6.05000000000000       13.66100000000000       34.77600000000000
H            5.12800000000000       14.04500000000000       35.21100000000000
C            7.91000000000000        9.30200000000000       34.23900000000000
H            7.61300000000000        8.29000000000000       34.51500000000000
C           13.76600000000000       13.10700000000000       30.69100000000000
H           13.32000000000000       12.40800000000000       29.95200000000000
H           14.18800000000000       12.51900000000000       31.53400000000000
H           14.57000000000000       13.69100000000000       30.19500000000000
C           12.53400000000000       16.02200000000000       31.14399999999999
H           12.52800000000000       16.48600000000000       32.15300000000000
H           11.64100000000000       16.37000000000000       30.58200000000000
H           13.46000000000000       16.32800000000000       30.61199999999999
C           12.12900000000000        8.19200000000000       31.89800000000000
H           12.44200000000000        7.73000000000000       32.85900000000000
H           13.02900000000000        8.36100000000000       31.26899999999999
H           11.42700000000000        7.50400000000000       31.37900000000000
C            9.66300000000000        6.98400000000000       33.50700000000000
H            9.18500000000000        6.39900000000000       32.71300000000000
C           10.67800000000000        6.20100000000000       34.28999999999999
H           11.23000000000000        6.67200000000000       35.11600000000000
H           10.88000000000000        5.14800000000000       34.04600000000000
C            5.19100000000000        8.85700000000000       35.65700000000000
H            6.04800000000000        8.52700000000000       36.28200000000000
H            5.25300000000000        8.35700000000000       34.66700000000000
H            4.24500000000000        8.57500000000000       36.16600000000000
C            3.97000000000000       11.85400000000000       35.93800000000000
H            3.76500000000000       12.83400000000000       35.50200000000000
C            3.21500000000000       11.24800000000000       37.07800000000000
H            3.48500000000000       10.25300000000000       37.46000000000000
H            2.38100000000000       11.79100000000000       37.54699999999999
C            5.53400000000000       16.72800000000000       34.80700000000000
H            6.15400000000000       17.33900000000000       35.49699999999999
H            4.54300000000000       16.54900000000000       35.27600000000000
H            5.40700000000000       17.28100000000000       33.85200000000000
C            8.12800000000000       17.92000000000000       33.44700000000000
H            7.86800000000000       18.12100000000000       34.50800000000000
H            7.23200000000000       18.10200000000000       32.81600000000000
H            8.95200000000000       18.60100000000000       33.14300000000000
C            6.35400000000000       10.47800000000000       28.99400000000000
H            7.02000000000000       10.38800000000000       28.10900000000000
H            5.38500000000000       10.91700000000000       28.67200000000000
H            6.18800000000000        9.46800000000000       29.42500000000000
N            7.32300000000000       12.68100000000000       29.73300000000000
H            7.15000000000000       13.14500000000000       28.86400000000000
C            6.99800000000000       11.36600000000000       30.01700000000000
C            7.89600000000000       13.19800000000000       30.81100000000000
H            8.26200000000000       14.22200000000000       30.87200000000000
N            7.94600000000000       12.28600000000000       31.77100000000000
C            7.39500000000000       11.11700000000000       31.29600000000000
H            7.33800000000000       10.22500000000000       31.90700000000000
C            9.11400000000000       14.87800000000000       36.91600000000000
H            8.46400000000000       15.16900000000000       37.76799999999999
H            8.73400000000000       15.37000000000000       35.99600000000000
H           10.14900000000000       15.22400000000000       37.12499999999999
C            9.09900000000000       13.36900000000000       36.73900000000000
H            8.05800000000000       13.03900000000000       36.53800000000000
H            9.44000000000000       12.89100000000000       37.68200000000000
S           10.17500000000000       12.87700000000000       35.37500000000000
C           10.94100000000000       11.36500000000000       36.01199999999999
H           10.17700000000000       10.59200000000000       36.24300000000000
H           11.50200000000000       11.58300000000000       36.94600000000000
H           11.64000000000000       10.94200000000000       35.25899999999999
87
 energy: -124.578618740779 gnorm: 0.187490856628 xtb: 6.7.1 (edcfbbe)
Fe           8.90721194420645       12.44356748405142       33.44876977949649
N           10.48149019357756       13.20193480287062       32.50296814028339
N            8.14007995597149       14.23982459991766       33.69098700797863
N            7.33928004787623       11.64561290319579       34.33727598570135
N            9.61996460739461       10.64079041853869       33.20184672523793
C           11.55384240288772       12.55543408841863       31.95950467773063
C           12.48091579815384       13.48376144307714       31.37108327186786
C           11.96427931042934       14.70472630877688       31.56191605629224
C           10.71421074038063       14.53745236703731       32.27160638399228
C            8.69412303894854       15.40796451681080       33.29986684812699
C            7.82563503897041       16.47793210041020       33.63020200970659
C            6.72743141379437       15.96087409506073       34.24184125575481
C            6.93755831478911       14.54492534246419       34.25798409363072
C            6.22718740604270       12.31003319171861       34.79181664897135
C            5.25254758175859       11.41624613775342       35.37328446599673
C            5.78244378683201       10.17821912709168       35.23399516620878
C            7.06605775975511       10.32905794204366       34.58323149527851
C            9.08048542434129        9.47005485999787       33.59038019059430
C            9.90003795542527        8.38104749807921       33.18447241415265
C           10.94122693378382        8.91985107343020       32.51038358309597
C           10.76158741851029       10.33477472922862       32.53517556436977
C           11.67773068483799       11.18601453029883       31.99018747107323
H           12.56496862322838       10.73993992353707       31.55554708281771
C            9.89887451751343       15.56256541584250       32.64339774683549
H           10.21572802265556       16.57118916233755       32.40101679885100
C            6.04403814990784       13.66264007998742       34.77821681457001
H            5.13321747779852       14.05547734661757       35.20893437787772
C            7.89804112114325        9.29430438861914       34.25219283925785
H            7.61049904910323        8.28471214575801       34.51537034380846
C           13.75516121114324       13.06652854813905       30.69847829166034
H           13.35541975032129       12.38417026257654       29.93910006469735
H           14.22008770615503       12.49736606756561       31.51205026087506
H           14.51790854509984       13.70689210476482       30.22463801777120
C           12.50133033510436       16.04272614333558       31.16144208207350
H           12.53233217928339       16.53056430081413       32.14263640426487
H           11.65161983574958       16.41634753529903       30.57742172020367
H           13.43706697172365       16.27394402728774       30.62653871730523
C           12.10400659613283        8.15060297193528       31.91471483247299
H           12.46710791635735        7.68881872858373       32.84118271437394
H           12.97810691503494        8.40901060633999       31.29208359135263
H           11.46802781065037        7.44886234557509       31.36335381506717
C            9.74127076933361        6.94861157480919       33.49388212679843
H            9.18778109661669        6.38911231685549       32.73203354955092
C           10.65297462089585        6.22754458341548       34.25983536442221
H           11.21238601675571        6.67706320139137       35.08201714837052
H           10.84204314633315        5.17084502063909       34.06334401026088
C            5.22740898214757        8.83932544633595       35.64189240380922
H            6.04095676667656        8.48442532830280       36.28559480301383
H            5.24825761801683        8.31563399196720       34.67903483589605
H            4.26944442256468        8.62724624585461       36.14375917715422
C            3.97461378109119       11.84267134605108       35.98183997014370
H            3.72745174845000       12.80993929336512       35.53972216705441
C            3.25298357214551       11.27245320191706       37.02872743632906
H            3.49610384209219       10.28976357146336       37.43695914081231
H            2.40961219467132       11.78390264766801       37.50480813416289
C            5.56659931223205       16.75920331534449       34.78722634189352
H            6.12339690348017       17.37910103553737       35.50451676833460
H            4.59675696010130       16.50164122531137       35.25060626325546
H            5.37274380157891       17.33016294391972       33.86991655760082
C            8.08424874524689       17.93533494945375       33.46522902544886
H            7.85882291267791       18.19404120731656       34.50753072808152
H            7.22509617431801       18.16358373096515       32.82047916917121
H            8.94877436729895       18.53692885323422       33.14057377231698
C            6.35414188092865       10.47883383283277       28.99208728217871
H            7.00928592863055       10.38562820534456       28.11495095705464
H            5.39397513220858       10.90649939441824       28.67236631633434
H            6.18820284630948        9.48271708939040       29.41803656407069
N            7.31781232315663       12.67087606246401       29.72895563092130
H            7.14605152589875       13.14105806125300       28.85826463574314
C            6.99432231570425       11.36239928566695       30.00777651139364
C            7.89756329320222       13.19128572196355       30.81948218640900
H            8.25913728020695       14.20685680486997       30.87994127576103
N            7.95970434946735       12.28620992075698       31.77429737078577
C            7.39681591679681       11.13211512003670       31.28943969567312
H            7.33721895292857       10.24288865866193       31.89552692717352
C            9.11507836493492       14.87861066729195       36.91737209688934
H            8.47119398294399       15.16787983767222       37.75819262023455
H            8.74314852715508       15.36677312959691       36.00958624040143
H           10.13674328036822       15.22415640824416       37.12040544014177
C            9.09315971092114       13.36745266856715       36.74820554810088
H            8.06687191718315       13.03548816520103       36.53804574513339
H            9.44053678421438       12.88822221505418       37.67389076087237
S           10.18248778451056       12.87342344716302       35.37677765202414
C           10.93928711302757       11.35554670442166       36.02230506826290
H           10.17837916367556       10.59712693887355       36.23935589167602
H           11.49925287096733       11.58311065099685       36.93820653187714
H           11.62703050716079       10.95554431295169       35.26590640532800
87
 energy: -124.651032628170 gnorm: 0.100180622062 xtb: 6.7.1 (edcfbbe)
Fe           8.90283849938706       12.44276633932690       33.45588594393634
N           10.48652653308891       13.21539683207600       32.49261378677421
N            8.13887792814892       14.22539833833168       33.68474766671625
N            7.31038747238550       11.64580668306878       34.35750179233897
N            9.62043322698212       10.65043962478352       33.19638644690691
C           11.55148361260335       12.56050687305045       31.95876083929064
C           12.49280805255871       13.48870179693502       31.36633284082326
C           11.97810103398765       14.71232483914787       31.55510612049221
C           10.72567052521483       14.53337127156610       32.26510753862077
C            8.69544973781692       15.39855560412583       33.29713455075503
C            7.84093051751401       16.48045836685547       33.63806063376450
C            6.72953131945135       15.94881495833682       34.24109793043408
C            6.94447785117049       14.54465860983127       34.25045867796904
C            6.21082984811756       12.30499381328428       34.80756587317977
C            5.22651157290278       11.40691068610264       35.39477084613589
C            5.76562215861302       10.16858036352096       35.25124956574899
C            7.04712998496866       10.33061461036047       34.59822655696153
C            9.08514120794361        9.46797867151786       33.59580733285019
C            9.92575497951175        8.36809990031287       33.21364981950261
C           10.96628772377912        8.93002666722233       32.52128486497176
C           10.75906511855514       10.33700082965685       32.53097325285364
C           11.68467111780954       11.19406457968690       31.97721407968001
H           12.56519589969981       10.74302949701099       31.54846841248126
C            9.90116408165516       15.56585425455405       32.64255393546816
H           10.20915474794498       16.57224335588274       32.40457040601072
C            6.03522811251601       13.66366456302249       34.78222231729729
H            5.13263550187995       14.06660865777216       35.20727661887261
C            7.89133624481336        9.29078407330652       34.26326302793071
H            7.61070820635064        8.28139429106158       34.51491398730654
C           13.74507205602454       13.02540716468645       30.70617387233718
H           13.39419714448982       12.35502202784534       29.92479117102156
H           14.25621333870557       12.46913464603988       31.48866130011507
H           14.45911915681233       13.73157665294363       30.25726033732368
C           12.46936175526482       16.06486410341311       31.17873537289335
H           12.53564756821329       16.58299785693233       32.13224079021806
H           11.66137869489190       16.46986966655978       30.57327203433147
H           13.41691035857063       16.20910911159074       30.64070231406106
C           12.07465483530581        8.11085157342802       31.93934210280850
H           12.49707015503552        7.63791986669279       32.82383845239150
H           12.91509380147894        8.47263419703323       31.31971914601929
H           11.50972898983564        7.39041341101100       31.35160828464809
C            9.81412075843107        6.92175034623549       33.47359123403837
H            9.19491617218093        6.38844209902657       32.74032625746910
C           10.62721241563796        6.24656063109659       34.23438330784102
H           11.21388561778821        6.68831466114858       35.03594486543730
H           10.79301602235339        5.17918438974571       34.09734311432388
C            5.26220119509710        8.82021700316630       35.62794149365491
H            6.03460432111016        8.43344183910688       36.28904413954081
H            5.24609206946737        8.26849588165955       34.69080529595400
H            4.29036791589502        8.68830613641748       36.12188399555204
C            3.97606042940927       11.83683543647096       36.00962036507470
H            3.69347116105911       12.80030195338628       35.58080398420317
C            3.28914571507591       11.29282479079824       36.98484955467039
H            3.51520946641421       10.32348633220771       37.42308080581222
H            2.43237858819249       11.77527551646869       37.45924222213222
C            5.60204853891889       16.79058401195486       34.76673669600584
H            6.09526003794534       17.42053793973632       35.51009110697866
H            4.65935989431403       16.43504843230369       35.22120638072752
H            5.34189805252834       17.38036996977415       33.88755503036754
C            8.03874696566758       17.94918868118203       33.48476480729598
H            7.84445737783962       18.27181023411860       34.50617843071682
H            7.21659373163475       18.22686117213479       32.82681277437251
H            8.95256631091703       18.45535874436453       33.13635190884138
C            6.35319019876389       10.47895730888443       28.99016321760359
H            7.00079214757624       10.38346425949558       28.11773174992959
H            5.39855737163491       10.89830326102807       28.67127270757540
H            6.18767038173666        9.49240317757538       29.41386486372559
N            7.31285748361030       12.66402670827422       29.72420990146492
H            7.14351825163686       13.14029949592696       28.85399497264881
C            6.99091946766482       11.36022557351869       29.99943153685116
C            7.89878386348717       13.18541059809851       30.82344906625696
H            8.25721241249299       14.19423224266072       30.88502039034674
N            7.96667632468990       12.28561089328715       31.77326638347916
C            7.39971761482247       11.14388693083821       31.28222322696567
H            7.33581916764358       10.25673566436141       31.88345334601528
C            9.11549509595567       14.87903552295354       36.92028445566501
H            8.47555044136533       15.16753394398525       37.75311788056656
H            8.75043892716552       15.36278564466464       36.01893795452931
H           10.12919011803307       15.22201492192943       37.11761290091553
C            9.08781635609108       13.36656150065574       36.75808378547276
H            8.07481219418257       13.03130149255020       36.53650419342128
H            9.44379201181349       12.88409534739789       37.66780865702917
S           10.18658335100219       12.86970265668847       35.37460408035660
C           10.93712258349439       11.34648479321151       36.03185144429623
H           10.17600272431908       10.60075931275411       36.23691503610897
H           11.49617932672455       11.58305581099138       36.93415940150015
H           11.61528875421572       10.96706750587659       35.26993023202233
87
 energy: -124.684529429977 gnorm: 0.051379394080 xtb: 6.7.1 (edcfbbe)
Fe           8.89924025251180       12.44300984941418       33.45928875377655
N           10.48533107614834       13.22328284234161       32.48407160515829
N            8.13445862646628       14.22388443151822       33.67801242702451
N            7.29586683687272       11.64513016535900       34.37332309659558
N            9.62639774342503       10.65135048932507       33.19754654766403
C           11.54735088740816       12.56329522782949       31.95676587812224
C           12.49562888920190       13.48848505388761       31.36443149121637
C           11.98090624749361       14.71955031774245       31.55300350239564
C           10.72756082900225       14.53525388821787       32.26112449107759
C            8.69473841383748       15.40097161164154       33.29508225185570
C            7.84547212071633       16.49214073644432       33.64506837609528
C            6.73348636952879       15.95550882247039       34.23981663251397
C            6.94258507970009       14.54722994017685       34.24612326617511
C            6.20218833403741       12.30488219859058       34.82047438349807
C            5.22313096171669       11.39926704727196       35.40307702113668
C            5.76438626012886       10.15773290408248       35.26136334559215
C            7.04297701758812       10.32945053067408       34.61003319383276
C            9.09121653032443        9.46701958750088       33.60429321499758
C            9.93614184009317        8.36959454260047       33.22049233894262
C           10.98031348404495        8.92684558243517       32.53143818938127
C           10.76773265016199       10.33497200654893       32.53566805045102
C           11.68954242546185       11.19839214718006       31.97301781024419
H           12.56618028424184       10.74925927826589       31.53731373199183
C            9.90112719154298       15.56921093887674       32.64194566058913
H           10.20374468287225       16.57647502407040       32.40816308899561
C            6.02920702433435       13.66707366682396       34.78460210241970
H            5.13018807568474       14.08092347138240       35.20627709953859
C            7.89303943571152        9.29164730086593       34.27233787656341
H            7.61204448010736        8.27941052820652       34.51575065026785
C           13.73810169183980       12.99921764283966       30.71136177572597
H           13.43824924674940       12.32308030363836       29.90917443819675
H           14.29616528896654       12.43742017548221       31.46188779786653
H           14.40399721446168       13.76419819277002       30.28639476081733
C           12.45051537572460       16.08024265659254       31.18852370214017
H           12.54068359273041       16.64332710585715       32.11815279457338
H           11.67393816800401       16.53127102659307       30.56838588251281
H           13.40641607277778       16.14389192903608       30.64986315568033
C           12.06142368422094        8.08245130772126       31.95368160056648
H           12.53420616519283        7.57642529473669       32.79916256999435
H           12.86335052386609        8.54130677992215       31.34191226586785
H           11.55755279844182        7.33033565408904       31.33899586879696
C            9.83407010910270        6.91989659587068       33.42420112784632
H            9.19639528717319        6.38998576357988       32.71433884695287
C           10.61735402208333        6.22854668487728       34.25616587767131
H           11.24410497379899        6.70328814041106       35.00393477425207
H           10.73689924403911        5.15103661310214       34.16823105955268
C            5.28344216579641        8.80173869891267       35.62062372339148
H            6.02524439862552        8.37038212256598       36.29477908737128
H            5.24500859734503        8.21237240696376       34.70428858062313
H            4.30052754943720        8.74597881327315       36.10455956985913
C            3.98947373316883       11.85358880879380       36.01006388517850
H            3.66735492779006       12.81157939177778       35.60414802055165
C            3.28593527521451       11.28306486214466       36.98251197868840
H            3.53900614417371       10.33417524716527       37.43282435412112
H            2.42211941675002       11.76133142010973       37.42839162375125
C            5.62499572035549       16.81113646517036       34.75353308896736
H            6.06204344650314       17.46623475503608       35.51556563240554
H            4.71624476952759       16.35725014472300       35.19473685489380
H            5.30908742051850       17.43504068020271       33.90964087376892
C            8.01268005775315       17.96157004591451       33.49581761384001
H            7.83058413854099       18.36236285528226       34.49876337447112
H            7.21035861952714       18.29852805914879       32.83496026583447
H            8.96585718581589       18.37781937516997       33.12700139168367
C            6.35061580819579       10.47867524166047       28.98696611928540
H            6.99373115476442       10.37890354302840       28.11372029042835
H            5.39559221262899       10.89151073412603       28.66692942807350
H            6.18534501664025        9.49533206490800       29.41273703552773
N            7.31031626325914       12.66324115276417       29.71914830725884
H            7.14089964631913       13.14189217489615       28.85007148925923
C            6.98896090771584       11.36081232906879       29.99293027126262
C            7.90017993174108       13.18218770825019       30.82103877857161
H            8.25706481737434       14.18834779245758       30.88774294680222
N            7.97189015020846       12.28288692789778       31.76905862976897
C            7.40135102633744       11.14808064263130       31.27513482669742
H            7.33245862578935       10.26301330591235       31.87304801119113
C            9.11666209819936       14.87610353095803       36.92447961598815
H            8.47735608869636       15.16891692249537       37.75380234901188
H            8.75628151495827       15.35965818916221       36.02349130216848
H           10.12861344567739       15.21994966999505       37.11825584938366
C            9.08729798506506       13.36451458730232       36.76417027751179
H            8.08008403214419       13.02379205870812       36.53502255069484
H            9.45022428388646       12.87600298547063       37.66564809108790
S           10.18877812957244       12.86918256199983       35.37443873994842
C           10.93149624007738       11.34272994496427       36.03855510343245
H           10.16702325789706       10.60087012278269       36.23667061110109
H           11.49310977284959       11.58247235338244       36.93615588746606
H           11.60509651362045       10.97559730395859       35.27029919154983
87
 energy: -124.697191443948 gnorm: 0.048320581848 xtb: 6.7.1 (edcfbbe)
Fe           8.89649205125588       12.44470775939102       33.45742292682000
N           10.48221898617535       13.22878474511918       32.47829609785543
N            8.12690216415728       14.23421907521153       33.67252618660688
N            7.28902842707674       11.64614322409613       34.38806665827784
N            9.63937911896040       10.64267565651724       33.20246179046457
C           11.54020970849033       12.56374977125469       31.95310387837332
C           12.49366923381892       13.48643116228007       31.36249945913699
C           11.97993480769964       14.72569534704293       31.55168865931384
C           10.72553633826782       14.53893703766215       32.25750322554443
C            8.69194274157027       15.41382009939614       33.29352877325731
C            7.84430269346052       16.51294693944775       33.65087008924989
C            6.73400970787853       15.97314293098850       34.24012108697492
C            6.93472490833702       14.55563712055093       34.24407688394423
C            6.19525136999957       12.30526841224497       34.83363272305512
C            5.22444948894838       11.38907291856406       35.41483287939572
C            5.77209637673190       10.14465063593778       35.27443088239295
C            7.04747709485632       10.32928894288506       34.62369528908318
C            9.10155146621546        9.46031199295779       33.61817891178916
C            9.94664256214863        8.36104124111080       33.23878800838093
C           10.99331408935864        8.90744442043094       32.54568690379944
C           10.78331058570635       10.32262778592931       32.54363172977049
C           11.69166052154625       11.19749154165015       31.96950099854239
H           12.56746221141453       10.75751646595459       31.52260627322832
C            9.89915005626552       15.57492369106920       32.64078902296065
H           10.20142292038079       16.58310538343237       32.41128937699402
C            6.02313080644989       13.67191814474471       34.78620134857860
H            5.12596790936280       14.09475102779184       35.20501887655877
C            7.90140504954867        9.29398885414806       34.28521356108806
H            7.61690643327983        8.28054186415092       34.52405581751353
C           13.73509353311892       12.99201754659489       30.71323476232439
H           13.47591737389903       12.31353036135825       29.89564230962297