78
 energy: -116.058077866687 gnorm: 0.000187072938 xtb: 6.7.1 (edcfbbe)
Fe         -11.50112698998902        2.44424361690461        1.10512591780731
N          -12.11370340640249        0.77814181000948        2.05479134958513
N           -9.82416140239170        2.44860679137586        2.22509603951602
N          -10.85817108231552        4.05973585233265        0.12987986350886
N          -13.13510693308902        2.39015965463264       -0.03235106013715
C          -13.28378525624348        0.11296140672574        1.86177934299417
C          -13.38938833119396       -1.00910668322271        2.76614315912043
C          -12.25368603086740       -1.00603726330458        3.51563506400863
C          -11.47120642810434        0.12097362832193        3.06115367376604
C           -9.48708232826607        1.56423404227326        3.20702036913863
C           -8.23694807967984        1.92961490418078        3.81838583194210
C           -7.82272735478949        3.07712390989711        3.19267139473663
C           -8.83024773115896        3.37525150484055        2.19494466094574
C           -9.71805980486188        4.76167303636793        0.37259787410878
C           -9.60858763535313        5.88828306125623       -0.52058891950838
C          -10.72103276702870        5.85509893444844       -1.31758153195443
C          -11.48276289623485        4.69620060739857       -0.89089280271336
C          -13.45974196326228        3.25288292306524       -1.02895832800367
C          -14.73413367762281        2.90040911591439       -1.61867767182725
C          -15.17222863381918        1.80264183261988       -0.94845586554776
C          -14.15844180891330        1.49973712214141        0.03972365730527
C          -14.24348075527763        0.44062050390410        0.92231699572445
H          -15.12386151687733       -0.18158824828500        0.87314088989562
C          -10.24626950577443        0.47175769403863        3.59517691796268
H           -9.86239330133978       -0.14098649567872        4.39651887997165
C           -8.77906468933010        4.46103730574107        1.34271744882836
H           -7.93906212822542        5.13108152024371        1.44249144652631
C          -12.69979347910496        4.33210007763578       -1.43643900367919
H          -13.09051777346719        4.93935773732877       -2.23872709719185
C          -11.83402111931347       -1.94005912773116        4.59893866426594
H          -12.58485998655152       -2.71018997064232        4.75709832139062
H          -11.69144689474281       -1.40295551653884        5.53721817130592
H          -10.89263922820999       -2.42732527120372        4.34321341009706
C          -14.54628104411688       -1.94731746669127        2.80974712239685
H          -14.66931477980959       -2.44891836518287        1.84956508003384
H          -15.46804362143576       -1.40816656247202        3.02906780575607
H          -14.40209744417924       -2.70543213487053        3.57570062596177
C           -7.53440277646562        1.14376407458354        4.87047755959157
H           -7.65797587555567        0.07496490861017        4.70150430844484
H           -7.92850157228674        1.37611240537810        5.86148223960558
H           -6.47151939664081        1.37662087669546        4.86175227193621
C           -6.62286785950473        3.85384121760849        3.41072829142782
H           -6.21056070900051        4.33453416969193        2.53118565895588
C           -6.01309554874203        4.02209376158340        4.57973299185644
H           -6.40171335160862        3.60959811148280        5.49442313284969
H           -5.11124990620023        4.60525554579632        4.66536771876657
C           -8.45484994080408        6.82744242562104       -0.58004593429368
H           -7.51639522618491        6.29467874429252       -0.43368205532719
H           -8.53365336728102        7.59151730934528        0.19521522451873
H           -8.42627699946502        7.32187399503437       -1.54884314169376
C          -11.10114209671199        6.73983172455746       -2.39665935076194
H          -11.62859306117750        6.27293456249857       -3.22038520731706
C          -10.86213490277408        8.04645380241848       -2.44281066524493
H          -10.38468510574411        8.57041339823481       -1.63314013578373
H          -11.16127017285259        8.64467256361294       -3.28757601776294
C          -15.37410830903814        3.64129701599527       -2.74209114994309
H          -14.73049766642613        3.63052781894705       -3.62186140940157
H          -15.55134261449857        4.68102498140274       -2.46562352029688
H          -16.32682855437036        3.19101929449543       -3.00982403012578
C          -16.42387517116665        1.01618308843603       -1.13777531976845
H          -16.19166131111855       -0.01633419173129       -1.39975773379025
H          -17.03152222021086        1.44196141249355       -1.93243603276159
H          -17.01417651671298        1.00795183950651       -0.22113546934188
O          -10.37553479456183        1.04765314694806       -0.32552595834348
H          -10.73104405071968        0.20164255025199       -0.03239414625047
H           -9.48644643716163        1.12238565783604        0.03773636683804
C          -14.48850799175188        6.37244217489964        3.69654681591460
H          -13.95455258935404        7.08697187160221        4.32283073291902
H          -15.39245531356288        6.06646363690656        4.22315893878263
H          -14.77378658248278        6.86497982596301        2.77233982673432
N          -13.11654770542384        4.38703253994764        4.36588766199393
H          -13.25455754870160        4.49781566739767        5.35697005269624
C          -13.63326686271247        5.19815050087783        3.38976924064047
C          -12.39119147755248        3.42297303613656        3.75579729005403
H          -11.86970683760736        2.64569927600455        4.27490784131526
N          -12.41754615734788        3.57394026384594        2.45398510672413
C          -13.18659806372231        4.67404630217288        2.21064229186292
H          -13.36487954545000        5.01272320484287        1.21093801574642
