72
 energy: -105.980475583299 gnorm: 0.000114043575 xtb: 6.7.1 (edcfbbe)
Fe           3.32480480780320       -2.80482081093144       15.46589502073799
N            1.95888833068287       -2.99326970729328       16.90082292516164
N            4.05119378737259       -4.63046161250703       15.92100286446608
N            4.76662259418456       -2.59375884916107       14.07085467338821
N            2.66145938657444       -0.97592075008563       15.05313423196471
C            0.99439443254653       -2.09701870611198       17.22500657580062
C            0.18561568024024       -2.58722190335280       18.32082379734815
C            0.69700408506384       -3.79968335706035       18.65913721357184
C            1.80466687801260       -4.03695173737508       17.75814040774253
C            3.60800484893704       -5.46509350932155       16.90339463448368
C            4.35276686453377       -6.69562602016756       16.90353369686278
C            5.26398784029973       -6.59623611380165       15.88423096311898
C            5.06525118533318       -5.28816295853699       15.29547573773553
C            5.67924522655498       -3.53208623992731       13.68758724214493
C            6.50939739603786       -3.03189326109156       12.62383719076603
C            6.07642720895806       -1.75791822194370       12.36436181274467
C            4.98385788165883       -1.51036383771934       13.28138927649104
C            3.15740121780846       -0.11198537856576       14.13063153361913
C            2.38077370451744        1.10979454704367       14.10355230600804
C            1.39724430015499        0.95510905999330       15.02746497395930
C            1.59279308984410       -0.35477977081948       15.61211201249786
C            0.80133709357571       -0.87138005529985       16.61783455090524
H           -0.01568277370658       -0.26264296386392       16.97258811519626
C            2.56614599917583       -5.18771948717168       17.77224036705678
H            2.31862211776576       -5.93837322310158       18.50642520284634
C            5.80920819833579       -4.79388787440665       14.24093763933563
H            6.56115407062112       -5.44208581353793       13.81928073290707
C            4.24032136337132       -0.34548277963043       13.30664411179859
H            4.51091345716225        0.43288224019647       12.61067733517856
C            0.26136644609017       -4.74757082505968       19.72275765277905
H           -0.58760732265983       -4.34795597487098       20.27150871364566
H            1.07164108998946       -4.92790476408434       20.42931631623907
H           -0.02989883337214       -5.70505168659997       19.28974004757069
C           -0.96154233874962       -1.84542982513043       18.91446336938979
H           -1.71353859091244       -1.63024685917321       18.15513749381483
H           -0.62573473250658       -0.89794325330694       19.33601196671705
H           -1.42962047403632       -2.42562698003427       19.70576459226228
C            4.17653653193239       -7.80239941789892       17.88279373175661
H            3.34609222399799       -8.44957760813363       17.59527166457871
H            3.96793225553679       -7.40802808375561       18.87612937255886
H            5.08083505745299       -8.40565215111727       17.92981438669705
C            6.26724037197980       -7.54776250616907       15.45966843096616
H            7.19121560333828       -7.12096455095619       15.08705320701186
C            6.13320746888798       -8.86942055014941       15.48671901907607
H            5.22193626283822       -9.34711802890093       15.80172601764283
H            6.92820461956487       -9.52210608666522       15.16682391922633
C            7.65182473836886       -3.76384099635687       12.01199101628671
H            7.30285650959890       -4.45963801160423       11.24729270748506
H            8.19347794051565       -4.33494568557072       12.76468736118764
H            8.33952013427944       -3.05995422469021       11.54791659732363
C            6.57892662819316       -0.79743031217072       11.40640862362142
H            6.52978296410663        0.24039109712113       11.71507162652143
C            7.07262717859121       -1.09209327530708       10.20867457070113
H            7.09959085490788       -2.09963370345471        9.83204029869519
H            7.44252704810465       -0.32552168112193        9.54835304232910
C            2.66346097289410        2.26414721770462       13.20562384014909
H            2.60903689716504        1.95778348631509       12.16088328234729
H            3.66255593525471        2.65898563425722       13.39139368522931
H            1.94453920859176        3.06348093721305       13.36641543872445
C            0.31085528455768        1.89540737848041       15.42011154558839
H           -0.66613909338441        1.43996362808054       15.25811517813521
H            0.36285965993304        2.81127124542133       14.83685743431494
H            0.39299654478290        2.15508500668555       16.47567163424905
O            4.81912633359681       -1.96518258005174       16.91236276560178
H            5.37827314218885       -1.44802524056733       16.32135961663283
H            5.31214373339036       -2.75982559380243       17.14704550195414
C            0.86243344606983       -4.98069829969538       14.57965768421053
H            0.44208702724510       -5.61633801459143       13.80640549880141
H            0.07349064279957       -4.43491928752776       15.08650084623122
H            1.43092291803182       -5.55821622467659       15.30040205966229
S            1.94593338286858       -3.73094816054013       13.80292530277738
H            2.82920405456406       -4.61650609198772       13.32911579345987
