78
 energy: -116.058077732274 gnorm: 0.000043600258 xtb: 6.7.1 (edcfbbe)
Fe          -5.66331910139091       57.09321854718765      111.74044874850026
N           -6.41569533606426       56.14254734197844      113.34789230538408
N           -6.54761542940255       58.79887509743574      112.35357124894833
N           -4.87374519744450       58.05790655345121      110.18497109917767
N           -4.74962066800108       55.41444323415803      111.18174321831746
C           -6.27334944266650       54.82624984164191      113.65743561701828
C           -6.99923118673327       54.50328780478309      114.86447497491307
C           -7.58922712252552       55.65765084958508      115.27784426051130
C           -7.21825322381004       56.66977840988774      114.31499982568029
C           -7.33085853161477       58.97018041525637      113.45679443327450
C           -7.82700304391610       60.31877940811982      113.52838413129247
C           -7.33768562015053       60.96861344706129      112.42465013472460
C           -6.53406082146544       59.99669947832707      111.71127652798155
C           -5.07394891994579       59.35949421591395      109.84226370746539
C           -4.35718937146402       59.68891702597134      108.63532531848263
C           -3.71250236293972       58.54513590977538      108.24806916939920
C           -4.05044833978963       57.54162478802382      109.24009778107381
C           -3.94765529588670       55.24773356442865      110.09913181821010
C           -3.48026903291237       53.88025403467250      110.01175425079286
C           -4.02457703793465       53.22443899569936      111.06996928383661
C           -4.81520297486261       54.20116768568595      111.78902046871347
C           -5.52724612160142       53.91244474276330      112.93688966827914
H           -5.49629967032861       52.89746121780003      113.30222059072764
C           -7.63968901813968       57.98386294086053      114.38002216088313
H           -8.28173121212599       58.25715947866656      115.20345900968994
C           -5.85902140518725       60.26264905559065      110.53592957245618
H           -5.95278125239294       61.25546785937938      110.12357531094439
C           -3.61611390922712       56.23019318221360      109.18640358289888
H           -2.97323563858386       55.94901417063474      108.36619519192143
C           -8.45310947397824       55.90412359937489      116.46739141209802
H           -8.58573269828873       54.99208837649923      117.04399570639151
H           -9.43677811997319       56.26209133318249      116.16171577047906
H           -8.00713137653748       56.65789476497653      117.11697078268541
C           -7.04360142061204       53.14736944684593      115.48097874500797
H           -6.04062243955201       52.81676832175774      115.75194276211312
H           -7.46011941168282       52.42235280678088      114.78148279744336
H           -7.65725481216614       53.14934832654366      116.37855032696061
C           -8.64718544175509       60.87347738311981      114.64087910291998
H           -8.33400585900324       60.45633334770666      115.59693755437605
H           -9.70450068593039       60.64082898640920      114.50174943397228
H           -8.53735881958828       61.95533350455396      114.68075297827200
C           -7.51832861027644       62.34516680979746      112.02104785064743
H           -6.67824225803819       62.79558112501453      111.50525209051428
C           -8.61199074039230       63.07277409861874      112.22402646104788
H           -9.49418335151879       62.66635905270334      112.68704225685235
H           -8.67091797828885       64.10070452869650      111.90677942453485
C           -4.29659789274694       61.04121337419704      108.01539597940643
H           -4.23898979489913       61.81377303498511      108.78076184232710
H           -5.18378669181891       61.23218883847817      107.40918872855845
H           -3.41963991654333       61.11937635094504      107.37612634855630
C           -2.83814276195720       58.32466448010553      107.11733672019383
H           -2.02661411410597       57.62564060943987      107.28321881298017
C           -2.96165949384747       58.89686813761195      105.92409122961327
H           -3.77448479717456       59.56182085315238      105.68913062646979
H           -2.26295315048021       58.69772722608057      105.12840649910312
C           -2.57632139316467       53.36757010333349      108.94377779199151
H           -1.62842169285612       53.90583050425332      108.95545513323614
H           -3.02847100716037       53.50056906347008      107.96056135315581
H           -2.37055635864266       52.30944743705859      109.08570651066682
C           -3.87988933003129       51.79733502949867      111.47425287095150
H           -3.24186426689055       51.26058643821666      110.77653880141237
H           -4.85241066893040       51.30499362479502      111.49865185107976
H           -3.43853424607323       51.72368219090709      112.46842346745109
O           -3.90318450366074       57.68624240196037      113.08700105602628
H           -4.11148307096115       57.15405027079512      113.86264830314241
H           -4.15159438507339       58.59429247901274      113.29168462883551
C           -9.18780433278046       55.48811676996264      107.73141334220367
H           -9.83664675310618       56.24718878713645      107.29466097028137
H           -9.77903631369511       54.58705855520980      107.89432964773711
H           -8.39430560078672       55.26136701945447      107.02638208656582
N           -9.36296632250506       56.33109242135208      110.08307266002151
H          -10.36872749290094       56.31130943254139      110.12322389376732
C           -8.59719353268202       55.96953106908175      109.00574762936516
C           -8.52435663185865       56.71934855153362      111.06984076884967
H           -8.84668055298013       57.05599510453739      112.03334762839341
N           -7.27537616797457       56.62539907399626      110.68331709272641
C           -7.30423275313228       56.15983257265262      109.40139563762885
H           -6.39943422250113       55.99504308471150      108.85360121949273
