78
 energy: -115.951731374603 gnorm: 0.342537252178 xtb: 6.7.1 (edcfbbe)
Fe          -5.79400000000000       57.08799999999999      111.68600000000001
N           -6.39500000000000       56.17599999999999      113.42299999999999
N           -6.74200000000000       58.81199999999999      112.31100000000001
N           -4.91300000000000       58.08200000000000      110.14200000000000
N           -4.80500000000000       55.36399999999999      111.13099999999999
C           -6.21600000000000       54.88600000000000      113.74600000000000
C           -6.73800000000000       54.60400000000000      114.98699999999998
C           -7.32200000000000       55.79100000000000      115.42499999999998
C           -7.06400000000000       56.72100000000000      114.43400000000000
C           -7.36600000000000       59.02999999999999      113.46400000000000
C           -7.91000000000000       60.31600000000000      113.52800000000001
C           -7.53100000000000       60.91400000000000      112.32699999999998
C           -6.72100000000000       59.97200000000000      111.68000000000001
C           -5.12000000000000       59.36200000000000      109.80400000000000
C           -4.37400000000000       59.73599999999999      108.68000000000001
C           -3.60600000000000       58.59900000000000      108.39800000000000
C           -4.02900000000000       57.60700000000000      109.28499999999998
C           -3.99900000000000       55.21600000000000      110.08499999999999
C           -3.65900000000000       53.88100000000000      109.90400000000000
C           -4.24800000000000       53.20300000000000      110.97000000000000
C           -4.90300000000000       54.16500000000000      111.72299999999998
C           -5.56700000000000       53.95199999999999      112.93899999999999
H           -5.57700000000000       52.92400000000000      113.30000000000000
C           -7.48400000000000       58.05499999999999      114.46299999999999
H           -7.96700000000000       58.37900000000000      115.38500000000001
C           -5.97200000000000       60.20000000000000      110.52700000000000
H           -6.06800000000000       61.20499999999999      110.12000000000000
C           -3.61600000000000       56.26700000000000      109.26900000000001
H           -2.88600000000000       56.01600000000000      108.50099999999999
C           -8.19800000000000       56.03100000000000      116.65700000000000
H           -8.32900000000000       55.07700000000000      117.21099999999998
H           -9.19600000000000       56.40400000000000      116.34099999999999
H           -7.71000000000000       56.77199999999999      117.32599999999999
C           -6.68800000000000       53.24300000000000      115.66999999999999
H           -5.64800000000000       52.85399999999999      115.64499999999998
H           -7.35200000000000       52.53000000000000      115.13600000000000
H           -7.01000000000000       53.34199999999999      116.72900000000000
C           -8.77600000000000       60.82300000000000      114.68600000000001
H           -8.26800000000000       60.60800000000000      115.65100000000000
H           -9.75900000000000       60.30600000000000      114.67399999999999
H           -8.92300000000000       61.92000000000000      114.59200000000000
C           -7.85800000000000       62.15300000000000      111.74500000000000
H           -7.34200000000000       62.41599999999999      110.81200000000000
C           -8.79500000000000       63.13700000000000      112.21899999999999
H           -9.36300000000000       62.96700000000000      113.14600000000000
H           -8.95400000000000       64.07100000000000      111.65999999999998
C           -4.34300000000000       61.13500000000000      108.04900000000001
H           -4.33500000000000       61.90400000000000      108.85100000000000
H           -5.24600000000000       61.28200000000000      107.41800000000001
H           -3.42600000000000       61.24800000000000      107.43199999999999
C           -2.62700000000000       58.34199999999999      107.42300000000000
H           -2.04600000000000       57.41599999999999      107.53199999999998
C           -2.28400000000000       59.13500000000000      106.29700000000000
H           -2.80800000000000       60.08200000000000      106.09999999999999
H           -1.49000000000000       58.81199999999999      105.60800000000000
C           -2.88900000000000       53.26299999999999      108.74799999999999
H           -1.80100000000000       53.43299999999999      108.89400000000001
H           -3.20200000000000       53.73600000000000      107.79300000000001
H           -3.08100000000000       52.16900000000000      108.71100000000000
C           -4.18700000000000       51.70200000000000      111.22899999999998
H           -3.23400000000000       51.29500000000000      110.82800000000000
H           -5.03700000000000       51.19900000000000      110.71999999999998
H           -4.23000000000000       51.50800000000000      112.32199999999999
O           -4.25400000000000       57.61899999999999      113.17199999999998
H           -4.52100000000000       57.20000000000000      113.98999999999999
H           -3.52900000000000       58.11899999999999      113.05000000000000
C           -9.16600000000000       55.14399999999999      107.69100000000000
H           -9.52100000000000       55.87799999999999      106.93599999999999
H          -10.01300000000000       54.48499999999999      107.97799999999999
H           -8.34700000000000       54.53800000000000      107.24799999999999
N           -9.28300000000000       56.72200000000000      109.74100000000000
H          -10.22700000000000       57.02099999999999      109.60700000000000
C           -8.64700000000000       55.89200000000000      108.92900000000000
C           -8.50400000000000       57.08499999999999      110.72799999999998
H           -8.79500000000000       57.75500000000000      111.53599999999999
N           -7.35100000000000       56.50699999999999      110.55900000000000
C           -7.39500000000000       55.77400000000000      109.47799999999999
H           -6.53100000000000       55.20600000000000      109.15599999999999
78
 energy: -116.022420345599 gnorm: 0.134961833000 xtb: 6.7.1 (edcfbbe)
Fe          -5.77168969255243       57.08738339542628      111.70508872708233
N           -6.41125851087436       56.17241872180912      113.39566025025714
N           -6.71042292480826       58.79955430573267      112.31571307263860
N           -4.92826193679502       58.07442041081018      110.15691624157554
N           -4.80208850870352       55.38514727078870      111.15418680916449
C           -6.21053109266361       54.87685252849308      113.73299689103524
C           -6.75682775182939       54.59584600862028      115.00527625786114
C           -7.33437584009609       55.77288470115167      115.44143916250633
C           -7.07982183303541       56.72921503396103      114.42744522013531
C           -7.37105519784356       59.01261369973135      113.47399217454048
C           -7.92143933020615       60.32237158913608      113.53007100724612
C           -7.54574083908709       60.93450192680944      112.33762660418832
C           -6.72562530084886       59.97021189206005      111.65695056562939
C           -5.13582015085355       59.36780224888330      109.81246579438103
C           -4.35826641844113       59.74206122584478      108.68108760241452
C           -3.60394143726200       58.61085631857519      108.37274293695552
C           -4.02246730748083       57.59534469192485      109.29128834184073
C           -4.00893943731574       55.22622258353481      110.07657358137676
C           -3.65998652552229       53.85956624126341      109.90214875168219
C           -4.23903339192858       53.18733804618678      110.95832162655471
C           -4.91789275837100       54.16613613160062      111.72954535247443
C           -5.56811784187493       53.93971666752145      112.93610273098716
H           -5.57113729767868       52.92079862571288      113.30086143406419
C           -7.49680323754615       58.05482666513517      114.47391650322432
H           -7.97659061889799       58.37616269125498      115.38879558209672
C           -5.98817919696798       60.21454836322334      110.50955635871269
H           -6.06357823909319       61.21594591682899      110.11098172024633
C           -3.60781741335016       56.26710717574895      109.25751604591574
H           -2.88721265454025       56.00825093157797      108.49357594946014
C           -8.18752470962718       56.02211527016424      116.65730709215529
H           -8.32852363320699       55.08913775482863      117.21045086939270
H           -9.17284894525194       56.39686310986770      116.34954582470807
H           -7.71939705827308       56.76143544215716      117.31910802584459
C           -6.69288345362111       53.25156408974473      115.67448784222135
H           -5.66704828958372       52.86176258104874      115.64884865082338
H           -7.34352205372349       52.53946669131714      115.15076730268457
H           -7.00938666614401       53.33385426115311      116.71814699316357
C           -8.76610900660754       60.82095473022649      114.67616838305354
H           -8.27459366673144       60.60911569215645      115.63392433607740
H           -9.74235984219127       60.31813221013876      114.67309347744242
H           -8.91835044395866       61.89974265015645      114.60396435154399
C           -7.87873591042479       62.19377283227496      111.76460643241955
H           -7.36778002291651       62.43196821696977      110.83132079134147
C           -8.77481479509090       63.12008569795617      112.20998743413163
H           -9.35273918496436       62.96953758984654      113.11347345088777
H           -8.94181276917800       64.04254536307872      111.66477610342895
C           -4.34015514535634       61.11977018883354      108.06021643166534
H           -4.33685547910923       61.89012422348639      108.84096184191367
H           -5.22699377827554       61.27494570902756      107.42982113250902
H           -3.44318031557690       61.25234857676154      107.44983572417705
C           -2.61103677696077       58.36443984363925      107.38537125345816
H           -2.04446052060753       57.44135787484738      107.51127736895812
C           -2.28551601609151       59.12482117416446      106.31080116965204
H           -2.79958295255800       60.05255793786195      106.09388712379739
H           -1.50388044789827       58.81442729966839      105.62729219895097
C           -2.88951066259043       53.26481219878191      108.75692476944799
H           -1.81241401204558       53.43005522197127      108.88900653415102
H           -3.19569241465541       53.72512929615153      107.80939491611765
H           -3.07511267419648       52.18696915124566      108.70637831277836
C           -4.18224132657908       51.70829965001045      111.22583717251133
H           -3.24677015486246       51.29469309461637      110.83502404763466
H           -5.02306134623379       51.20367528443169      110.73186949257909
H           -4.23046361544280       51.50762355092203      112.30188117746333
O           -4.25170511418668       57.61230771510005      113.16443712046853
H           -4.50447235571788       57.20916700509591      113.99492580732800
H           -3.48589372490878       58.14252670382979      113.06087273289465
C           -9.16930405609252       55.15551983221924      107.69787336724121
H           -9.52033474869089       55.86943866591482      106.94370579228561
H          -10.00122895377366       54.49565720709300      107.97207273258822
H           -8.36472584471415       54.55412061756344      107.26340570866076
N           -9.30588503369656       56.71403263523596      109.72770341596953
H          -10.25328959482651       57.01625640885639      109.59249644120281
C           -8.63880558811006       55.87147773561879      108.91319512859992
C           -8.50731672590850       57.08961751895572      110.73085069801552
H           -8.79680555642756       57.75042718301643      111.52767594358986
N           -7.33268265098145       56.52433494416123      110.57780168401483
C           -7.38635584855207       55.76837636143151      109.47582142980258
H           -6.53191342640948       55.20552899705300      109.15356067200469
78
 energy: -116.039573086413 gnorm: 0.040245687251 xtb: 6.7.1 (edcfbbe)
Fe          -5.75794434010134       57.08490772064613      111.72272388310934
N           -6.43517426815467       56.16455890781204      113.36743826971801
N           -6.67933701443475       58.79144564462210      112.31906846110627
N           -4.93557557465729       58.06740071369043      110.17557759588290
N           -4.80035571517361       55.40419748669840      111.17374527304868
C           -6.21734150971038       54.86831596519464      113.71646720211169
C           -6.77672319362861       54.59171600977616      115.01169154184387
C           -7.34714203424978       55.75597837880293      115.44298081816615
C           -7.10262474822747       56.72992553472223      114.41119653933943
C           -7.36835864222915       58.99711039541352      113.47606791235280
C           -7.92582872277567       60.32127814714028      113.52289175016870
C           -7.55707120677683       60.93615753362884      112.34222780348972
C           -6.72748020152317       59.96510881245305      111.64034990077720
C           -5.14774241246188       59.36664232797649      109.82465054896115
C           -4.34480046185295       59.73837497390895      108.68971570959084
C           -3.60757921622390       58.61703908524832      108.36400607229292
C           -4.02091042668164       57.58571392499510      109.30063843570719
C           -4.01859481168370       55.23900644111618      110.07492363633649
C           -3.66729765400419       53.85051412814963      109.90433827886487
C           -4.23536554865978       53.18314695508728      110.94980957046516
C           -4.92824876513754       54.17252711752126      111.73630788973382
C           -5.57210730815453       53.92740786621823      112.93377226096297
H           -5.56232110400468       52.91374620302254      113.30423648223994
C           -7.51406823905448       58.04961162804450      114.47654022721704
H           -7.99983420418705       58.36644761648409      115.38643662314499
C           -6.00363309175394       60.22749924991779      110.49344295244067
H           -6.06936432713612       61.22712154428917      110.09432542140297
C           -3.60311535328124       56.26664090073659      109.24774586306627
H           -2.89497651858983       55.99789150792923      108.47905683309578
C           -8.17526051198070       56.01171700602681      116.65637633943847
H           -8.32280175437725       55.09409426136536      117.21744146478711
H           -9.15434086082860       56.38982641348576      116.35891026799503
H           -7.71601787995482       56.75195583422406      117.31115761109312
C           -6.70210225971230       53.26085249759960      115.67897941015416
H           -5.68288699782404       52.87498220594127      115.65342683976814
H           -7.34275860910766       52.54360667578998      115.16485396931284
H           -7.01588955554959       53.32884572671999      116.71582305749587
C           -8.75297160675209       60.81653357909943      114.66327858197309
H           -8.26943678030180       60.59974846542834      115.61555217313131
H           -9.72847159560250       60.32621998399147      114.66750810906827
H           -8.90663107971418       61.88713987680127      114.60947251247563
C           -7.89459674562168       62.21513094699402      111.77568950654634
H           -7.37427531875878       62.44167550887612      110.85077260658736
C           -8.76502160642045       63.10962585893239      112.20600628474286
H           -9.35569276362589       62.97769382628169      113.09334077986972
H           -8.93392050293531       64.02720288332266      111.66870465658812
C           -4.33504627379397       61.10136164593776      108.07714177588143
H           -4.34280513206074       61.87256306602983      108.84666260626024
H           -5.21233349453588       61.25447020090103      107.44457514576381
H           -3.44857492833299       61.25065846603241      107.47074474506341
C           -2.60314446502555       58.37985069068205      107.36210211279212
H           -2.04208817579887       57.46206789417607      107.50371149354869
C           -2.29171194258768       59.12006554030428      106.31090497240159
H           -2.79893628366656       60.03536274667461      106.07108970079872
H           -1.50704277416531       58.82349318269664      105.63669888442104
C           -2.89236789900543       53.27139467972263      108.76721815207017
H           -1.82136585185909       53.43546008673909      108.89219797263131
H           -3.19346947196809       53.72410904342575      107.82365064506443
H           -3.06820667453360       52.20058469928126      108.70355984735612
C           -4.18038896035631       51.71732273703383      111.22372635192554
H           -3.25582043192047       51.29453649653934      110.83865511311777
H           -5.01636768639207       51.20760994173348      110.74173142110540
H           -4.23074918900978       51.51276503565276      112.29012705660594
O           -4.20688386133352       57.59754272091229      113.14284914019625
H           -4.45692072207217       57.24554980609383      114.00149798171603
H           -3.44392904836716       58.16934636755883      113.08287354702182
C           -9.16805723683672       55.16497879415422      107.70752883740727
H           -9.52033615581428       55.87264620872137      106.95920334418797
H           -9.99548314738949       54.50804858662327      107.97324485669046
H           -8.37723467236068       54.56418060755686      107.26947878560684
N           -9.32609451672102       56.70118855547899      109.71630362187912
H          -10.27702193194369       57.00084278920708      109.57799839855117
C           -8.62591361807117       55.85381469026876      108.90684782230279
C           -8.51561846911539       57.09357595514746      110.72359439333907
H           -8.80808473504707       57.74992531670404      111.51288506163827
N           -7.32570291259698       56.54884956700208      110.58942398258958
C           -7.38005961953551       55.77262775886999      109.47756466243470
H           -6.52924667420519       55.21192185001165      109.15553963996574
78
 energy: -116.044622071943 gnorm: 0.032629445609 xtb: 6.7.1 (edcfbbe)
Fe          -5.74670507499670       57.08483139557224      111.73454009392147
N           -6.45462056655506       56.15458731672779      113.35145900756540
N           -6.66285549206193       58.78794816945812      112.31930309404427
N           -4.93207518905439       58.06232534383433      110.18685450338079
N           -4.80619130309672       55.40869983514612      111.17971011015752
C           -6.23516556989109       54.85887070282162      113.70359108504199
C           -6.79785743935663       54.58429051641657      115.00661616830698
C           -7.36543907259987       55.74405235728199      115.43441773091304
C           -7.12751666730750       56.72141053846470      114.39429536149976
C           -7.36663500744534       58.98720346860333      113.47095471711184
C           -7.92601746685720       60.31489521388251      113.51401504528309
C           -7.55871227410710       60.93032345285354      112.34003969840110
C           -6.72471487482237       59.96039671608993      111.63348105875794
C           -5.14805640072749       59.36097516906788      109.83362888647066
C           -4.33688703479046       59.73114903607079      108.69900585621042
C           -3.60823756089980       58.61505910621678      108.36436456281611
C           -4.02039826793496       57.57902856878468      109.30501627529104
C           -4.02702381202376       55.24350529243605      110.07667834229473
C           -3.67503138730465       53.84958271035989      109.90591568146120
C           -4.23799774212816       53.18255639178773      110.94818806694968
C           -4.93517358248972       54.17478842986719      111.73909305390883
C           -5.58041698057644       53.91737330774729      112.93148270519490
H           -5.55715324156339       52.90548203869027      113.30664681618309
C           -7.53529443230316       58.03933194357916      114.46781779204555
H           -8.03749199175078       58.35025108903994      115.37146147938192
C           -6.00932435505492       60.22974238563035      110.48381657863625
H           -6.08155524252935       61.22473597737358      110.07325140051124
C           -3.60577064928545       56.26167317960665      109.24215324485517
H           -2.91177203322705       55.98353513931097      108.46344205950267
C           -8.16905747505114       56.00566063560620      116.66066460439285
H           -8.31152449580730       55.09298434632676      117.23098231467289
H           -9.15043648496856       56.38619284958708      116.37780684950403
H           -7.69777489889154       56.74718021321954      117.30430343009421
C           -6.71515306861137       53.26099933470453      115.68362332270780
H           -5.69358177473008       52.88464667081490      115.66163900914530
H           -7.35016983184441       52.53486353442324      115.17632054710057
H           -7.03048034278293       53.32963384099835      116.71992082881060
C           -8.74155363333551       60.80947119668848      114.65850789193397
H           -8.25558566460495       60.57641904063574      115.60487035509250
H           -9.72287080098402       60.33213870878355      114.66180598431718
H           -8.88261320364379       61.88210363292923      114.61886481317229
C           -7.89195046653473       62.21956399287448      111.77985349532284
H           -7.36318813552937       62.44966108798782      110.86309714886207
C           -8.77718592430822       63.11522420208675      112.20451552399854
H           -9.38821962740894       62.98670166263985      113.07798923829404
H           -8.93377409633852       64.03551001485393      111.66914468351411
C           -4.33037825440636       61.09285271143784      108.09605652734489
H           -4.35464834092144       61.85956985636930      108.86854601937164
H           -5.20249638157492       61.23534408551853      107.45555941869752
H           -3.43966720867558       61.25438870423039      107.50019418361562
C           -2.59937297693658       58.38618261392440      107.35612043481690
H           -2.02597933355100       57.47984132870726      107.50664403884475
C           -2.29547366095270       59.12476786645546      106.29482917587892
H           -2.81942130730000       60.02294774565502      106.02543556250490
H           -1.50079475340366       58.83387006021002      105.62987845200038
C           -2.89204816071107       53.28003447471060      108.77216578271043
H           -1.82338767620087       53.45116099286150      108.90158455925676
H           -3.19280036755871       53.73238327680151      107.82959677473988
H           -3.05874854170063       52.20842929639250      108.70208403215699
C           -4.18165830847668       51.71984946477254      111.22595605969640
H           -3.25954051367966       51.29318464819385      110.83997704294433
H           -5.01886622848121       51.20777038822136      110.74988631142448
H           -4.22975221351914       51.51842873868328      112.29195201587831
O           -4.10527614924863       57.54240976165645      113.10970676220116
H           -4.39996590609868       57.31958123646686      114.01752749298880
H           -3.40884920811995       58.22592419813063      113.09781942256735
C           -9.16587771178250       55.16870675042185      107.71294944585560
H           -9.52128311937260       55.88476062281645      106.97450495779275
H           -9.99593676409407       54.51583324329382      107.97854584989469
H           -8.38389816315008       54.56638988584559      107.26313666621454
N           -9.33724223716774       56.69025658366228      109.71352603020165
H          -10.29236050234983       56.97830131131975      109.57125271590273
C           -8.61587157646544       55.84639384351127      108.91053534150768
C           -8.52569337432692       57.10012976864668      110.71759040347291
H           -8.82707225914591       57.75813436881928      111.50222615547479
N           -7.32717459065746       56.57269127855535      110.59563477926868
C           -7.37339213273297       55.78575815521069      109.48279058067371
H           -6.51886143912076       55.22916298061525      109.16163648706600
78
 energy: -116.047361389841 gnorm: 0.029063499375 xtb: 6.7.1 (edcfbbe)
Fe          -5.73711056417926       57.08511759359371      111.74090854754877
N           -6.45872403449817       56.14953191359347      113.34573634444935
N           -6.64161643701998       58.78939637901741      112.32375408991710
N           -4.92204215699916       58.05816998716229      110.19621099228259
N           -4.81755444970246       55.40800363084578      111.17865979484776
C           -6.25019369207554       54.85242675323330      113.69442606186446
C           -6.81903454942922       54.57654937270137      114.99798356272167
C           -7.38600189713602       55.73474115471130      115.42285544090291
C           -7.14637348642566       56.71306920805794      114.38060098733027
C           -7.36247646957286       58.98074338216399      113.46583014005364
C           -7.92672281604587       60.30667261943029      113.50498237536156
C           -7.56076701833595       60.92254466609967      112.33435690403583
C           -6.71696419032196       59.95819594861385      111.63178342583493
C           -5.14109625700330       59.35492427701045      109.84335280145793
C           -4.33038226493998       59.72367669506115      108.70748954355233
C           -3.60801500731851       58.61032082040921      108.36516946037580
C           -4.01871500826046       57.57305549133751      109.30667040235666
C           -4.03680244264314       55.24484638399344      110.07786052544922
C           -3.68263520673895       53.85054010363683      109.90716324469231
C           -4.24193930354868       53.18280612730376      110.94945058455477
C           -4.94129815421789       54.17624485681711      111.74028595828052
C           -5.58877711172573       53.91016669560256      112.92969358847640
H           -5.55759723320185       52.89892337891892      113.30672464619244
C           -7.55717959704807       58.02846257629841      114.45575387367430
H           -8.08844202323546       58.33025066775981      115.34736497248696
C           -6.00972124195654       60.22860982688599      110.47719058720880
H           -6.09972119362801       61.21426126951080      110.04679183999431
C           -3.61228437610266       56.25442086784562      109.23540223304028
H           -2.93254529631481       55.96830547829011      108.44644132188057
C           -8.16549535228686       56.00279770662517      116.66519205836119
H           -8.29650747603435       55.09224836088514      117.24441956255301
H           -9.15301786658817       56.38594999950452      116.40485124523626
H           -7.67255930370181       56.74404269681965      117.29507451438599
C           -6.73134623732214       53.25823970170815      115.68620206099699
H           -5.70537330288276       52.89210357102470      115.67335988342170
H           -7.35955940643056       52.52097599602637      115.18461684685383
H           -7.05233500248550       53.33435534357613      116.72199426650450
C           -8.73216875064005       60.80392094034103      114.65503559726307
H           -8.24374444978596       60.54962529862766      115.59606585580215
H           -9.72270872911050       60.34407658087501      114.65536013865615
H           -8.85108064534276       61.88144935844562      114.62314889176778
C           -7.89150758802479       62.21726153814471      111.78224043514645
H           -7.34542738087555       62.46752821693834      110.88223011540337
C           -8.79008877840339       63.11047342412549      112.20249569613382
H           -9.42129241264188       62.97559204142601      113.06185124952944
H           -8.92906152985457       64.03654908698908      111.66923271286885
C           -4.32247103080264       61.08745207840824      108.11202488608151
H           -4.36566569747913       61.84864129406390      108.89047807051891
H           -5.18769162727690       61.22125411507988      107.45946562168770
H           -3.42170505990074       61.25368335570245      107.52986985967277
C           -2.59787188576957       58.39209326464951      107.35342657509210
H           -1.99615714474301       57.50600862938656      107.51531156043283
C           -2.31257397632221       59.12749559956042      106.27803464638541
H           -2.85477566336076       60.01111798718011      105.99142112089250
H           -1.50186703252822       58.84662203744437      105.62478727481640
C           -2.88877092858963       53.29055186945931      108.77605108551782
H           -1.82248763639521       53.47466919389005      108.91439297317037
H           -3.19011195514829       53.74290467393436      107.83288290011656
H           -3.04289128175353       52.21606191698941      108.70233662764618
C           -4.18351174948581       51.72069831692069      111.23203000254946
H           -3.26258337981772       51.29231269548474      110.84184038223714
H           -5.02405582727797       51.20627877195189      110.76228574895197
H           -4.22518558469649       51.52468366980317      112.30014007806420
O           -4.03000671664809       57.53573979979506      113.09404348407787
H           -4.31194055293720       57.35388300544790      114.00535635455266
H           -3.38000441575736       58.26779683053486      113.10385883312418
C           -9.16353482435978       55.17039168046052      107.71740341156487