78
 energy: -115.723100494786 gnorm: 0.404554530463 xtb: 6.7.1 (edcfbbe)
Fe           8.21800000000000        4.79500000000000       84.83799999999998
N            9.72400000000000        4.26000000000000       86.04900000000001
N            7.46700000000000        2.94900000000000       85.02899999999998
N            6.70300000000000        5.35000000000000       83.66800000000001
N            8.93700000000000        6.66400000000000       84.72300000000000
C           10.71900000000000        5.10600000000000       86.54700000000000
C           11.61900000000000        4.34700000000000       87.36700000000000
C           11.19700000000000        3.08200000000000       87.37999999999998
C           10.00100000000000        3.01300000000000       86.56399999999998
C            8.03400000000000        1.89100000000000       85.69199999999998
C            7.12600000000000        0.75100000000000       85.55200000000001
C            6.07600000000000        1.15200000000000       84.84399999999998
C            6.24000000000000        2.54100000000000       84.51500000000000
C            5.57900000000000        4.58400000000000       83.35299999999999
C            4.70500000000000        5.35300000000000       82.49900000000000
C            5.27400000000000        6.55800000000000       82.28100000000001
C            6.52400000000000        6.55200000000000       83.02399999999999
C            8.44300000000000        7.68000000000000       83.95800000000000
C            9.26000000000000        8.84500000000000       84.22199999999999
C           10.19000000000000        8.52900000000000       85.12199999999999
C           10.01900000000000        7.15900000000000       85.44799999999999
C           10.82400000000000        6.46900000000000       86.31900000000000
H           11.58900000000000        7.02400000000000       86.86199999999999
C            9.25400000000000        1.87600000000000       86.34399999999998
H            9.64200000000000        0.92200000000000       86.70000000000000
C            5.35200000000000        3.30400000000000       83.80699999999999
H            4.38200000000000        2.86100000000000       83.58300000000000
C            7.38000000000000        7.65100000000000       83.06600000000000
H            7.21400000000000        8.49200000000000       82.39499999999998
C           12.86400000000000        4.93300000000000       88.08199999999999
H           12.32400000000000        5.72600000000000       88.64300000000000
H           13.32700000000000        5.38300000000000       87.17800000000000
H           13.65100000000000        4.50100000000000       88.73699999999999
C           11.78600000000000        1.88200000000000       88.14100000000001
H           11.87500000000000        1.22000000000000       87.25299999999999
H           10.87200000000000        1.60400000000000       88.70699999999999
H           12.68400000000000        1.75000000000000       88.78100000000001
C           11.31500000000000        9.38100000000000       85.80000000000000
H           11.77800000000000        9.59700000000000       84.81299999999999
H           12.10600000000000        9.39200000000000       86.58000000000000
H           10.55500000000000       10.16100000000000       86.02000000000000
C            9.09700000000000       10.25800000000000       83.57400000000000
H            8.53200000000000       11.08300000000000       84.03300000000000
C           10.35700000000000       10.62900000000000       82.74399999999999
H           10.95900000000000        9.84400000000000       82.26300000000001
H           10.66000000000000       11.68000000000000       82.62900000000000
C            4.79300000000000        7.78200000000000       81.46800000000000
H            5.69400000000000        7.88000000000000       80.82599999999999
H            4.84800000000000        8.53400000000000       82.28400000000001
H            3.88800000000000        7.96000000000000       80.84800000000000
C            3.31200000000000        4.78800000000000       82.00500000000000
H            2.89700000000000        4.06000000000000       82.67899999999999
C            2.93600000000000        5.12100000000000       80.55600000000000
H            3.47400000000000        5.90700000000000       80.00600000000000
H            2.12400000000000        4.57700000000000       80.05100000000000
C            4.79900000000000        0.37100000000000       84.40599999999999
H            5.40900000000000       -0.38100000000000       83.86199999999999
H            3.80800000000000        0.45800000000000       83.91100000000000
H            4.67000000000000        0.03800000000000       85.45800000000000
C            7.41200000000000       -0.67000000000000       86.10700000000000
H            7.31400000000000       -1.13700000000000       85.10400000000000
H            6.42800000000000       -0.71200000000000       86.62200000000000
H            8.17100000000000       -1.23100000000000       86.69299999999998
O            9.31700000000000        4.17800000000000       83.19600000000000
H            8.71400000000000        4.19500000000000       82.45300000000000
H           10.17400000000000        3.94300000000000       83.17200000000000
C            5.55300000000000        7.80200000000000       88.78500000000000
H            6.23400000000000        8.08200000000000       89.61700000000000
H            4.57500000000000        7.48900000000000       89.20900000000000
H            5.41500000000000        8.68200000000000       88.12100000000000
N            6.44100000000000        5.45900000000000       88.58300000000000
H            6.24700000000000        5.21600000000000       89.53300000000000
C            6.14800000000000        6.67900000000000       88.01300000000001
C            7.01000000000000        4.68000000000000       87.68200000000000
H            7.32800000000000        3.65400000000000       87.86199999999999
N            7.11500000000000        5.36100000000000       86.56000000000000
C            6.59200000000000        6.62200000000000       86.73999999999999
H            6.58800000000000        7.35500000000000       85.94300000000000
78
 energy: -115.889115952890 gnorm: 0.221587311221 xtb: 6.7.1 (edcfbbe)
Fe           8.20473339866691        4.80465152148063       84.86435212292540
N            9.73694991192648        4.26180671515556       86.05737848822277
N            7.47141738466213        2.96395053165384       85.02678111650317
N            6.69015419444525        5.35113864917997       83.65571303104885
N            8.93582320040497        6.65771397793383       84.72086146424688
C           10.71985238455964        5.09633625088993       86.55427714273540
C           11.63341055875900        4.34318002632273       87.38054631070595
C           11.20666716168858        3.07311131007813       87.38983808487828
C           10.01095905240805        3.01814206464269       86.56388295546500
C            8.03138233011295        1.90047842628237       85.67559441924003
C            7.14491959744972        0.75966257521994       85.55401400187269
C            6.06712834470349        1.17370318160235       84.84185244931633
C            6.25806074390668        2.55474091621802       84.52190905371342
C            5.56931552391131        4.59798006035463       83.35569484616501
C            4.66921482127557        5.34500740844839       82.49209085283192
C            5.25764043061689        6.55141273429594       82.27183063135952
C            6.51471649139803        6.54838148720355       83.01341068434498
C            8.45844830419645        7.68506299922791       83.95843790118526
C            9.26593384675940        8.86964440754685       84.21001579966951
C           10.19617668170064        8.51907641194160       85.13792957561351
C           10.00151376062349        7.14533569656649       85.44492583732971
C           10.81455327816450        6.45507273386457       86.31840931337810
H           11.58171181127030        7.01566667412254       86.84910458395748
C            9.24999206759986        1.88336496664641       86.33795608890043
H            9.62854529810203        0.93121861145919       86.70226620123681
C            5.35601569604789        3.31182058552874       83.80785185315032
H            4.39541471373663        2.85766261478306       83.57912216809838
C            7.38436025464224        7.63999493730257       83.07354130345489
H            7.21406092782132        8.48691743550792       82.41416197468517
C           12.84547553845692        4.96435197480657       88.06418788028049
H           12.35109426443927        5.74718087555196       88.65126173720707
H           13.34892035641474        5.40408550603603       87.19515550494805
H           13.60219729466526        4.47796961719706       88.70686817116632
C           11.75674064650136        1.86451179130791       88.12008980720597
H           11.87961381967976        1.18442864712480       87.26977569103114
H           10.88270866169015        1.57342067621775       88.71498979544708
H           12.65929831820437        1.79606984043542       88.75330767048361
C           11.28643590868307        9.41219442675870       85.76049904210156
H           11.79980302271937        9.64149010903426       84.81987490367520
H           12.05520750898837        9.33744566191302       86.55664822582176
H           10.58716581672377       10.21185595873155       86.02572943626635
C            9.19553759157283       10.25494596168314       83.57176321420492
H            8.55895494322333       11.04790370296727       84.00697219893149
C           10.31153956121347       10.61985181423331       82.77884385356329
H           10.93049088287976        9.85848634932846       82.29323967704283
H           10.62316236314013       11.65685753613594       82.62453440033215
C            4.82544517872143        7.78364238009243       81.48357546812412
H            5.68765750788666        7.90855216062221       80.81621688766843
H            4.84657292772959        8.55497338614605       82.26432817786663
H            3.90755700972460        7.91766525361417       80.88369050592772
C            3.35486535250725        4.80435669284718       81.93954761281327
H            2.89731348955742        4.08839187651749       82.62791258046211
C            2.95258610877943        5.10281513596087       80.61936315053151
H            3.46977228737461        5.87361329017864       80.04037947875260
H            2.13835485913798        4.59034169750614       80.09374465355320
C            4.83703958348998        0.33827519203160       84.43555440137698
H            5.38164194690368       -0.42192112870169       83.86295888989241
H            3.86571766778668        0.50831248025187       83.92668478422371
H            4.63625225262170       -0.01216274230243       85.45421561126550
C            7.37048924092103       -0.66448008033589       86.08123797778278
H            7.30338308170446       -1.18011314693380       85.11517130202148
H            6.42326529327311       -0.75933367774089       86.62750618884650
H            8.16471710298193       -1.16167119401904       86.67214873828166
O            9.29803341862992        4.18638896748648       83.19689147078334
H            8.71964786413676        4.19035777481927       82.43713733349901
H           10.19885612355394        3.93403439791551       83.16023810933058
C            5.55155709645515        7.80330496517983       88.78971549868382
H            6.22343033056689        8.08413529920671       89.61273464621982
H            4.58233927744417        7.49872475082927       89.20787186058510
H            5.41447925275243        8.67021953882389       88.13157603143394
N            6.43298888219675        5.46638321410089       88.59143140357328
H            6.24076593510947        5.21791711674039       89.54383270554543
C            6.15051665774808        6.68402908246046       88.02174237029375
C            7.01143462588866        4.68772670633181       87.67105634390265
H            7.32666223358112        3.66926002752487       87.85101151869374
N            7.12149749815454        5.35754467659992       86.54649531987408
C            6.59563947218010        6.60862588906974       86.74040105770126
H            6.58810176974411        7.34080365625255       85.95013645454493
78
 energy: -115.972337328122 gnorm: 0.131165181321 xtb: 6.7.1 (edcfbbe)
Fe           8.18908918669823        4.81360337815748       84.89128851485043
N            9.74715691832528        4.26383478711293       86.06967502172557
N            7.47072816249690        2.97656946669287       85.02801944102607
N            6.66776406452028        5.35474036213654       83.64814968749320
N            8.93158865524972        6.65746808006436       84.72437045019669
C           10.71852960148977        5.08647391538931       86.56180050898037
C           11.64753337309176        4.33905998237982       87.39400118922514
C           11.21599478682918        3.06373030025580       87.39776094136438
C           10.01848790611163        3.02314714215120       86.56416971013135
C            8.02695061363201        1.90498576510062       85.66133680099024
C            7.15823643755075        0.76390333800885       85.55221981327128
C            6.05616853471455        1.18818463246120       84.83994562975553
C            6.27062741980197        2.56548507984690       84.52959208084410
C            5.55850542409675        4.61173070778834       83.35508587490608
C            4.64296269954497        5.34349133236844       82.47452694472545
C            5.25057384692753        6.55112283231481       82.25833479243487
C            6.50518600688813        6.54740119462721       83.00672712531654
C            8.47398054389681        7.69124977484522       83.95723680109947
C            9.27973652679174        8.88564783551968       84.19186268143471
C           10.20395732226948        8.51236766202147       85.14763327831487
C            9.98289720781328        7.13723020706096       85.44454810071861
C           10.80500472171628        6.44254547590642       86.31805793888159
H           11.57429634234125        7.00760702906427       86.83387533953682
C            9.24589869478840        1.89278984202442       86.33309034447015
H            9.61329887394086        0.94300570187167       86.70601415978950
C            5.35747290041174        3.31966370237436       83.80597365146416
H            4.40824361084442        2.85366637808136       83.57242250930231
C            7.38850172964283        7.62758261439999       83.08390392858672
H            7.21286908503398        8.48177782707686       82.43752892669585
C           12.82569649533461        4.99385390747842       88.04629137300856
H           12.38048002883395        5.77385139812505       88.65992912805743
H           13.37245079610618        5.43030508671471       87.21253420199635
H           13.54664230738263        4.44550849909468       88.67469935537369
C           11.72722201597532        1.84748413936960       88.09851757422349
H           11.88324659305435        1.14158398984393       87.28717075014806
H           10.89196871792502        1.53565974995665       88.72345124796981
H           12.63559295354990        1.85320123626026       88.72212461628136
C           11.25208016052332        9.44080974159549       85.71663825874856
H           11.82198165884885        9.69147800459699       84.82533475535104
H           11.99061943650270        9.26634399272148       86.52962326203657
H           10.61998034656851       10.26831529370969       86.02734181493688
C            9.28648211870035       10.25021144502532       83.57554315324933
H            8.58702023480141       11.00748611712706       83.99133879475465
C           10.26932528783193       10.60279042658174       82.81869791680950
H           10.91702865447833        9.86876886465594       82.33327707330332
H           10.57111306898744       11.63245291851234       82.60748909900421
C            4.85631078014762        7.78545517032766       81.49783296692917
H            5.68322922521974        7.94017458666830       80.80548600419186
H            4.84735877964519        8.57785054901233       82.24615029336725
H            3.92266462347574        7.86421562943930       80.92129432888490
C            3.38964699360942        4.82195408705203       81.89618665354278
H            2.89810750250168        4.10448356893365       82.57514442754865
C            2.98235678689575        5.08696905545702       80.68471564484769
H            3.47562720863575        5.83986829860526       80.06600549426940
H            2.15409297541457        4.60790205220116       80.15053878508888
C            4.88110290001341        0.30886550655760       84.46843479006984
H            5.35715530173571       -0.46495376014438       83.86824185178543
H            3.93674427901551        0.57630908603289       83.94563995655155
H            4.60593994290363       -0.06780376888345       85.45139252552610
C            7.32812265046050       -0.65340839365647       86.05197911063419
H            7.28834047099040       -1.22408658190258       85.12443891991776
H            6.41605374171099       -0.80494539813599       86.62935495322064
H            8.16309856206666       -1.07228324649609       86.64812513324723
O            9.28808692434776        4.19620984617000       83.20025015481332
H            8.74035638753180        4.18026529543952       82.41614876696460
H           10.20243380445536        3.92831371376103       83.14202661127243
C            5.55080916255452        7.80444687442414       88.79234363684508
H            6.21422969111236        8.08704205450684       89.61094187551723
H            4.58752288483802        7.50628064475844       89.20713498347688
H            5.41326161370833        8.66234674586201       88.13913266731265
N            6.42730811610830        5.47133024272646       88.59635803708463
H            6.23676288100995        5.21707065491029       89.55013988210949
C            6.15465834505849        6.68730310313177       88.02658868240131
C            7.01360474074120        4.69456024020250       87.66022375539146
H            7.32596817500653        3.68261135676837       87.84089763038911
N            7.13245929390137        5.35566205529028       86.53414709360922
C            6.60037329977736        6.59588618073404       86.74018948372887
H            6.58703988254107        7.32993339177337       85.95736033667517
78
 energy: -116.012836524142 gnorm: 0.062479160431 xtb: 6.7.1 (edcfbbe)
Fe           8.18044142717490        4.81824341293841       84.90684013381660
N            9.74659579373055        4.26458730911339       86.07773737237490
N            7.46778146977934        2.98599924227359       85.03060821577516
N            6.65821646281406        5.35879108804076       83.65263387706787
N            8.92848455812570        6.65463992334558       84.73170367901554
C           10.71309122154813        5.08123063855757       86.56853033154901
C           11.64727076223248        4.33700217101504       87.39871572216161
C           11.21432239449345        3.05712295734876       87.39670994023381
C           10.01792150863338        3.02496318667881       86.56265202185168
C            8.02568995196719        1.90897850622713       85.65236614873037
C            7.15961843772851        0.76833208170705       85.54511998010786
C            6.05369253546128        1.19348092119610       84.84224453146932
C            6.27153060196282        2.57342758498882       84.53429738606812
C            5.55579365793886        4.62098043261393       83.36227802081504
C            4.65031615395113        5.35399902241911       82.47750181753159
C            5.26174787967275        6.55817916744997       82.25690964963901
C            6.50713966898773        6.54783526768496       83.00906803301362
C            8.48229921113309        7.68547826639941       83.95741842751097
C            9.28491642365180        8.87255288749881       84.19366602790437
C           10.20636914938942        8.50822691464416       85.14924545499933
C            9.97416278074728        7.13310939378423       85.45130002098433
C           10.79698609978149        6.43444038308669       86.32109068143961
H           11.57243058144354        6.99896424942027       86.81985810610027
C            9.24147398371491        1.90088616384456       86.32835848363482
H            9.59404643594169        0.95343520863675       86.71438523463870
C            5.35856731367125        3.32682486380798       83.80667471119575
H            4.42137223366141        2.84863670533367       83.55873492217211
C            7.39389500385267        7.61927177556269       83.09375014704871
H            7.20994935712291        8.48268618230521       82.46554918912683
C           12.81080999850156        5.01518643976367       88.03477582392918
H           12.41423206984099        5.80830872918168       88.67143829440636
H           13.39939880722440        5.46410212790633       87.23207130388334
H           13.48994294242074        4.40027694251678       88.64652789675698
C           11.70525222601882        1.83171406058221       88.08223441646805
H           11.88595647279605        1.08619915667424       87.30651653841481
H           10.89973512121949        1.48658039872574       88.73333245332952
H           12.61861110352632        1.91868206402343       88.69239130552012
C           11.22773274045599        9.46316603057386       85.68489758750589
H           11.84566482049006        9.75509869543236       84.83098738962362
H           11.92691417878520        9.18522766002358       86.50865329126245
H           10.65817922763059       10.33521524857568       86.02362581665814
C            9.29787778289760       10.22843359525873       83.62474122406761
H            8.59438609464304       10.97376382357839       84.01775801706211
C           10.26891116507060       10.61056464979557       82.77973689690741
H           10.94944730556027        9.87458135327451       82.35913666300512
H           10.52403745465833       11.64028098522639       82.55163092529811
C            4.88103759260761        7.78983573743220       81.50642520909298
H            5.68162291981499        7.98203924509385       80.78836322002493
H            4.85184007676521        8.61030530556006       82.22612008075811
H            3.92848363125142        7.79893909785697       80.95907242559235
C            3.43148887551817        4.81068813327454       81.90246729953503
H            2.90874889506018        4.09782666349112       82.55069760570356
C            2.97797630226556        5.09762272988979       80.68548886524134
H            3.49170778461956        5.81486294521535       80.05541448083581
H            2.13597294396949        4.62244988046729       80.19341847927245
C            4.91360325797939        0.28750796719130       84.49406826578877
H            5.33037891570304       -0.51725977174473       83.87928680519424
H            4.00664004193211        0.65634708421797       83.96138365200827
H            4.57563084579006       -0.13660448972861       85.44762286428397
C            7.29757989612052       -0.64331041298515       86.02875050396860
H            7.26674346877392       -1.27579237863332       85.13429609941109
H            6.40515334149359       -0.85657765719366       86.62817927284090
H            8.17350216490056       -0.97085573923339       86.62609192975445
O            9.28829614008539        4.20650332020906       83.19317841369448
H            8.76169141479829        4.16833435511186       82.39221227718900
H           10.20080422281833        3.92314248371193       83.12465959167974
C            5.55007920692158        7.80495694974311       88.79420981826824
H            6.20642264352285        8.09315238690313       89.61420087953569
H            4.58695723578048        7.51232625504580       89.20820301450038
H            5.41059975378039        8.65998815455630       88.14238195646666
N            6.42494809991215        5.47253267607921       88.59800759621933
H            6.23246590054078        5.21526264082261       89.55206208370478
C            6.15809484991732        6.68899798707737       88.02905740230827
C            7.01532916939539        4.69917271495123       87.65634584994449
H            7.32761788823609        3.69018705115157       87.83248198542762
N            7.13907438906885        5.35716464799478       86.53028562135833
C            6.60362181349134        6.59218938434432       86.74196556944337
H            6.58467374511141        7.32437678308962       85.96119676887669
78
 energy: -116.028549805809 gnorm: 0.057165417492 xtb: 6.7.1 (edcfbbe)
Fe           8.17415975182101        4.82185913675927       84.91715514578821
N            9.73669660833060        4.26791177723538       86.08495346385047
N            7.45703357897584        2.99057974002866       85.03546704723547
N            6.65060501210629        5.36421296996653       83.66896020723323
N            8.92537517743725        6.65953767315504       84.74682415824286
C           10.70192313142777        5.08060459579218       86.57489362621783
C           11.63996676257645        4.33688969890135       87.39941989584348
C           11.20633747394697        3.05166190145356       87.39118082462780
C           10.00899787972913        3.02833241683404       86.56182229441978
C            8.01921431830463        1.90988163435258       85.64931958838964
C            7.15488044884603        0.76722331664639       85.53615652682265
C            6.04785066140143        1.19037765584527       84.84310091020694
C            6.26152069117914        2.57656896545745       84.53807536460786
C            5.55409282321012        4.62951540565172       83.37166439665916
C            4.66603994262750        5.36554446505969       82.47618338417206
C            5.28321768495201        6.56814987401324       82.25581513947236
C            6.51196746468676        6.55044279481740       83.02144693833075
C            8.48699458631484        7.68473563319042       83.96214659791595
C            9.29412759343683        8.86410962571437       84.18224277288408
C           10.20976080455836        8.51721072319860       85.14477985530526
C            9.97161051538596        7.14016552322859       85.46099411799277
C           10.79081464642418        6.43291134265791       86.32548799771048
H           11.57757351340281        6.99130525505788       86.80739258042816
C            9.23098668693668        1.90856068551046       86.32782855755043
H            9.57138636683492        0.96386985917761       86.72682264011638
C            5.35549661810702        3.33224371990292       83.80576666216913
H            4.43102426989664        2.84369782498451       83.53553467897387
C            7.39714766129853        7.61673288270737       83.10926770232976
H            7.20411427712276        8.48809473830451       82.49781098018897
C           12.80011440501823        5.01980157363644       88.02979306843093
H           12.44389613095074        5.82167713242703       88.68370278992244
H           13.41965171084299        5.47858753000565       87.25335845687147
H           13.43981341789623        4.35640289580548       88.62365633577483
C           11.69452893562463        1.82343145502925       88.07008583051818
H           11.89567736722984        1.04726072704685       87.32601258804932
H           10.91611577252026        1.44807000632624       88.74170744500425
H           12.60633758358901        1.97600028111322       88.66123350412961
C           11.21480339955095        9.47977922400693       85.66587631205536
H           11.86625681559697        9.79582958764517       84.84427344463634
H           11.86743094071498        9.13117486579599       86.48496544154928
H           10.69048376759370       10.37378042747787       86.02268478369855
C            9.30088587712343       10.20354605174353       83.60189231142550
H            8.61094557702993       10.93615721712090       84.00049021399782
C           10.30255649365065       10.58990493450011       82.84183336577280
H           10.95615612287126        9.87479448395800       82.37734282276092
H           10.43039578859855       11.63232862070916       82.50518276269892
C            4.89592458018129        7.79362844269676       81.50980494744704
H            5.66923588893791        8.01800648829502       80.76743213822810
H            4.85093305499514        8.63632581671708       82.20519248585178
H            3.92947728976665        7.73446448448659       80.99445890268302
C            3.45342562537200        4.82040922644802       81.91023595664973
H            2.92493482228962        4.09286720155104       82.52062607329550
C            3.00422136639606        5.09144335410375       80.68075503237134
H            3.50786664874807        5.79980364904588       80.04546852616917
H            2.11882138825368        4.63710139381682       80.25627302026899
C            4.93033002618016        0.27396892323125       84.51014122873094
H            5.30672977210626       -0.54542197510573       83.88729397282687
H            4.06713731805209        0.71162062473856       83.98279364313441
H            4.55222172460330       -0.17552781743731       85.43735659916162
C            7.28393574752060       -0.63439265719650       86.01256805090891
H            7.26173358848256       -1.30821340111242       85.14648388633340
H            6.41154633083032       -0.88680971942951       86.62844221164305
H            8.18317820637165       -0.88034194898512       86.60152096430858
O            9.29434723030219        4.22728713150686       83.17450683931104
H            8.78954902936587        4.14829013841188       82.35912181484993
H           10.19781335182421        3.91126889871068       83.09966317020650
C            5.54880917984055        7.80518323109117       88.79545038507999