78
 energy: -115.975059537437 gnorm: 0.246446043664 xtb: 6.7.1 (edcfbbe)
Fe          28.20499999999999       91.04899999999999       52.23800000000000
N           29.22700000000000       92.65300000000001       51.60600000000000
N           29.40900000000000       90.91699999999999       53.85200000000000
N           27.23400000000000       89.41199999999999       52.82200000000000
N           27.11400000000000       91.10699999999999       50.58000000000000
C           28.97500000000000       93.39499999999998       50.46400000000000
C           29.79700000000000       94.55699999999999       50.49300000000000
C           30.59000000000000       94.54500000000000       51.61400000000000
C           30.21600000000000       93.32899999999999       52.29800000000000
C           30.40600000000000       91.80600000000000       54.24500000000000
C           31.00900000000000       91.36199999999998       55.45399999999999
C           30.43200000000000       90.20099999999998       55.80700000000000
C           29.39100000000000       89.92700000000001       54.81000000000000
C           27.43400000000000       88.67200000000000       53.98199999999999
C           26.40100000000000       87.68000000000001       54.15699999999999
C           25.56200000000000       87.78999999999999       53.08500000000000
C           26.08400000000000       88.83799999999999       52.24800000000000
C           26.08100000000000       90.24299999999999       50.21800000000000
C           25.63300000000000       90.53000000000000       48.86900000000000
C           26.36499999999999       91.58499999999999       48.43200000000000
C           27.23700000000000       91.97100000000000       49.51799999999999
C           28.10300000000000       93.07599999999999       49.44900000000000
H           28.08300000000000       93.70300000000000       48.55800000000000
C           30.72500000000000       92.95399999999998       53.54499999999999
H           31.44200000000000       93.63200000000001       54.00900000000000
C           28.47200000000000       88.90300000000001       54.89099999999999
H           28.56100000000000       88.21599999999999       55.73300000000000
C           25.58299999999999       89.19899999999998       51.01600000000000
H           24.73600000000000       88.63099999999999       50.63099999999999
C           31.61900000000000       95.57299999999999       52.05000000000000
H           31.66000000000000       96.39600000000000       51.30499999999999
H           32.62000000000000       95.09699999999999       52.11699999999999
H           31.33299999999999       95.99499999999999       53.03700000000000
C           29.84000000000000       95.54200000000000       49.35800000000000
H           28.81500000000000       95.69100000000000       48.95700000000000
H           30.49100000000000       95.15199999999999       48.54699999999999
H           30.23000000000000       96.51700000000000       49.72099999999999
C           32.08800000000000       92.17799999999998       56.14299999999999
H           31.82800000000000       93.25700000000001       56.08900000000000
H           33.06300000000000       92.01599999999999       55.63500000000000
H           32.16100000000000       91.87800000000000       57.20999999999999
C           30.68000000000000       89.37500000000000       56.95000000000000
H           29.83400000000000       88.81399999999999       57.37200000000000
C           31.92800000000000       89.20099999999998       57.60800000000000
H           32.82600000000000       89.72599999999998       57.25000000000000
H           32.01000000000000       88.53899999999999       58.48299999999999
C           26.31100000000000       86.84699999999998       55.41800000000000
H           26.35400000000000       87.51300000000001       56.30600000000000
H           27.16300000000000       86.13600000000000       55.46000000000000
H           25.35000000000000       86.28900000000000       55.43200000000000
C           24.30200000000000       87.14400000000001       52.82399999999999
H           23.46100000000000       87.72499999999998       52.41599999999999
C           24.09900000000000       85.78399999999999       53.07200000000000
H           24.91100000000000       85.16400000000000       53.47999999999999
H           23.12500000000000       85.31800000000000       52.86300000000000
C           24.60500000000000       89.69100000000000       48.14800000000000
H           23.65300000000000       89.69799999999998       48.72099999999999
H           24.96700000000000       88.64400000000001       48.06400000000000
H           24.42000000000000       90.11100000000000       47.13600000000000
C           26.33500000000000       92.29400000000000       47.10000000000000
H           25.90000000000000       93.30800000000001       47.22899999999999
H           25.70700000000000       91.72199999999999       46.38399999999999
H           27.36799999999999       92.39299999999999       46.70400000000000
O           27.10500000000000       92.12600000000000       53.10599999999999
H           27.41900000000000       93.01500000000000       52.93800000000000
H           26.40100000000000       91.90100000000000       53.60000000000000
C           30.64900000000000       87.25599999999999       48.79499999999999
H           30.94000000000000       86.28499999999998       49.24900000000000
H           31.48500000000000       87.62300000000000       48.16200000000000
H           29.74000000000000       87.10599999999999       48.17400000000000
N           31.33700000000000       88.61100000000000       50.81100000000000
H           32.26300000000000       88.23800000000000       50.86300000000000
C           30.36100000000000       88.25200000000000       49.88400000000000
C           30.78400000000000       89.54600000000001       51.60700000000000
H           31.31300000000000       90.01700000000000       52.43500000000000
N           29.53000000000000       89.79900000000001       51.23800000000000
C           29.26300000000000       89.01400000000000       50.14200000000000
H           28.30500000000000       89.06899999999999       49.63900000000000
78
 energy: -116.024710908682 gnorm: 0.097534371049 xtb: 6.7.1 (edcfbbe)
Fe          28.24868236288447       91.00128050072188       52.20547640504628
N           29.22020297914139       92.66181065346694       51.62102723851223
N           29.40237692979644       90.91943315974595       53.86213985145370
N           27.21757671817454       89.40956171799724       52.83583520934113
N           27.09534428517064       91.11399810972476       50.58262043546427
C           28.98300712646085       93.39114794844451       50.48030453033478
C           29.81249345479668       94.55934689044008       50.47861988434305
C           30.58311439635778       94.54134829926230       51.60749513337070
C           30.19432037770918       93.33914579842947       52.30872015729031
C           30.38860149056371       91.80662130645111       54.23838246505640
C           31.01734071450216       91.37214282590021       55.45051785338686
C           30.43555478269044       90.19472779771695       55.81549678515783
C           29.38879711282718       89.94025876011129       54.81676262346200
C           27.43154962740246       88.68673244553058       53.98301170225684
C           26.40710105562427       87.69011875040734       54.16460840555562
C           25.55900703239677       87.79672805010173       53.09173679449840
C           26.08942885350581       88.85444042194943       52.25873348153473
C           26.09288428430977       90.24044660678734       50.22021337953413
C           25.63821829233521       90.52317399818308       48.87428596295629
C           26.36460592784373       91.58641855218497       48.43559045741962
C           27.24404035553491       91.96118544211706       49.52049328328255
C           28.10343012188561       93.05546241477688       49.46680259246220
H           28.07783703801399       93.68192216291723       48.58169847390938
C           30.71362798905934       92.95486726316425       53.53909450968022
H           31.44365101598689       93.61945646101842       53.98981345416263
C           28.47458950379224       88.90888998511394       54.88251169599627
H           28.55937306622799       88.22360465661852       55.71888594442256
C           25.59433504000896       89.21380848865591       51.01851143353404
H           24.75341863418258       88.64451033469408       50.63351491661739
C           31.60421955253374       95.55601266917881       52.04553020915012
H           31.66027945920033       96.37547166736768       51.32077531616766
H           32.59903481778636       95.10191553630862       52.12127675382978
H           31.33962274044959       95.98242964143442       53.02103773103283
C           29.83971416520176       95.54823193375022       49.35825834034524
H           28.83239498638847       95.70062062031076       48.95755608885215
H           30.48135158553325       95.17074704873772       48.55318681304056
H           30.22717094600981       96.51076025099428       49.70380406694777
C           32.08298846195667       92.17294222265640       56.14170931703298
H           31.83684767270070       93.23939889546160       56.09382162495980
H           33.05127411124802       92.02046271445523       55.64994586092840
H           32.16305379168600       91.88102116243766       57.19324679151617
C           30.70311934794825       89.36750740255101       56.96355472567811
H           29.85913418438218       88.80994067208286       57.36788896682884
C           31.89500630982355       89.21194417226870       57.59077252843313
H           32.79362013060029       89.70915102585458       57.24404049598937
H           31.99185991331464       88.56109129927050       58.45357799262388
C           26.30923306971442       86.85173764633298       55.40602762410900
H           26.35322702075340       87.49769900696127       56.29144064393522
H           27.14421301261951       86.14300423114746       55.45934864980800
H           25.36602575387522       86.29695958740589       55.42984085564577
C           24.30864150915235       87.11554810177311       52.82962228364514
H           23.48622308029729       87.70147924780271       52.41687271332938
C           24.10185963954149       85.80742826818363       53.07333551377133
H           24.89556750720391       85.18076997315622       53.46240604493354
H           23.14577909999495       85.33733319297374       52.86939914852455
C           24.61100095460511       89.70004041730743       48.15507731805282
H           23.66539921319884       89.69644505375011       48.70982955038965
H           24.95652362156902       88.66331650110763       48.06184113255367
H           24.42180210375308       90.10071450588003       47.15391914807147
C           26.33120588592349       92.28891687639475       47.11090814769730
H           25.90596134509733       93.29400402168893       47.22295852005591
H           25.71906892832475       91.73384292403648       46.39323555984581
H           27.34517997710050       92.38918778994110       46.70691713438085
O           27.10743240480636       92.13808509870911       53.10078969050377
H           27.40315868774459       93.04098940228253       52.95291631012678
H           26.35883222425241       91.91317503972256       53.62975833406306
C           30.65270280691292       87.25397569619687       48.79689001179371
H           30.93919087190706       86.29189327764405       49.23601039605515
H           31.47237176630385       87.60903247752597       48.16250860654882
H           29.75922373889839       87.10959114448677       48.18419037351914
N           31.33118506549129       88.60481883932709       50.80038144521066
H           32.26119395806071       88.22998182048148       50.85810634769766
C           30.37439342879988       88.24966565201183       49.87001931787440
C           30.78271233841052       89.54167447439929       51.59813238199483
H           31.30005082482429       90.00884211908490       52.41950381379980
N           29.54991588049984       89.79853934391852       51.22870495811066
C           29.27951471522782       89.00847483524088       50.14742172286783
H           28.32500681918576       89.05959469536967       49.65479761768496
78
 energy: -116.038726846492 gnorm: 0.043770156195 xtb: 6.7.1 (edcfbbe)
Fe          28.27354829641168       90.97900102474649       52.19035158959397
N           29.22728501121626       92.66159236814792       51.62190876165771
N           29.40839267490895       90.91370961064396       53.86132832112431
N           27.21786851713842       89.40342918864168       52.83823987122519
N           27.10328591241986       91.09755581789494       50.57177662357041
C           28.99598135047082       93.38099018906212       50.48827302402115
C           29.82571734925091       94.55903034452000       50.46339667602158
C           30.57426399913124       94.53919865072790       51.60228310547445
C           30.18164739838878       93.34341381509182       52.31383553880151
C           30.37511735646213       91.80364983845297       54.22880243337408
C           31.01982077136820       91.38085771745374       55.44557969803478
C           30.43096131064294       90.19775380168556       55.81645138688805
C           29.39234804412233       89.94913496608547       54.81650578713348
C           27.43418801370282       88.70268241420125       53.98207969865223
C           26.41316532314140       87.70389321801828       54.17146995169066
C           25.56232981061893       87.81085054595790       53.09981349199054
C           26.10329666649182       88.87069807326631       52.26845835224469
C           26.11062767406579       90.23385304383588       50.22052492992759
C           25.64501707267062       90.51504635695395       48.87795601240452
C           26.36551525177740       91.58350945629775       48.43822265771765
C           27.25549752676642       91.94540330117492       49.52102033145002
C           28.10694427301985       93.03357010036436       49.48302748818045
H           28.07528620238482       93.66088945631017       48.60435799905602
C           30.70840697234737       92.95345245064431       53.53208072571467
H           31.45335315196762       93.60335153694477       53.97011649580391
C           28.47883459848860       88.91506870294336       54.87437484695180
H           28.55831544878534       88.23024844216859       55.70599339779896
C           25.60648920190976       89.22700329681808       51.02460452201190
H           24.77019009980851       88.65666500428586       50.64259211694556
C           31.59061995070248       95.53924821802998       52.04557172268353
H           31.65441233760850       96.35541423790991       51.33034845771172
H           32.57893994058728       95.08892137578152       52.12612892768578
H           31.33401789173838       95.96111108513630       53.01683315802359
C           29.84177681593809       95.55352575651125       49.35428124142686
H           28.84220098392218       95.70893653254971       48.95909401867032
H           30.47638014896827       95.19116963008760       48.54606313978542
H           30.22875510003171       96.50865827579285       49.69352078633101
C           32.07784225596311       92.16750124416487       56.13992325483456
H           31.84364850113590       93.22888400908224       56.09775806874921
H           33.04618709549473       92.01905841593906       55.66248648420677
H           32.15674439945803       91.87468681897418       57.18209372224736
C           30.70935447089206       89.36557175273138       56.96704337414866
H           29.86226476715359       88.80879934438670       57.35206564914986
C           31.87310787163758       89.21558887392146       57.56932941489507
H           32.77349249581659       89.69862702458860       57.23392026080951
H           31.97993737399856       88.58177563346061       58.43385442847387
C           26.30676920059910       86.85683968511577       55.39487714791024
H           26.35338860133674       87.48689328148866       56.28294350837932
H           27.12954234706185       86.14471928200952       55.44905522818783
H           25.37087840005450       86.30799584664665       55.41446853151756
C           24.32210357245227       87.10137260404800       52.83394838055757
H           23.51880856476216       87.69649954153626       52.41136590331065
C           24.11180835090579       85.81925724517902       53.06991372143997
H           24.88778508787999       85.18223653680791       53.45482753904805
H           23.16243968940523       85.34974141126257       52.87685216508986
C           24.61511405613076       89.70738516977036       48.16172245825665
H           23.67446701571642       89.70218001576653       48.70929526274342
H           24.94978934850295       88.67512171857305       48.06218195730759
H           24.42794611995098       90.10315276870843       47.16801907521278
C           26.32559715256336       92.28316746880219       47.12074264542170
H           25.90693698137948       93.28374303777125       47.22691535571661
H           25.71969780340773       91.73558708892004       46.40537535287626
H           27.32994485932407       92.38202295867637       46.71257807267378
O           27.07680847107817       92.16530449066757       53.11474062985770
H           27.34390964528831       93.08420555575380       53.00131926796417
H           26.31584647703439       91.94956710383151       53.66199629389644
C           30.65647921176371       87.25231486578539       48.79716083005658
H           30.94010475408863       86.29456223105841       49.22792988754827
H           31.46718278765880       87.59461572160974       48.15702268548739
H           29.76922218916787       87.11298983428092       48.19146496586947
N           31.32926745527999       88.60231116670346       50.79002608422014
H           32.26141117154992       88.22579785834859       50.85154398935533
C           30.38550871084082       88.25033473943151       49.86046074537191
C           30.78189450160302       89.54058969403627       51.59303648257085
H           31.29398924684013       90.00350124017146       52.40911068300327
N           29.55271237640578       89.79643425233067       51.23524288079169
C           29.29001214580603       89.00750114005081       50.15507932319567
H           28.33825602323456       89.04807348246827       49.66904099986604
78
 energy: -116.043925622318 gnorm: 0.034651155129 xtb: 6.7.1 (edcfbbe)
Fe          28.27986590682192       90.97803420786458       52.18835136954649
N           29.23114212168517       92.66020881344639       51.61784672175492
N           29.40782447604791       90.91701932834042       53.85959063523293
N           27.22298105624802       89.40644583271266       52.83997795286660
N           27.11436718239326       91.08510677510810       50.56587868611825
C           29.00738210686524       93.37049156223223       50.48419923766273
C           29.83342881316894       94.55567362205846       50.45116152724836
C           30.56904737975212       94.53699596461072       51.59673709650794
C           30.17812572492020       93.34337649801336       52.31207764989627
C           30.37134732577629       91.80349169831634       54.21998476849140
C           31.01948855160597       91.38646598196902       55.43977444491725
C           30.42447732808333       90.20452888345957       55.81026307338593
C           29.39360280691128       89.95599127396908       54.81349719463460
C           27.43919410515119       88.71332500285452       53.98371147380151
C           26.41816657431008       87.71428120065463       54.17553775406450
C           25.57038882325292       87.82116141930304       53.10372904164964
C           26.11575548169630       88.87908218995135       52.27235549783667
C           26.12608950287953       90.22448262136551       50.21909863216734
C           25.65102197462783       90.50811497126293       48.87998885978081
C           26.36844788405658       91.57688100986718       48.43962100953969
C           27.26786861470900       91.93123033790030       49.51815284687974
C           28.11717714952449       93.01628902176773       49.48374908833267
H           28.07913491464581       93.64608316790783       48.60942100336994
C           30.71284339395096       92.95161705033235       53.52351532845278
H           31.47174566452918       93.58938417574345       53.95175371390211
C           28.48289833240755       88.91967274607124       54.87184371143078
H           28.56075708782274       88.23384045921357       55.70068873646628
C           25.61659111946981       89.22818728599995       51.02735325259289
H           24.77856922993645       88.66068486211327       50.65133641829266
C           31.58396081584150       95.52703871210250       52.05055007896164
H           31.65540262755499       96.34571021452624       51.34091287410597
H           32.56728462811187       95.06846564250554       52.13430585856224
H           31.32495777611054       95.94018927654921       53.02359855946782
C           29.84439688523728       95.55699623548172       49.34858143722976
H           28.84372586245345       95.71798938731041       48.96017233100547
H           30.47333546914204       95.20727834985995       48.53058843075422
H           30.23437177715109       96.50998641625561       49.69021671576973
C           32.07525411160912       92.16437390570444       56.14067473708796
H           31.85049897736582       93.22753956154736       56.10325347530267
H           33.04756753635993       92.01335834636694       55.67263522902301
H           32.14566811251773       91.86450022672624       57.18079303782437
C           30.69840373621212       89.36802020430324       56.96045481888343
H           29.84764933101982       88.81216455226921       57.33591670525129
C           31.86796717123958       89.22266772558717       57.56339539023713
H           32.77086951672630       89.69190681218066       57.21808632398511
H           31.98136901598713       88.58609372036472       58.42385736847020
C           26.30450376674532       86.85891337332680       55.38822643145120
H           26.35506626026747       87.47632656646647       56.28418436082257
H           27.11916475935864       86.13789795776690       55.43535760455605
H           25.36450700743374       86.31886966149393       55.39618037217807
C           24.33700012913370       87.10276982746221       52.83333442762745
H           23.54567865569258       87.70276121174386       52.39838049318312
C           24.11930114836147       85.82082418518200       53.07580426195592
H           24.88934400123835       85.17346690524433       53.45462427350890
H           23.17209979029098       85.35331090325873       52.87357529399761
C           24.61439644917472       89.71138427659085       48.16734639511639
H           23.67556611762094       89.71146839822430       48.71608051853698
H           24.93997119912753       88.67728431199470       48.06321611617017
H           24.42955139823973       90.11125081601909       47.17605909028268
C           26.31965912915987       92.27794896432626       47.12652918215964
H           25.90404599731409       93.27848776695612       47.23550693624627
H           25.70952058451816       91.73245103055751       46.41462747157455
H           27.32085819321809       92.37503877958198       46.71234983438666
O           27.03056886883745       92.19638371505884       53.13258963057257
H           27.27488463630681       93.12739923385590       53.06025185663000
H           26.27206081748531       91.98799600500848       53.69494314369027
C           30.65884824044686       87.25091649513189       48.79514081364984
H           30.94145791660504       86.29321357131845       49.22525087030179
H           31.46676136520180       87.58410236320975       48.14688003907599
H           29.76873513350646       87.11358303379869       48.19444828863676
N           31.33660684448514       88.60472522812877       50.78250587737354
H           32.26900082735713       88.22795144111682       50.84465406604040
C           30.39442911662504       88.25182943398444       49.85653826753682
C           30.78848310850952       89.53969910801415       51.59184913776434
H           31.30091244732046       89.99985600354212       52.40706837134056
N           29.55538159727477       89.79561872881435       51.24073104919810
C           29.29569640608231       89.00314922375136       50.16196772967901
H           28.34252410317055       89.02969422501802       49.68060769600967
78
 energy: -116.048498016011 gnorm: 0.028723325377 xtb: 6.7.1 (edcfbbe)
Fe          28.28376402566430       90.97962943401529       52.18776752794209
N           29.23493437493473       92.65510621874044       51.60968669211433
N           29.40584341210068       90.92316982259624       53.85576215173074
N           27.23160574663407       89.41207293086967       52.84081554719128
N           27.13136036788703       91.06951084853651       50.55831960928857
C           29.01808645197485       93.35869894805147       50.47458514753009
C           29.84095549242843       94.54963433388697       50.43849145377300
C           30.56608377264455       94.53421544266214       51.58939129402429
C           30.17845629258198       93.34040763118182       52.30631963839738
C           30.37263278790817       91.80441456258109       54.21015316907374
C           31.02274045023434       91.39091278984026       55.43114248353297
C           30.42157026984053       90.21251486117393       55.80131890042351
C           29.39303097050636       89.96471924012766       54.81264375082081
C           27.44494657179852       88.72269331440052       53.98809094407218
C           26.42436298189823       87.72130095213382       54.17784621978558
C           25.58133665901527       87.82689299578612       53.10439131973681
C           26.12673327994311       88.88544375125103       52.27443031747359
C           26.13959285822166       90.21387747611119       50.21717478428966
C           25.65740320058135       90.49955156539711       48.88049031805725
C           26.37329832318997       91.56683587846568       48.43887551949525
C           27.28101297845766       91.91686465505924       49.51231669541688
C           28.13015881132820       93.00078242237245       49.47646799764163
H           28.09003640424931       93.63109765838158       48.60288103063164
C           30.72360677306783       92.94910990159542       53.51205874585467
H           31.49509882506546       93.57511942367614       53.93185201120096
C           28.48571981737883       88.92515489430941       54.87485121004666
H           28.56436970930270       88.23637030700124       55.70043333095968
C           25.62332703316727       89.22510873730714       51.02946952252078
H           24.78363157321246       88.65880127276050       50.65923200162359
C           31.58089014783791       95.51601018790774       52.05893015590265
H           31.66318750172220       96.34214054515188       51.35791661801216
H           32.55979929264216       95.04545511185808       52.14547203348514
H           31.31504882465213       95.91697035035753       53.03630625998263
C           29.84738499789595       95.55829209651188       49.34225649176225
H           28.84152750077454       95.72866439239684       48.96536981106390
H           30.46690013972853       95.21898288098677       48.51051463734169
H           30.24512616498548       96.50835647343844       49.69128145720939
C           32.07556585155074       92.16224936680474       56.14210441957955
H           31.85964823801761       93.22887919993344       56.10797453266019
H           33.05415713548467       92.00514146868521       55.68524518993887
H           32.13020714111155       91.85353605387273       57.18280439350303
C           30.68797315524611       89.37006778519830       56.94764387265765
H           29.83407605722033       88.82321047989235       57.32590326221014
C           31.86539775365821       89.21569857817020       57.54428283932874
H           32.76195581413118       89.69622558370934       57.19985851735988
H           31.97539658673925       88.59110640035074       58.41497062051947
C           26.30212652106120       86.85767203151536       55.38211564599978
H           26.36163556503812       87.46106927883419       56.28831641472932
H           27.10591245888592       86.12158148406228       55.41770246638168
H           25.35134980254720       86.33291391837683       55.37753499036618
C           24.35625428008790       87.10423911479042       52.82515017081164
H           23.57117378222847       87.70531615699885       52.38193381841795
C           24.13396152396349       85.81880709848366       53.06861952546513
H           24.89177136218445       85.16939299081231       53.47015210107207
H           23.18066631987277       85.36029978911681       52.86810437843534
C           24.60969484830318       89.71392061574016       48.17353609782827
H           23.67220974685454       89.72555530333528       48.72700275967090
H           24.92244220207166       88.67484431366000       48.06625570923632
H           24.42664038195545       90.12004134784203       47.18287336740097
C           26.31269890732693       92.27226492793903       47.12973836403257
H           25.89953964244125       93.27405193987434       47.24697060884044
H           25.69210497407768       91.72875510938347       46.42294182550458
H           27.31118681590372       92.36810971965032       46.70551149328276
O           26.95728935959330       92.24535493514711       53.15267268393441
H           27.18016469870367       93.18686789242270       53.15101058216513
H           26.21713929410220       92.05032860941836       53.74438449073565
C           30.66091033983093       87.24800554689772       48.79245303657255