78
 energy: -116.058078008215 gnorm: 0.000104386691 xtb: 6.7.1 (edcfbbe)
Fe         -11.86518890523465        2.31165982660278        1.14699773724597
N          -12.49398635677228        0.66918246346780        2.12717087009123
N          -10.17706926894321        2.30589091503805        2.25004015053435
N          -11.20678093019356        3.90213781514910        0.14157749058001
N          -13.51135816308603        2.26702394474829        0.02718534946717
C          -13.67594374239825        0.01940990774663        1.95527716344516
C          -13.78972150981294       -1.08767954603982        2.87698679974753
C          -12.64703998369626       -1.09082962114646        3.61577561005016
C          -11.85188681004126        0.01718123365355        3.13712758194054
C           -9.84414715371943        1.43109088762105        3.24190290838768
C           -8.58201498055779        1.78520494133436        3.83492498143284
C           -8.15571568124179        2.91611830704337        3.18745006322271
C           -9.16854515193006        3.21550618888942        2.19554664376252
C          -10.05289153448303        4.58892613029849        0.36175815903664
C           -9.93506175808968        5.70058896673455       -0.54891624795621
C          -11.05661127067940        5.67409305270074       -1.33329876560519
C          -11.83213789435612        4.53392455392277       -0.88160609899083
C          -13.83332606803264        3.12091446970639       -0.97789745510368
C          -15.11960893314394        2.78076062006301       -1.54871985726586
C          -15.56756173925880        1.69953422392912       -0.85844588796676
C          -14.54780255901441        1.39420894034796        0.12285770055125
C          -14.64018956184236        0.34900622830343        1.02119474215128
H          -15.53088200926260       -0.25953071069257        0.99007874490887
C          -10.61660125180796        0.35687971227283        3.65417754857214
H          -10.23447860357193       -0.24949370293292        4.46117952363062
C           -9.10855973366192        4.28728564347678        1.32633367335719
H           -8.25666079202829        4.94472496376990        1.40735899679156
C          -13.06082269896042        4.18196708042173       -1.40871206222953
H          -13.45060087884612        4.78424977255721       -2.21519936992801
C          -12.23124130807232       -2.01458538987749        4.70933067073339
H          -12.99247436120958       -2.77011791289261        4.88699428987720
H          -12.07076591455136       -1.46525658910041        5.63759098202506
H          -11.30025642112577       -2.52063867030173        4.45204847697583
C          -14.95983752162013       -2.00790172479111        2.94464278357614
H          -15.09932889764493       -2.52081858122038        1.99272311643182
H          -15.87148634430882       -1.45222967101861        3.16498920856015
H          -14.81945924383288       -2.75743223316450        3.71969940423353
C           -7.88095232908903        1.00396237683087        4.89143264333600
H           -8.02508691220222       -0.06505392329888        4.74121276849453
H           -8.25909353847603        1.25900728051598        5.88307634117400
H           -6.81434307486892        1.21796023868931        4.86663254857624
C           -6.94107920476045        3.67602900984417        3.38148828626264
H           -6.52985162535206        4.13637881287843        2.49062705387625
C           -6.31652853001500        3.85169547877931        4.54156035874851
H           -6.70235299773191        3.45971577116301        5.46638776847260
H           -5.40454562809445        4.42132699241461        4.60908811313967
C           -8.76703176179924        6.61991715082861       -0.63388411958479
H           -7.83577221222315        6.07395129185806       -0.49025253737446
H           -8.82500156841242        7.39563013649699        0.13159519224476
H           -8.74102707874676        7.10056533825670       -1.60965001786606
C          -11.43456122104280        6.54913858793035       -2.42099719869165
H          -11.97922752237557        6.07903191928685       -3.23158389282827
C          -11.17468884164246        7.85079238893398       -2.48941184002708
H          -10.67928023199266        8.37864640483300       -1.69318364795314
H          -11.47400327151036        8.44137116368703       -3.33946700958542
C          -15.76010060145068        3.51631289248380       -2.67534764679726
H          -15.12659568413614        3.48285572953070       -3.56186321840582
H          -15.91738711762555        4.56252287244125       -2.41155783917690
H          -16.72292970249137        3.07801083068243       -2.92626975809252
C          -16.83355699739916        0.93063035535727       -1.02292984092364
H          -17.44138795447360        1.35244129056212       -1.81955303302123
H          -17.41555996767057        0.94808484055396       -0.10110355230373
H          -16.62059128996763       -0.10995746266019       -1.26874436312737
O          -10.77572822295276        0.87671787490965       -0.27355930888939
H          -11.13906495460999        0.04068612784611        0.03849589113585
H           -9.88138339143367        0.94529505059487        0.07807831134148
C          -14.76117991471275        6.32532265534656        3.71189609810721
H          -14.21112945319899        7.03575317332715        4.32882803874365
H          -15.66822437477317        6.04131203316761        4.24547583115506
H          -15.04160904475675        6.81411156181226        2.78422007474750
N          -13.41876855945087        4.32469355404943        4.39510801747595
H          -13.54650053936051        4.45038431467822        5.38578676260102
C          -13.92932877812391        5.13237161706528        3.41289641180336
C          -12.71569916274990        3.34024565946002        3.79156973760999
H          -12.20367820149683        2.56035669231504        4.31614138600032
N          -12.75030469727216        3.47513455804886        2.48819109455534
C          -13.50201765254754        4.58541049884354        2.23698635483753
H          -13.68280024994486        4.91428042303697        1.23445811393836
