72
 energy: -105.911032509253 gnorm: 0.231320204753 xtb: 6.7.1 (edcfbbe)
Fe           7.05500000000000       43.01100000000000       29.98600000000000
N            6.61100000000000       42.66000000000000       28.07600000000000
N            5.04700000000000       42.95100000000000       30.40700000000000
N            7.38900000000000       43.53800000000000       31.97200000000000
N            9.02400000000000       43.13900000000000       29.57300000000000
C            7.53200000000000       42.41400000000000       27.08100000000000
C            6.82400000000000       42.02999999999999       25.86900000000000
C            5.52100000000000       42.05200000000000       26.16100000000000
C            5.36800000000000       42.44200000000000       27.55300000000000
C            4.00600000000000       42.76400000000000       29.53100000000000
C            2.73500000000000       42.80500000000000       30.24400000000000
C            3.04100000000000       43.02800000000000       31.53500000000000
C            4.48200000000000       43.09900000000000       31.66500000000000
C            6.48300000000000       43.47600000000000       33.01600000000000
C            7.19300000000000       43.67900000000000       34.25800000000000
C            8.48300000000000       43.88100000000000       33.90700000000000
C            8.63600000000000       43.76600000000000       32.47900000000000
C           10.01000000000000       43.56100000000000       30.44400000000000
C           11.23900000000000       43.70699999999999       29.67300000000000
C           10.98500000000000       43.33100000000000       28.39100000000000
C            9.57600000000000       42.96999999999999       28.32400000000000
C            8.89000000000000       42.53199999999999       27.22000000000000
H            9.49200000000000       42.24600000000000       26.35800000000000
C            4.16600000000000       42.58000000000000       28.20200000000000
H            3.26300000000000       42.53700000000000       27.59300000000000
C            5.13000000000000       43.28000000000000       32.86700000000000
H            4.52200000000000       43.26700000000000       33.77200000000000
C            9.82500000000000       43.84599999999999       31.77900000000000
H           10.70400000000000       44.16600000000000       32.33900000000000
C            4.35200000000000       41.73199999999999       25.21000000000000
H            4.72600000000000       41.13600000000000       24.35000000000000
H            3.90900000000000       42.67700000000000       24.82800000000000
H            3.58000000000000       41.14200000000000       25.74900000000000
C            7.44800000000000       41.66500000000000       24.50200000000000
H            7.47900000000000       40.56000000000000       24.39200000000000
H            8.48400000000000       42.06199999999999       24.44400000000000
H            6.83200000000000       42.09199999999999       23.68200000000000
C            1.32700000000000       42.66200000000000       29.59100000000000
H            1.11200000000000       41.58800000000000       29.40600000000000
H            1.30500000000000       43.20600000000000       28.62300000000000
H            0.55300000000000       43.07200000000000       30.27400000000000
C            2.16200000000000       43.15300000000000       32.80100000000000
H            2.43400000000000       43.88800000000000       33.57200000000000
C            1.08000000000000       42.41500000000000       33.02000000000000
H            0.75900000000000       41.66300000000000       32.28400000000000
H            0.49100000000000       42.54699999999999       33.94000000000000
C            6.53400000000000       43.71899999999999       35.68200000000000
H            6.51400000000000       42.69400000000000       36.11000000000000
H            5.49200000000000       44.09699999999999       35.60300000000000
H            7.12700000000000       44.37700000000000       36.35200000000000
C            9.71100000000000       44.13100000000000       34.77900000000000
H           10.50700000000000       44.80600000000000       34.43300000000000
C            9.85300000000000       43.54600000000000       35.97000000000000
H            9.08000000000000       42.86400000000000       36.35300000000000
H           10.74500000000000       43.73899999999999       36.58400000000000
C           12.59800000000000       44.17100000000000       30.27700000000000
H           12.91200000000000       43.46100000000000       31.07100000000000
H           12.48500000000000       45.18300000000000       30.72200000000000
H           13.37500000000000       44.18999999999999       29.48300000000000
C           11.98800000000000       43.29100000000000       27.19800000000000
H           12.60200000000000       42.36800000000000       27.26100000000000
H           12.66000000000000       44.17499999999999       27.24299999999999
H           11.42900000000000       43.28700000000000       26.23800000000000
O            6.67400000000000       45.01400000000000       29.26000000000000
H            6.45100000000000       44.92100000000000       28.33400000000000
H            6.71300000000000       45.77499999999999       29.71800000000000
C            7.18000000000000       39.76300000000000       29.22800000000000
H            7.07600000000000       38.67900000000000       29.45000000000000
H            8.14700000000000       39.91499999999999       28.70200000000000
H            6.34900000000000       40.05599999999999       28.55200000000000
S            7.13000000000000       40.76200000000000       30.75900000000000
H            5.81000000000000       40.73500000000000       30.87100000000000
72
 energy: -105.953906113399 gnorm: 0.091304973535 xtb: 6.7.1 (edcfbbe)
Fe           7.03161029415044       43.01271254141566       29.99997505202345
N            6.61672896570609       42.61416701195544       28.08087211682934
N            5.03377779866853       42.95466874497041       30.42405640772330
N            7.39316545261178       43.52072004368853       31.96453038896997
N            9.00725020535013       43.15745157502207       29.56996471831942
C            7.52894075599954       42.39380847590713       27.08134819005908
C            6.83105073284110       42.02427839890647       25.86071056790108
C            5.50864600550214       42.05335740222044       26.14861694912983
C            5.37484533487811       42.43695877965501       27.54065490527580
C            3.99767373951177       42.77988025360766       29.54918481855332
C            2.72353849205790       42.81446469521281       30.25475105544422
C            3.02852194648103       43.02362975596287       31.56422247099033
C            4.47440061948985       43.10582081205506       31.66653624186415
C            6.50601971969928       43.47426570451645       33.01074623364970
C            7.20467709335885       43.68967128068934       34.26303468019300
C            8.51083749900360       43.88949008409475       33.92268737341004
C            8.62692001587290       43.76696995935849       32.48161279559483
C            9.99655306728555       43.57867750627902       30.42181388707149
C           11.24629339221076       43.70029149399927       29.67926619221031
C           10.99169866473490       43.32311470019388       28.39648387645206
C            9.57944363072785       42.97225953296252       28.34118510346191
C            8.89573751058982       42.52889035065571       27.22170401294042
H            9.49489569108123       42.26818486626919       26.35585329246355
C            4.16372962254889       42.58170871742887       28.19740459801341
H            3.26643150295109       42.51534753145370       27.59296345968795
C            5.14335064976647       43.28199141486449       32.86332989423510
H            4.53950832070702       43.27421414334277       33.76344395849227
C            9.81572829326632       43.85138034814477       31.76737931178337
H           10.69629973879311       44.15002476346539       32.32723987033945
C            4.36123107800181       41.73453013484448       25.21915836633441
H            4.71939806390263       41.14761444369073       24.36828917425801
H            3.91292596964295       42.65919180825421       24.83842429568641
H            3.59203085614339       41.15594238988339       25.73944352492973
C            7.44763753314172       41.66953556185425       24.52393740375948
H            7.47998576690573       40.58063002487756       24.39942267175547
H            8.46657437212501       42.05661431388796       24.44598119737406
H            6.84904149462593       42.08721489491242       23.70776043971497
C            1.35656074037207       42.66595467434026       29.60414358577010
H            1.12937740685787       41.60998356048722       29.41240217477776
H            1.31498178105060       43.19910770476930       28.64854501479799
H            0.58196501881503       43.06704465205635       30.26455593241692
C            2.15866646619225       43.15119499183752       32.77238709615116
H            2.45221912907137       43.87950164545084       33.52761713030588
C            1.07939577784551       42.41745312965758       33.00290424655316
H            0.75450765825889       41.66260940116130       32.29820688496376
H            0.50155242198929       42.53884117767973       33.91432397826112
C            6.55288323594951       43.71918609663947       35.64493243938577
H            6.51936664259765       42.71431030937761       36.08376388694686
H            5.52478364475083       44.09223178734383       35.58908974653534
H            7.12195227590145       44.36473846164489       36.32145735447451
C            9.68935511843744       44.13004239373550       34.79013442939893
H           10.47197294763597       44.79118706110621       34.42145210251255
C            9.84455328084608       43.55140159377707       35.97400672233735
H            9.10057452602914       42.86623363401853       36.35835038418325
H           10.72753140784314       43.73112617564706       36.57799879865457
C           12.57116468857332       44.15976860097899       30.26885012717080
H           12.89618666779423       43.47076692868608       31.05586243896104
H           12.47784900420492       45.15951182960156       30.70779560859284
H           13.34732606948003       44.18728461848745       29.49818668484681
C           11.96556836041377       43.28850640391979       27.22482152140368
H           12.58340922766363       42.38387335470900       27.26840288789147
H           12.63474599648194       44.15512720526974       27.24967397277792
H           11.43464713846508       43.29136550261600       26.26810130274876
O            6.69293301012087       45.01199223506927       29.26065383481105
H            6.44765820057414       44.94492916246813       28.33711134469838
H            6.71063206784540       45.82658255761071       29.72895164281831
C            7.17447660958470       39.74568715545960       29.21177309943604
H            7.07674562799845       38.68373750552328       29.45761391395240
H            8.13260261048891       39.91916758685423       28.71502032589254
H            6.36018910446967       40.05530968537716       28.55345522749197
S            7.14257465999753       40.75217186391271       30.73127829769968
H            5.81899158506419       40.71939489222262       30.87818636348458
72
 energy: -105.966795277195 gnorm: 0.022901881398 xtb: 6.7.1 (edcfbbe)
Fe           7.01717601843418       43.01758028311998       30.01375917787980
N            6.61851464105468       42.58242516906794       28.09049313842332
N            5.02961861199757       42.96792532211747       30.43522805940505
N            7.39892477062879       43.51144308284805       31.95252970470569
N            8.99189401601059       43.17409244142885       29.56627523137335
C            7.52369045725443       42.37067440062874       27.09139689521198
C            6.83539398388615       42.01760529590489       25.86511092014057
C            5.50114511850468       42.05303732782992       26.14815477937067
C            5.37973791277756       42.42229825049182       27.54114937715491
C            3.99943190853882       42.79172163519036       29.56199878124186
C            2.72637397745975       42.82261415284101       30.25893220957569
C            3.02617251781241       43.02050919266984       31.58184656762426
C            4.47383686740750       43.11464950051408       31.66525636313989
C            6.52493884503849       43.47300680601466       32.99712152184609
C            7.21395304543285       43.69249101121354       34.25350286382447
C            8.53129417772487       43.89008797193326       33.92445439193613
C            8.62163220459178       43.76771408024865       32.47626719358681
C            9.97907888873215       43.59292252875161       30.40486458093340
C           11.23890557058226       43.69943818243144       29.68352139045412
C           10.98436345521290       43.31593469707906       28.40063026395705
C            9.57137184088754       42.97709597633311       28.35169264537073
C            8.89540549028128       42.52721976036813       27.22423331022728
H            9.49339474838863       42.29982910325037       26.35147588562855
C            4.16625197377021       42.57009460981749       28.20138264857423
H            3.27227298259486       42.48336903988996       27.60129470051137
C            5.15787861241872       43.28616416634294       32.85748333355077
H            4.56019851011107       43.28677894321547       33.75701809948914
C            9.80827404496849       43.85369070801255       31.75636799734683
H           10.69223404398996       44.13185848313883       32.31443670582549
C            4.37019494444484       41.74079153518047       25.22880440192521
H            4.72131387041887       41.15901615942559       24.38147112086328
H            3.91390499108687       42.65456979697923       24.84907112529503
H            3.60221126721466       41.16643285506827       25.73999063425815
C            7.44849651432719       41.67393355320316       24.54885342944279
H            7.48389329189504       40.59217192269998       24.41505921390341
H            8.45957330157238       42.05724525292306       24.46297451309825
H            6.85815786143703       42.08852390593379       23.73407382635555
C            1.38735400989960       42.67405019349175       29.61973464774995
H            1.16059269701415       41.62479986573795       29.42500864890584
H            1.34170727495403       43.20219248848196       28.66946600138564
H            0.61120013315232       43.06911509805591       30.27071322989158
C            2.16602601201065       43.13985329238808       32.74288868221346
H            2.47077684348714       43.87374355922935       33.48035872042111
C            1.08207008771240       42.41270867061210       32.98218560229073
H            0.74656576438610       41.65526974786395       32.29835078718849
H            0.50120501808322       42.54391879698340       33.87989482142704
C            6.57408415852671       43.72269323124139       35.60235639250837
H            6.53310569081928       42.72407070944641       36.03992370939295
H            5.55365754745033       44.09659724644170       35.55205075736044
H            7.13757879625750       44.35936225757534       36.28155327695046
C            9.67061173401839       44.12015240299564       34.78765617283978
H           10.43804980237535       44.78232423040190       34.40537994032211
C            9.83673589219877       43.55144860096777       35.97529656791282
H            9.11158563843406       42.86566083341656       36.37130260335176
H           10.70828668336815       43.73765792633463       36.57842913107748
C           12.53853439463392       44.14800243121120       30.26467483836619
H           12.86883150332438       43.46861283818906       31.04920194288021
H           12.45258483319141       45.14274218206398       30.69964595065032
H           13.31103513400295       44.17768624694184       29.50088451321587
C           11.94094622526814       43.27991878172739       27.25198412309341
H           12.56113708786599       42.38356234951941       27.28701622724199
H           12.60584948668955       44.14142835349163       27.27515007070534
H           11.41961501968127       43.29037406475489       26.29902301125459
O            6.74823053954238       45.03010769114308       29.26838844551714
H            6.42960330188189       44.99800096551285       28.35921240477962
H            6.68617762463741       45.86810492246594       29.73480981093231
C            7.17172139376037       39.73182303637059       29.19774965977231
H            7.07580851120455       38.68442673174008       29.46295291493011
H            8.12512928072651       39.91303147711206       28.71641857239204
H            6.36751397207426       40.04583005521582       28.54652401251470
S            7.15287969081667       40.74862179946959       30.71126701464601
H            5.82910293766041       40.68214981729698       30.90036979046655
72
 energy: -105.970261217094 gnorm: 0.043700711556 xtb: 6.7.1 (edcfbbe)
Fe           7.01332392512503       43.02890918204037       30.01581386616169
N            6.61661293014711       42.56556629802200       28.09925598443188
N            5.03719202313755       42.98335325078425       30.43717592950788
N            7.40609025383336       43.51129471447275       31.93755916099934
N            8.97852298488165       43.17730461768295       29.56536074824870
C            7.51883393249284       42.35734227790843       27.10083940214101
C            6.83545794357660       42.00982202479233       25.87506236446242
C            5.49948359368547       42.04562327977293       26.15516840640089
C            5.38053529743539       42.40727926526566       27.54737639018242
C            4.00931396354806       42.79703919024608       29.56559963960367
C            2.74140791493309       42.82259955101903       30.25909532431404
C            3.03563688381019       43.01794211827997       31.58415390529119
C            4.48104651865537       43.12450422611962       31.66403864576330
C            6.53496516895709       43.47670223410982       32.98064165852398
C            7.22176965199968       43.69040212059734       34.23389968244766
C            8.54101217402522       43.88347225350743       33.91281441283854
C            8.62500394144853       43.76678659988417       32.46525856667791
C            9.96438653051936       43.59699699503910       30.39793026014111
C           11.22254358646458       43.69495825937265       29.68432678026288
C           10.96809329471599       43.30737223163577       28.40403386469239
C            9.55693538647286       42.97603550583890       28.35458728696448
C            8.88933617117681       42.52744215813276       27.22485343355042
H            9.48719800276553       42.32737853434905       26.34566109511712
C            4.16963087796564       42.55591107192669       28.20710685502954
H            3.27407800372673       42.44407871402073       27.61318584103931
C            5.16825293383021       43.29626675531593       32.85263968766402
H            4.57731591692098       43.30177184606971       33.75557814463173
C            9.80815513991900       43.85368938164953       31.74877301128504
H           10.69709870330439       44.11698644956503       32.30384059181122
C            4.37042174286049       41.74364666131491       25.23463773015321
H            4.72150903834076       41.16684501954555       24.38381903799898
H            3.91269074224674       42.65938897201966       24.86006208426979
H            3.60050307590463       41.16788261200654       25.74239065633271
C            7.45467990810566       41.67416760768928       24.56393745654310
H            7.49515872985391       40.59267525677880       24.42714372742326
H            8.46474559150027       42.06179564159810       24.48304600847638
H            6.86535328230954       42.09062588888643       23.74951809821221
C            1.40679805970387       42.67886267135506       29.62435138196321
H            1.18172899256534       41.62951547269794       29.42881196843835
H            1.36267564129863       43.21055628777391       28.67601643254801
H            0.63400894524369       43.07311342864346       30.27967157493134
C            2.16329293795221       43.13923432616289       32.72769829272131
H            2.47283908293297       43.87105825557993       33.46426748546792
C            1.07111657564930       42.42006662009066       32.95858257278077
H            0.74621195172219       41.64418134708821       32.28866687164012
H            0.48772596878826       42.55273980144782       33.85289527789639
C            6.58545096047017       43.72538137040437       35.57505746517730
H            6.53698677755530       42.72490251496357       36.00738975770689
H            5.56964666283521       44.11037291728986       35.52157477809290
H            7.15918375839395       44.35569870885242       36.25128651310083
C            9.66621404003436       44.11752905125213       34.78486623406360
H           10.43276813663194       44.77636307699042       34.39623578591478
C            9.82866985299734       43.56371790581496       35.98156777514816
H            9.11779954285967       42.86176330956002       36.37834907660496
H           10.69876602804135       43.75478758164867       36.58406803780727
C           12.51561989490688       44.14089410725337       30.26702864797059
H           12.84260649741671       43.46122232575743       31.05272958646034
H           12.42680953207805       45.13570095319227       30.70125774100682
H           13.28771351636821       44.16911261642529       29.50293593174177
C           11.92393708939140       43.26866152509970       27.26369896511972
H           12.54125181180271       42.37075598510101       27.30049189138547
H           12.58906538995708       44.12974452105435       27.29498302627418
H           11.40381914841199       43.28424033160790       26.31065532439478
O            6.84904633953066       45.07528592074393       29.27402315903059
H            6.37597812525128       45.06380936486473       28.40482130159845
H            6.63615129313566       45.90474638838621       29.76607048944951
C            7.17172003186132       39.71853518516033       29.18753811618797
H            7.07563497155593       38.67534227093498       29.46895649905922
H            8.12529745119720       39.89767661085736       28.70676471507818
H            6.36726629133117       40.02931382101726       28.53516007468602
S            7.16375110128534       40.75069467475012       30.69371220492614
H            5.84515183824671       40.62955998291677       30.92762930403047
72
 energy: -105.972302037434 gnorm: 0.018798580375 xtb: 6.7.1 (edcfbbe)
Fe           7.01147559399561       43.04036528428685       30.01525107203587
N            6.61154316241470       42.56108945073344       28.10718885620987
N            5.04764158397135       43.00218784368080       30.43665269551198
N            7.41361033483962       43.51441964380205       31.92173908602921
N            8.96269779278438       43.17919435843201       29.56495145425082
C            7.51204627137815       42.35197429740231       27.10962457385492
C            6.83259726416293       42.00385318517561       25.88613647870774
C            5.49793882855060       42.03668850042657       26.16395230748729
C            5.37833134804937       42.39472159718282       27.55483899639344
C            4.02025370516891       42.80029824526434       29.56732284422566
C            2.75839091177041       42.81978424704490       30.25955887542992
C            3.04794939761352       43.01566534976423       31.58337544358336
C            4.48957588618114       43.13602476851199       31.66378174132408
C            6.54265481361692       43.48191226032915       32.96422498396356
C            7.22983538887407       43.68758462497624       34.21267981190316
C            8.54839959502273       43.87469571193286       33.89785744470569
C            8.63125278959482       43.76536816591172       32.45323302919346
C            9.94922205567601       43.59932225091847       30.39299302153647
C           11.20277267459260       43.69098383668086       29.68287486454312
C           10.94817520745672       43.30064659559804       28.40583788168803
C            9.53881931292890       42.97621886939221       28.35486259988398
C            8.87964777290317       42.53166696907495       27.22440916226046
H            9.47720303427194       42.35371436543276       26.34063280938234
C            4.17117298826932       42.53954929780666       28.21412370655852
H            3.27268162005635       42.40004298827095       27.62836932452035
C            5.17709338559009       43.30852975205410       32.84916044297015
H            4.59358060162381       43.31714012544064       33.75666654978463
C            9.81073566986983       43.85289640861657       31.74219633616866
H           10.70511451485117       44.10431614332064       32.29258199344486
C            4.36716566762792       41.74457607738530       25.23979421096233
H            4.71954524775712       41.17428446896232       24.38312822659212
H            3.91019064746341       42.66599045499091       24.87337121208956
H            3.59529875574201       41.16521491748609       25.74454862442833
C            7.46156153084501       41.67416966114578       24.57681899730086
H            7.50978060912139       40.59174454585013       24.43935428219088
H            8.47138392471029       42.06932250666636       24.50517242758053
H            6.87274123193406       42.09181014415366       23.76123994695015
C            1.42205544191485       42.68070867969039       29.62668005892792
H            1.19852827513422       41.63041738242602       29.42946346397989
H            1.38126441787144       43.21853849680968       28.68023220235786
H            0.65406243081985       43.07519604002784       30.28938779730142
C            2.16229457802419       43.13438657943307       32.72028614599481
H            2.46599702433088       43.87077720003992       33.45508185245698
C            1.06468181011302       42.41876184232650       32.93805772549577
H            0.74422216794974       41.63828583453260       32.26843052464820
H            0.46430804431182       42.56562854917589       33.82012129570765
C            6.59466209645149       43.72803210395696       35.55355437960040
H            6.53603855703461       42.72406213267953       35.97888457198069
H            5.58396114421833       44.12862921223631       35.49576041287585
H            7.18320690925919       44.35042851362792       36.22614528590490
C            9.66866284904197       44.11235269741504       34.77907134090827
H           10.43362545312762       44.77388207623095       34.39043453324164
C            9.82515061097962       43.57123994171211       35.98360307947110
H            9.11863028302183       42.86536914105569       36.38678882653175
H           10.68755716040463       43.78152333225675       36.59339285120302
C           12.49439252206934       44.13546696999251       30.27088230489289
H           12.81508830691565       43.45298438672785       31.05844895466332
H           12.39953276790904       45.13101607500472       30.70512653672120
H           13.26782407177864       44.16216796370058       29.50647981562608
C           11.90829095185896       43.25665442967615       27.26973085816505
H           12.51957368328697       42.35383755585237       27.31084964647117
H           12.57612107743074       44.11678144091358       27.31106305786030
H           11.38855397869654       43.27766596455216       26.31549601700195
O            6.80730325766875       45.11298754392413       29.31788231297624
H            6.42976132061859       45.13070834875381       28.44179305269621
H            6.64808255993091       45.93787411315887       29.78313743126918
C            7.17518867389328       39.70504824252178       29.17845423392978
H            7.07750676241729       38.66404216791855       29.47395755201934
H            8.12963858295816       39.87720805213116       28.69329915178883
H            6.36848963303713       40.00930608277669       28.52214510319114
S            7.17638998869226       40.75257186421195       30.67725384524253
H            5.86627148554892       40.57449112844424       30.95411746124998
72
 energy: -105.973397245543 gnorm: 0.012417179012 xtb: 6.7.1 (edcfbbe)
Fe           7.01436359987665       43.03455319208620       30.01456774345730
N            6.60760048358007       42.57551079427536       28.10746391385437
N            5.05627490697502       43.00555136025433       30.43655466110869
N            7.41854795312255       43.51368610925995       31.91435036311045
N            8.95404586590326       43.18186980749479       29.56318881493481
C            7.50687067492864       42.36142283136892       27.10950095047378
C            6.82878656760835       42.00421359198327       25.88827827969369
C            5.49561858504125       42.03102130114804       26.16682878278317
C            5.37569689794542       42.39355843791353       27.55674550074159
C            4.02698715867217       42.79801137486032       29.56870919337760
C            2.76588235786556       42.81666570282888       30.26035230421260
C            3.05422702171848       43.01701469509664       31.58262875092997
C            4.49412468238091       43.14181642619384       31.66400297020371
C            6.54619251291744       43.48600355156246       32.95773865301647
C            7.23414918007311       43.68854543364351       34.20536252774235
C            8.55287475585090       43.86975124789143       33.89168067055612
C            8.63729268310778       43.75999682740085       32.44905700413833
C            9.94463349543805       43.59710424940819       30.39003496315798
C           11.19607766622734       43.68798300583024       29.67877161504676