72
 energy: -105.980475000698 gnorm: 0.000144239798 xtb: 6.7.1 (edcfbbe)
Fe           7.07765593710425       43.00279956484691       29.94007900926234
N            6.65534031287924       42.61674114313391       28.03403657239646
N            5.12122244806664       42.84084306713002       30.40366684132276
N            7.47924708677955       43.47567552073306       31.85916077688231
N            8.99980001089270       43.23062965491800       29.48418073445829
C            7.53982276786147       42.52177868368342       27.01070162797027
C            6.85787355516702       42.22643159156000       25.76851516701117
C            5.53424289129788       42.15824143295621       26.06743379496746
C            5.42789394052647       42.40329353411398       27.48999734243012
C            4.09610353416938       42.58128077748630       29.54349245266508
C            2.84429880504882       42.50554875210356       30.24776213946093
C            3.13168229220575       42.71801426458956       31.57123722263854
C            4.56079461284375       42.94199677044001       31.63977090036704
C            6.59987046885765       43.48589014712390       32.90173415884928
C            7.26866469153337       43.82458538929824       34.13008423648674
C            8.58682358336042       44.01892560041583       33.80972912286295
C            8.69141564443030       43.79127770537220       32.38382745613346
C           10.00805201569301       43.57185838604966       30.32695497068104
C           11.27428930934158       43.60170487957325       29.62515490488665
C           11.00364181307521       43.25965727600524       28.33886141618924
C            9.57497213204411       43.03535879615957       28.27120645162501
C            8.90649571774816       42.69463036794881       27.11285518068361
H            9.49224067904504       42.57728731571969       26.21449275059118
C            4.23241020297960       42.38849584715727       28.17906743368317
H            3.33503474129110       42.19275916068148       27.61321859256626
C            5.24540716115314       43.21753355844741       32.80818257791922
H            4.67508716778605       43.23503687518723       33.72350147846242
C            9.87651673277984       43.84269038202037       31.67434302941456
H           10.77335468605250       44.08906492085070       32.22060731176021
C            4.37408571252575       41.88877968358553       25.17243675020734
H            4.70378427346627       41.74210529197141       24.14707888442928
H            3.67457950882817       42.72462044862076       25.19107659572481
H            3.84052377391913       40.99328628334234       25.49265896568880
C            7.54148936247697       42.05475378502009       24.45632975747458
H            8.27212165650374       41.24726338818118       24.50700943694128
H            8.06611998771585       42.96862681046559       24.17747753977678
H            6.82410034830915       41.81935572171603       23.67412356692536
C            1.51495317146310       42.30219917504690       29.61021325389008
H            1.33084425397825       41.24340089329389       29.42000502548319
H            1.45939998216567       42.82984736501090       28.65926437122701
H            0.72804005117865       42.67521369132393       30.26251231269093
C            2.23490884105920       42.75959219005804       32.70531646224832
H            2.50372988099546       43.45559368393430       33.49144719697601
C            1.14180993759284       42.01776624037579       32.84802334567586
H            0.85240933266799       41.27746222297660       32.12273684676668
H            0.50948629852268       42.10869240785929       33.71534163871298
C            6.60186222741909       43.99574127099233       35.44969087438061
H            6.45601737471520       43.03171372804050       35.93964704131751
H            5.62594978258943       44.46471510606860       35.33231010758653
H            7.21268087367688       44.62130196482795       36.09724470915369
C            9.69027681753247       44.39971709782169       34.66410622912566
H           10.44517864734121       45.02520693122508       34.20188202573744
C            9.84028333801022       44.03856368413841       35.93386248162376
H            9.14814533041980       43.37934128299709       36.42790772403367
H           10.68301688272171       44.37011713826265       36.51726852036192
C           12.57757767646713       43.94430470058671       30.25980934155802
H           12.80267591239360       43.24968481036339       31.06921100021871
H           12.54849856584100       44.95158852071052       30.67590110049878
H           13.38490618605988       43.89761267808465       29.53339146706181
C           11.92924410358847       43.12837619872033       27.17928249572411
H           11.88802691228765       42.11911050635578       26.76958478920126
H           12.95391678968468       43.33560690729603       27.47724632509413
H           11.65332346826111       43.82660151895691       26.38887239169669
O            6.71644361110233       45.19595721396686       29.63974570097182
H            5.79416382350797       45.26766508175361       29.91168041235493
H            7.25182805066749       45.56937130150744       30.34927198786034
C            6.31895781595882       39.71968686267910       29.46491051513330
H            6.24714141711259       38.72778185597325       29.90039423234231
H            6.77052662721537       39.66504914236141       28.47986185969057
H            5.34550743508141       40.19292002088964       29.39681494014633
S            7.42951469165486       40.74494115393383       30.49183166813694
H            6.64869432329315       40.71573267300936       31.57736245353547
