72
 energy: -105.907147280080 gnorm: 0.233690854610 xtb: 6.7.1 (edcfbbe)
Fe          -6.22900000000000       24.80600000000000        7.52300000000000
N           -4.54500000000000       23.71200000000000        7.28600000000000
N           -5.96700000000000       24.76700000000000        9.55800000000000
N           -8.02300000000000       25.59700000000000        7.81100000000000
N           -6.69100000000000       24.41600000000000        5.58300000000000
C           -3.93200000000000       23.34700000000000        6.10700000000000
C           -2.62300000000000       22.78800000000000        6.30200000000000
C           -2.40600000000000       22.76600000000000        7.69600000000000
C           -3.62200000000000       23.35800000000000        8.28400000000000
C           -4.89300000000000       24.28300000000000       10.22400000000000
C           -4.94300000000000       24.59400000000000       11.65800000000000
C           -6.12600000000000       25.36100000000000       11.73000000000000
C           -6.71500000000000       25.49400000000000       10.40800000000000
C           -8.45500000000000       26.29900000000000        8.90300000000000
C           -9.67700000000000       27.04200000000000        8.66000000000000
C           -9.98900000000000       26.75300000000000        7.32400000000000
C           -8.97200000000000       25.90800000000000        6.81100000000000
C           -7.87600000000000       24.66800000000000        4.96000000000000
C           -7.86500000000000       24.20700000000000        3.55900000000000
C           -6.58400000000000       23.73000000000000        3.37200000000000
C           -5.88500000000000       23.80500000000000        4.65600000000000
C           -4.54000000000000       23.44300000000000        4.85300000000000
H           -3.93500000000000       23.22400000000000        3.97300000000000
C           -3.79200000000000       23.57000000000000        9.64500000000000
H           -3.03700000000000       23.16700000000000       10.32000000000000
C           -7.88800000000000       26.22400000000000       10.17100000000000
H           -8.36700000000000       26.74500000000000       10.99900000000000
C           -8.93100000000000       25.36500000000000        5.53000000000000
H           -9.81800000000000       25.50100000000000        4.91200000000000
C           -1.26600000000000       22.21300000000000        8.42800000000000
H           -0.46000000000000       21.94600000000000        7.71200000000000
H           -1.57900000000000       21.29800000000000        8.97500000000000
H           -0.87700000000000       22.96900000000000        9.14300000000000
C           -1.66500000000000       22.33900000000000        5.25300000000000
H           -1.81300000000000       22.94300000000000        4.33200000000000
H           -1.84400000000000       21.26900000000000        5.01500000000000
H           -0.62300000000000       22.47900000000000        5.61200000000000
C           -3.99700000000000       24.18300000000000       12.70800000000000
H           -3.19500000000000       24.94600000000000       12.80400000000000
H           -3.53600000000000       23.20900000000000       12.43800000000000
H           -4.52900000000000       24.09500000000000       13.67900000000000
C           -6.74000000000000       25.96100000000000       12.96700000000000
H           -7.83000000000000       26.10000000000000       13.02700000000000
C           -5.99300000000000       26.34400000000000       14.02800000000000
H           -4.90000000000000       26.22500000000000       14.01300000000000
H           -6.47000000000000       26.78000000000000       14.91800000000000
C          -10.40800000000000       27.96700000000000        9.65400000000000
H           -9.70500000000000       28.28000000000000       10.45500000000000
H          -11.26100000000000       27.42400000000000       10.11500000000000
H          -10.77600000000000       28.87200000000000        9.12400000000000
C          -11.17300000000000       27.25300000000000        6.53100000000000
H          -11.23300000000000       26.96500000000000        5.47200000000000
C          -12.15500000000000       28.00400000000000        6.96800000000000
H          -12.17800000000000       28.34000000000000        8.01500000000000
H          -12.96900000000000       28.30800000000000        6.29300000000000
C           -9.02200000000000       24.38000000000000        2.61400000000000
H           -9.24800000000000       25.46200000000000        2.49800000000000
H           -9.91900000000000       23.86700000000000        3.02100000000000
H           -8.76100000000000       23.95800000000000        1.62000000000000
C           -5.97700000000000       23.14600000000000        2.11200000000000
H           -5.22400000000000       23.85200000000000        1.70100000000000
H           -6.77200000000000       22.98500000000000        1.35200000000000
H           -5.47700000000000       22.18300000000000        2.34800000000000
O           -7.28200000000000       22.66500000000000        7.86800000000000
H           -7.37300000000000       22.56500000000000        8.81600000000000
H           -7.53800000000000       22.07900000000000        7.25100000000000
C           -3.64400000000000       26.91300000000000        6.83100000000000
H           -3.00400000000000       27.59800000000000        7.42700000000000
H           -3.56400000000000       27.21000000000000        5.76400000000000
H           -3.24800000000000       25.88200000000000        6.95100000000000
S           -5.36100000000000       26.98700000000000        7.37100000000000
H           -5.10800000000000       26.60000000000000        8.61300000000000
72
 energy: -105.954385015378 gnorm: 0.093526652288 xtb: 6.7.1 (edcfbbe)
Fe          -6.28951973215388       24.69916850184651        7.52868788670625
N           -4.52332035530933       23.73049448448223        7.28639360046307
N           -5.94142083573475       24.79871542865826        9.54536713988011
N           -8.03090826775150       25.63614087856381        7.79508541030031
N           -6.69023022164441       24.41874150704200        5.57286933078926
C           -3.93941706439238       23.36364198546479        6.10473216298171
C           -2.63127709948926       22.80045074189365        6.31819749007653
C           -2.43570829355287       22.77196167438023        7.68404526543531
C           -3.62908154305312       23.36793347019769        8.27799916695651
C           -4.88741827613200       24.27838128789280       10.22211448884463
C           -4.97218318840712       24.60430419548993       11.63950912467270
C           -6.13066256604795       25.36411555014168       11.75433939150107
C           -6.71364326556782       25.48069030905612       10.43086316883714
C           -8.46218159723482       26.30069550284455        8.90592611313338
C           -9.67844893673770       27.04420191341267        8.64707900576591
C          -10.00388661458279       26.76360354735335        7.32682524925956
C           -8.97756900954630       25.90113233971922        6.81567389583301
C           -7.87433678750645       24.67383859903990        4.96076476570033
C           -7.84848854497768       24.21707452259482        3.57146095805811
C           -6.58600364535352       23.72765256135387        3.37445454633141
C           -5.87819143061240       23.84087304635137        4.64279070987025
C           -4.55256795894305       23.45870948010181        4.85609230960959
H           -3.95790740024448       23.20375955269279        3.98537740859837
C           -3.81185262097909       23.57534020641183        9.63700082497591
H           -3.05189351980475       23.18720220324902       10.30673684312583
C           -7.87454268078894       26.20843671049517       10.16585127725022
H           -8.34750928367864       26.73002959502514       10.98708121873361
C           -8.93260952051479       25.36095478499657        5.53543610817067
H           -9.80682331888538       25.51053635289907        4.91243214395983
C           -1.27710413483811       22.22023360776555        8.42346252634916
H           -0.47221271090606       21.94885838865731        7.73053040384825
H           -1.56707141576394       21.31537383347700        8.97351626029246
H           -0.88111679044052       22.95117593176303        9.13985486835181
C           -1.67747982097913       22.34583669995521        5.26264151104230
H           -1.80579494987152       22.93091762611258        4.34483566668201
H           -1.83751464249940       21.28787287003068        5.01711130422712
H           -0.64296221704889       22.47044453192762        5.60206760689865
C           -4.01197981332526       24.18658552048186       12.69174181373063
H           -3.20764296124388       24.92859752863238       12.80301202908107
H           -3.54594936945575       23.22544932624365       12.44397839703955
H           -4.51903240190686       24.09086905260106       13.65928342731790
C           -6.71727634656066       25.95392581939472       12.96932879827116
H           -7.79851028382857       26.08999725731185       13.00723124415404
C           -5.99457710742276       26.33711082412816       14.02275267354741
H           -4.91703158720099       26.24470943038449       14.02123442887751
H           -6.46173783777107       26.76889366540581       14.90138792563216
C          -10.38455487443834       27.94656460169628        9.63887993596345
H           -9.70889024035736       28.26519571082681       10.43883496121534
H          -11.23951851926410       27.43171321817266       10.09789773964017
H          -10.74729235480838       28.85176569649412        9.14086069645398
C          -11.15634318359619       27.24607207618176        6.53912160352186
H          -11.19801752474456       26.95091527986787        5.49063240158140
C          -12.15654118474403       28.00187208101453        6.97172332860934
H          -12.21209660934861       28.33613840762805        7.99612769268969
H          -12.95697082276323       28.30548309534739        6.30589454685627
C           -9.00080393351157       24.37778140415625        2.62624574153014
H           -9.24140937360973       25.44117900722416        2.49854968139136
H           -9.89652157288867       23.87528832919170        3.01268179908275
H           -8.76497385738526       23.96292904000716        1.64041568871018
C           -5.98421010326267       23.15085119984169        2.12416127106694
H           -5.23722073601371       23.83877888014028        1.70768011127757
H           -6.75594646093190       22.98494262389845        1.36571829926785
H           -5.48780438588609       22.19850744219295        2.34032433405834
O           -7.27086599077039       22.69164573603759        7.88240436916243
H           -7.37903219451926       22.55291563764603        8.82047338468709
H           -7.54726046931806       22.06086153585214        7.24286680432626
C           -3.62492560197391       26.90769076497665        6.82972284815760
H           -3.01529856451333       27.59854941273227        7.42240087405339
H           -3.57283881898804       27.20185638245463        5.77759494610204
H           -3.24507664164195       25.88888109402309        6.94398937584554
S           -5.35388895542433       26.95913717375861        7.36447420888737
H           -5.09009905460580       26.64085132071299        8.63016546469786
72
 energy: -105.966823769818 gnorm: 0.026482374958 xtb: 6.7.1 (edcfbbe)
Fe          -6.30458613338396       24.67293301335463        7.52900220981867
N           -4.52388966374180       23.73326057228124        7.28848371509301
N           -5.94529382200074       24.79647278220845        9.53236348654542
N           -8.04752308328144       25.63715600614488        7.78442107200420
N           -6.69276945140353       24.41399847223472        5.58340312733776
C           -3.95216990285363       23.38128344109487        6.10515163343168
C           -2.64144776444388       22.81304558498863        6.33116692342193
C           -2.46257733448678       22.77934460321505        7.67840037382286
C           -3.64479499731418       23.37583061753176        8.27028674497932
C           -4.89109709141439       24.27110888310148       10.21463491115206
C           -4.99148256293436       24.60302895485297       11.61872835356974
C           -6.13226516785386       25.35542832533012       11.76323759214695
C           -6.71657499171269       25.46040151822985       10.44058507650469
C           -8.46453327720556       26.29146923805584        8.90351850135245
C           -9.67473757213613       27.03793368338140        8.64043669818690
C          -10.01543233562252       26.76633366055161        7.33447591200004
C           -8.97710174613852       25.89084933185770        6.82289969072078
C           -7.87321889809198       24.67774229100460        4.97115592527753
C           -7.83471151647646       24.23366562962013        3.58818564312499
C           -6.58379979642776       23.73914547496031        3.38193633320679
C           -5.87935045529946       23.86323872048122        4.64538985052944
C           -4.56816327515860       23.47041936080342        4.86443357832297
H           -3.98774135934146       23.17067997344824        4.00111666318630
C           -3.83077094869976       23.58718488700227        9.62684884771859
H           -3.06320899973596       23.21292326862682       10.28996681898612
C           -7.85760764601951       26.19387675849046       10.15082427385165
H           -8.32740599648338       26.71414734072493       10.96988178379345
C           -8.93195829322651       25.36332261888697        5.54162280850716
H           -9.79338225668807       25.52794347948144        4.91093683741018
C           -1.29183680146905       22.23043975337547        8.42499324190816
H           -0.49168099306900       21.95912699496114        7.74053382247312
H           -1.57263686451143       21.33249625370071        8.97585165916374
H           -0.89738823172660       22.95125710083626        9.13944402669383
C           -1.69218256129494       22.35390871574625        5.27126037569375
H           -1.81278073197327       22.93085361744429        4.35804182312511
H           -1.84792169539849       21.30261417830689        5.02710347423833
H           -0.66276475028348       22.46728066623098        5.60408253059104
C           -4.02343287951436       24.18338641139706       12.67400650269265
H           -3.22329027993105       24.91856026873947       12.78865799279075
H           -3.55990482838084       23.22964919731295       12.43280091134507
H           -4.52391778186314       24.08556516080463       13.63551603563801
C           -6.69409039316734       25.94275693308309       12.96050135375310
H           -7.77038950132357       26.07122619238744       12.97614211034737
C           -5.99135393496737       26.33587521982165       14.01596600865447
H           -4.92082255949249       26.26741562639608       14.03521549035629
H           -6.45984366866989       26.75734203063051       14.88794355312425
C          -10.35773132140865       27.92802491418885        9.62504938677176
H           -9.68869558751393       28.23166159162943       10.42489746036477
H          -11.21741026036178       27.42771198078754       10.07514461949592
H          -10.71058353431805       28.83576593536801        9.14196402306020
C          -11.13827512671797       27.23766134060585        6.55370282284268
H          -11.15126275005697       26.93972532253330        5.51187426273768
C          -12.15647268403509       27.99005547041864        6.97429075034345
H          -12.25046493269264       28.32662358457448        7.98537224425140
H          -12.94087167881971       28.29431571614036        6.30412435625520
C           -8.98006331769486       24.37668944541595        2.63919313365140
H           -9.22782389204265       25.42956438772658        2.50412381249473
H           -9.87018811755527       23.87485623336377        3.01828086783313
H           -8.74785309180831       23.96097464879723        1.66274833885669
C           -5.99047243547183       23.16106234698956        2.13916648950060
H           -5.24492252371405       23.83690262677085        1.72003742041345
H           -6.75242826716591       22.99243080948723        1.38410585223985
H           -5.50015107066270       22.21209678623945        2.34636576493462
O           -7.25930539743784       22.73127782900783        7.89580252756237
H           -7.39146070476488       22.52594352097714        8.82354482585868
H           -7.54233542307507       22.07659202218895        7.25463259548323
C           -3.60188233888121       26.90032519041504        6.82255464664098
H           -3.02138612110223       27.59865014819527        7.41687156798000
H           -3.57316520353100       27.19286663232521        5.77966822035307
H           -3.23148591129050       25.88942934051861        6.93705849858257
S           -5.34289744324090       26.96337074425461        7.34867597112652
H           -5.08757606802290       26.69549861795927        8.63419324177215
72
 energy: -105.969857887716 gnorm: 0.019121590508 xtb: 6.7.1 (edcfbbe)
Fe          -6.31037165966536       24.66304410010245        7.53100938236391
N           -4.52922818908635       23.74267054857832        7.28750851405646
N           -5.95262910072830       24.79151990636553        9.52316426435948
N           -8.05434024660228       25.62710455976124        7.78032641994609
N           -6.69324623563484       24.42180505571531        5.59282752067672
C           -3.95962730587301       23.39047131948875        6.10524286688433
C           -2.64749359257554       22.82168225990510        6.33243331500407
C           -2.47230468501218       22.78642719776178        7.67991217438536
C           -3.65441799557153       23.38170997440450        8.26546884644982
C           -4.89438040516432       24.26902663706429       10.20542481718884
C           -4.99078153735172       24.59628855281143       11.60520547440302
C           -6.12740550530696       25.34904017097124       11.75703254855436
C           -6.71739008155366       25.45167685873681       10.43686067240046
C           -8.46299598123814       26.28034729323806        8.90200866524578
C           -9.66827775982276       27.02912106663094        8.64278551353896
C          -10.01925796531329       26.76182685498285        7.34105039984020
C           -8.97916537351307       25.88182585593754        6.82632941260854
C           -7.87230420880212       24.68759368872492        4.97714457623700
C           -7.82956189935140       24.24883801104429        3.59662277931775
C           -6.58068978344299       23.75386808699532        3.38889293359283
C           -5.88197206021830       23.87372783318898        4.65273853492921
C           -4.57733549630957       23.46855399727731        4.86917589372782
H           -4.00948253820131       23.13682255166630        4.00928525651459
C           -3.83641062816653       23.59135900727237        9.62059011031934
H           -3.05965511836596       23.22963218317637       10.27877616104320
C           -7.85292460065829       26.18301196405141       10.14326459067469
H           -8.31848077357137       26.70723278601359       10.96258665152411
C           -8.93466682276467       25.36883665913911        5.54153853349785
H           -9.78626934019233       25.54775895658008        4.90213157857109
C           -1.30460487839165       22.23996341104587        8.43380356707587
H           -0.50520761622480       21.96920629435323        7.74893505527591
H           -1.59034892563908       21.34459674330359        8.98579284003437
H           -0.91688567685240       22.96572036965786        9.14634216806909
C           -1.70361174177518       22.35911296324194        5.27237463224968
H           -1.82518265149086       22.93863279847533        4.36120847140038
H           -1.86909161635755       21.30830009350649        5.03321758178236
H           -0.67409572278362       22.46677807951895        5.60775685397830
C           -4.02614165472436       24.17133754999298       12.66013460514501
H           -3.22845034516211       24.90785424715424       12.77316501770752
H           -3.56836928158421       23.21667289783359       12.41367637489930
H           -4.53465576087665       24.07564654160138       13.61733854218556
C           -6.68469644041135       25.93236391461110       12.95404223936449
H           -7.76134538847721       26.05378550273214       12.95889673214012
C           -5.99110302273638       26.33342228232247       14.01511852203210
H           -4.91701755103012       26.29002889716059       14.04429859832961
H           -6.47076453692946       26.75515335965047       14.88101440763974
C          -10.33501129012454       27.92104660684421        9.62881631415295
H           -9.65860914331943       28.19539885532335       10.43399065348074
H          -11.20807163904048       27.42989196995112       10.06435145100133
H          -10.66224082745635       28.84143058623365        9.14941428472324
C          -11.13185822250375       27.23339253946218        6.55792898062237
H          -11.11615521935300       26.94138125496327        5.51468337791138
C          -12.16491313214280       27.97424784844002        6.96433431024051
H          -12.30252652461061       28.29493658668877        7.97973134420775
H          -12.93510899899551       28.27788265184598        6.27658986560054
C           -8.97005958357705       24.37949715938809        2.64519014083041
H           -9.22133767142605       25.43054892918472        2.50286678424211
H           -9.85450705325290       23.87169436886465        3.02890193232248
H           -8.72519652761946       23.95523012574199        1.67558648829869
C           -5.99144344086817       23.17184856598764        2.14929945499970
H           -5.24239590750742       23.84366181495938        1.72945069598875
H           -6.75732421950983       23.00541912791626        1.39690601737898
H           -5.50788071206974       22.21954576743354        2.36036866507409
O           -7.26961863713417       22.74242876057672        7.91393236562892
H           -7.40726395577536       22.48573699123757        8.83207237613593
H           -7.54213434264573       22.07976021104023        7.27423988133271
C           -3.58501117543014       26.89449851284093        6.81356604692868
H           -3.01466443283619       27.60574472196409        7.40161938660493
H           -3.56493440847900       27.17539802702671        5.76710698587631
H           -3.20911493777048       25.88693851382634        6.93940380714727
S           -5.33171984135895       26.96134932566409        7.33851154424747
H           -5.06925845368803       26.79369029284578        8.65168222785590
72
 energy: -105.971304952982 gnorm: 0.014282077581 xtb: 6.7.1 (edcfbbe)
Fe          -6.30275063588284       24.67379466685827        7.53407935739763
N           -4.53879210081007       23.74928307923942        7.28801180514539
N           -5.95394098611211       24.79348309497577        9.51260349969890
N           -8.05210817586597       25.62057501682384        7.77736469415335
N           -6.69330652519851       24.42794875860815        5.60670920758164
C           -3.96760459054978       23.39342183568121        6.10762539132863
C           -2.65460434092229       22.82691342748667        6.33288312579026
C           -2.47924725479090       22.79430540505691        7.68145861715260
C           -3.66119159961740       23.38960617237478        8.26167973528779
C           -4.89563179004509       24.26969852961216       10.19581904265115
C           -4.98736147297566       24.59027537701180       11.59373367024344
C           -6.12222605204370       25.34421374779327       11.74913414151770
C           -6.71496859461696       25.44741288252718       10.43073744905051
C           -8.45928774468464       26.27103529713492        8.90112880883369
C           -9.66372763532822       27.01740904054179        8.64682205695544
C          -10.02138450659862       26.75244041026571        7.34789341120981
C           -8.97955987938742       25.87404960327767        6.82905612281748
C           -7.86965951005313       24.69811443390281        4.98429064497872
C           -7.82495514222061       24.26454932365880        3.60480777334595
C           -6.57758686598262       23.76665139437442        3.39849538482125
C           -5.88475337609927       23.87970931384360        4.66360129423306
C           -4.58568585141974       23.46044272614241        4.87440272365061
H           -4.03029194555628       23.10591092122895        4.01765549956583
C           -3.83529902848254       23.59722862996473        9.61570567064650
H           -3.05282096707872       23.24294804518949       10.26957032356957
C           -7.84971730271671       26.17557685146117       10.13897410482758
H           -8.31280077641696       26.70084914109393       10.95967753432157
C           -8.93601438209075       25.37631923710577        5.54019567284870
H           -9.77919161234101       25.56478198680718        4.89349611266200
C           -1.31760541932453       22.25275008945234        8.44472333918350
H           -0.51525542822383       21.97898593125814        7.76423180234177
H           -1.60926611245136       21.36152013049103        9.00099232082301
H           -0.93698752009065       22.98539361532860        9.15479729621320
C           -1.71662225667048       22.36239911466569        5.27166928292208
H           -1.83790023696612       22.94572645081397        4.36238165605226
H           -1.89259653152587       21.31270976611481        5.03298547638498
H           -0.68564493136365       22.46263621276509        5.60675344494999
C           -4.02784691228610       24.15642818222631       12.64686416751688
H           -3.22751223463154       24.88935841586607       12.76101329391946
H           -3.57744086797104       23.19905676753816       12.39568586414795
H           -4.54285283949953       24.06297844272867       13.60103532563609
C           -6.67887441649073       25.92697911783237       12.94673855424651
H           -7.75727788338864       26.03178874069261       12.95016215730571
C           -5.99189953717082       26.33975685720934       14.00831006352736
H           -4.91743050374591       26.30274354604219       14.05159856547070
H           -6.48528678986413       26.74871705231648       14.87402679600116
C          -10.32284248159468       27.91580778028037        9.63058850077266
H           -9.64395822433786       28.16776225644809       10.44243180452950
H          -11.20822609082212       27.43887864984952       10.05638618311048
H          -10.62977224343270       28.84224372487371        9.14776262329029
C          -11.12832131832198       27.22796169415073        6.56198003239892
H          -11.08320006924060       26.95917228859248        5.51249329767259
C          -12.17505774056059       27.94938846532591        6.96356400694274
H          -12.33401611925027       28.26261589565631        7.97948058108571
H          -12.93029141289122       28.26021927870628        6.25949480071492
C           -8.96143303661669       24.38483886001255        2.64992462912642
H           -9.21854828850474       25.43310007027745        2.49591787909589
H           -9.84243099402920       23.87279127167510        3.03645677171175
H           -8.70563741136389       23.95130305647202        1.68656234502501
C           -5.99034327685514       23.18321883310495        2.16008607084991
H           -5.23593845134366       23.84997053345901        1.74068745483245
H           -6.75874898456535       23.02250874800751        1.40781454292822
H           -5.51509168405087       22.22627585899544        2.37314991018458
O           -7.29340403541371       22.75410204779385        7.92823078179381
H           -7.41188733935972       22.45203798806827        8.83538347223879
H           -7.53878069505609       22.06797575070840        7.30063197967965
C           -3.56870918123194       26.89017803904656        6.80331097913901
H           -2.99840623335525       27.61100631008740        7.37864408314659
H           -3.55164268501738       27.15330619154195        5.75126839779251
H           -3.18991441842594       25.88428642335674        6.94379058520182
S           -5.31879585837676       26.97437441210955        7.32940791929775
H           -5.06283065842877       26.85979878801466        8.64796808450771
72
 energy: -105.971964816977 gnorm: 0.013192071257 xtb: 6.7.1 (edcfbbe)
Fe          -6.30365232288820       24.67131374287485        7.53868736053746
N           -4.54554116052029       23.75280696063482        7.28931027299950
N           -5.94894646247098       24.80125112618504        9.50605395711572
N           -8.04709196978272       25.62078264990078        7.77707992856640
N           -6.69235530619818       24.43485504151722        5.61297932851464
C           -3.97227879198912       23.39149596823491        6.11002643328011
C           -2.65957809879212       22.82687149782798        6.33266081945418
C           -2.48005836839257       22.80108133342470        7.68200289075087
C           -3.66164381848692       23.39729499600143        8.26044822754175
C           -4.89264765801878       24.27500077014233       10.19037985857043
C           -4.98379619389880       24.58728473659790       11.58951249090554
C           -6.11929904822253       25.34153058678207       11.74429482372109
C           -6.70875533003076       25.45207832304992       10.42556689055011
C           -8.45548374898363       26.27038092289725        8.90137135189260
C           -9.66301643841424       27.01173866946028        8.65113554423848
C          -10.02008166163965       26.74911606406766        7.35151096062368
C           -8.97736382193081       25.87572900788809        6.82963006339512
C           -7.86669779511266       24.70878501952658        4.98655579517418
C           -7.82255072088275       24.27663258741425        3.60713670715482