72
 energy: -105.980605833084 gnorm: 0.000172437189 xtb: 6.7.1 (edcfbbe)
Fe          -6.23031533836919       24.70238287896922        7.46472270405167
N           -4.52760119879208       23.69957497461733        7.23670214345565
N           -5.83398882372859       24.92854742038307        9.42696249498049
N           -7.98493000509043       25.66675052842307        7.72048999695349
N           -6.67507606262950       24.41275922752461        5.54673636620660
C           -4.03366321255566       23.19191916711118        6.08045014798263
C           -2.75951869163221       22.54346574486981        6.30760301445438
C           -2.50450983171345       22.66001103024997        7.63702436573495
C           -3.62226908197654       23.38652808512744        8.20095004781417
C           -4.75480243312016       24.44400512526990       10.10348824293579
C           -4.81390210896482       24.81288185448651       11.49274277004535
C           -5.96038352651442       25.54761962945108       11.64917348863518
C           -6.58695013294302       25.59445270910501       10.34420839568523
C           -8.42800802985860       26.26919896063550        8.86088032579705
C           -9.69835728238212       26.90794994760998        8.64001795584917
C          -10.02563218828406       26.67168616084156        7.33042763601489
C           -8.92790881348518       25.90913906110787        6.77366447555137
C           -7.80605728378061       24.79485613940300        4.89932549110299
C           -7.75154695255091       24.41167123773564        3.50425409833218
C           -6.55054112267521       23.80295718361846        3.32415657398749
C           -5.89483911738522       23.81010965134984        4.61454386833722
C           -4.65419464202123       23.25218469099457        4.84778186036319
H           -4.14175993995328       22.80657985822316        4.00946468568346
C           -3.72016695710406       23.71950096059353        9.53646552841857
H           -2.92027443060823       23.40310078209694       10.18752843745841
C           -7.77788254658031       26.24479754098112       10.08229741788611
H           -8.25170702804312       26.75921126553737       10.90342190193114
C           -8.86588736625524       25.47864799659621        5.46163689445417
H           -9.69958077158370       25.71524739509970        4.81947188788909
C           -1.33810497782078       22.17013822315419        8.42382173068397
H           -0.62787468049833       21.65591625591485        7.78136220146868
H           -1.66409917364390       21.47593110914053        9.19848112538756
H           -0.82390628216639       23.00093265800629        8.90801529227701
C           -1.94951674325565       21.88871193217705        5.24274620927852
H           -1.70436040625444       22.60076431766963        4.45452547569341
H           -2.50457611868792       21.06495660227768        4.79378868131124
H           -1.02162166366462       21.49462400618007        5.64968320130472
C           -3.83327104498046       24.39498725030036       12.53132128052231
H           -2.95673878665783       25.04523474532581       12.52490727755565
H           -3.49716939565781       23.37445381630764       12.35462567374096
H           -4.29056821163537       24.44589458715648       13.51730686006574
C           -6.50598410704740       26.14683028577385       12.84731459075874
H           -7.58777646906185       26.16575959082515       12.91168018457917
C           -5.79231944056644       26.66704342389062       13.84009474412701
H           -4.71795880837752       26.71813861151868       13.80860629127789
H           -6.26455175154962       27.08657505626758       14.71266022382298
C          -10.44008721349876       27.71132232204842        9.64974751850818
H           -9.75177726139211       28.29229072394241       10.26188073790546
H          -11.02015333957609       27.06676479059069       10.31251102195429
H          -11.12424822434084       28.39459631007190        9.15102907698628
C          -11.19145585892323       27.09894573830842        6.58828414483120
H          -11.02332844260693       27.32204820183501        5.54141663868342
C          -12.41670029035467       27.22373173308481        7.08694545008144
H          -12.64946624404586       26.97131919068524        8.10682514057183
H          -13.23999432784252       27.56066450693496        6.47944526939199
C           -8.83569410454759       24.67715557942659        2.51782402563224
H           -8.99995049514369       25.74953897056866        2.41001603082209
H           -9.77120037165714       24.22219183868065        2.84369837999756
H           -8.57854711516539       24.27080074208534        1.54294930749677
C           -5.96280711361521       23.21629195098946        2.08764957116871
H           -5.01959847560662       23.70520183919425        1.84369909430736
H           -6.63835158583208       23.33543440438423        1.24435342196830
H           -5.76772523725941       22.15251899952289        2.22439359094480
O           -7.35246468057119       22.83818526296292        8.00390262183865
H           -8.21959075026542       23.02412420759324        7.62604183879064
H           -7.43141509980452       22.93651032222057        8.95974945054703
C           -3.52538847641023       26.76826957844655        7.58828128234441
H           -3.16040356172077       27.78909537767288        7.64646046494372
H           -2.94585418427735       26.20341549905927        6.86557464771294
H           -3.48513414889393       26.27818667291314        8.55493302739355
S           -5.24818097032035       26.78307221315996        6.97945550047892
H           -5.74082944422224       27.44769334372198        8.03039848287438
