87
 energy: -128.297620736023 gnorm: 0.304504671449 xtb: 6.7.1 (edcfbbe)
Fe         -39.79600000000000       17.04300000000000        3.48400000000000
N          -41.48199999999999       17.65100000000000        3.80600000000000
N          -40.43800000000000       15.30000000000000        2.98600000000000
N          -37.74300000000000       16.28100000000000        3.30400000000000
N          -38.73500000000000       18.62600000000000        4.04900000000000
C          -41.77200000000000       18.98700000000000        4.13200000000000
C          -43.17099999999999       19.27400000000000        3.89400000000000
C          -43.72099999999999       18.17600000000000        3.42100000000000
C          -42.66700000000000       17.16300000000000        3.36900000000000
C          -41.77000000000000       15.04500000000000        2.85100000000000
C          -41.97200000000000       13.61700000000000        2.56500000000000
C          -40.72300000000000       13.02000000000000        2.53400000000000
C          -39.74800000000000       14.05900000000000        2.77600000000000
C          -37.52500000000000       14.90900000000000        2.94900000000000
C          -36.06200000000000       14.71900000000000        2.81500000000000
C          -35.39200000000000       15.84400000000000        3.06800000000000
C          -36.44600000000000       16.84700000000000        3.37500000000000
C          -37.35700000000000       18.94900000000000        4.11700000000000
C          -37.18899999999999       20.30000000000000        4.66900000000000
C          -38.59200000000000       20.81700000000000        4.94800000000000
C          -39.48000000000000       19.73800000000000        4.54000000000000
C          -40.84800000000000       19.87800000000000        4.62600000000000
H          -41.22899999999999       20.76800000000000        5.12700000000000
C          -42.80700000000000       15.90600000000000        2.94300000000000
H          -43.79999999999999       15.55900000000000        2.65700000000000
C          -38.41300000000000       13.84600000000000        2.76700000000000
H          -38.02700000000000       12.83900000000000        2.61700000000000
C          -36.27000000000000       18.16000000000000        3.72100000000000
H          -35.27200000000000       18.59600000000000        3.68800000000000
C          -45.20900000000000       17.99800000000000        2.96800000000000
H          -45.59900000000000       18.96600000000000        2.58600000000000
H          -45.82900000000000       17.67600000000000        3.83200000000000
H          -45.26600000000000       17.24100000000000        2.15700000000000
C          -43.90500000000000       20.59000000000000        4.09000000000000
H          -44.17800000000000       21.01300000000000        3.10000000000000
H          -43.24700000000000       21.31100000000000        4.62100000000000
H          -44.83299999999999       20.41900000000000        4.67700000000000
C          -43.41100000000000       13.00200000000000        2.38500000000000
H          -43.98899999999999       13.61600000000000        1.66200000000000
H          -43.94199999999999       12.99800000000000        3.36100000000000
H          -43.32999999999999       11.96600000000000        1.99300000000000
C          -40.35299999999999       11.51400000000000        2.31500000000000
H          -39.35500000000000       11.23900000000000        1.94300000000000
C          -41.26800000000000       10.48200000000000        2.58200000000000
H          -42.27700000000000       10.71300000000000        2.95500000000000
H          -40.98700000000000        9.43100000000000        2.42100000000000
C          -35.34200000000000       13.42900000000000        2.39400000000000
H          -36.08700000000000       12.69200000000000        2.02500000000000
H          -34.80800000000000       12.99500000000000        3.26600000000000
H          -34.61999999999999       13.65100000000000        1.57900000000000
C          -33.84700000000000       15.70800000000000        2.96000000000000
H          -33.47500000000000       14.71300000000000        3.21900000000000
C          -32.84300000000000       16.54000000000000        2.61700000000000
H          -33.05400000000000       17.58000000000000        2.32900000000000
H          -31.80099999999999       16.18900000000000        2.62100000000000
C          -35.93100000000000       21.16100000000000        4.95100000000000
H          -35.89300000000000       22.00900000000000        4.23400000000000
H          -35.01700000000000       20.54200000000000        4.82600000000000
H          -35.97700000000000       21.56500000000000        5.98500000000000
C          -38.85200000000000       22.23300000000000        5.52300000000000
H          -38.15700000000000       22.95900000000000        5.04900000000000
H          -38.67699999999999       22.23100000000000        6.62000000000000
H          -39.89699999999999       22.54000000000000        5.30600000000000
C          -39.56100000000000       17.01100000000000        9.00600000000000
H          -38.74200000000000       16.50100000000000        9.55700000000000
H          -40.53000000000000       16.75900000000000        9.48700000000000
H          -39.39200000000000       18.10800000000000        9.04400000000000
N          -39.74700000000000       15.23400000000000        7.23800000000000
H          -39.91700000000000       14.49300000000000        7.88700000000000
C          -39.56799999999999       16.55300000000000        7.59100000000000
C          -39.65900000000000       15.11100000000000        5.92600000000000
H          -39.75500000000000       14.17000000000000        5.38600000000000
N          -39.44000000000000       16.30500000000000        5.40900000000000
C          -39.37100000000000       17.22300000000000        6.43300000000000
H          -39.18700000000000       18.27199999999999        6.23700000000000
C          -39.63600000000000       17.98700000000000       -2.12800000000000
H          -38.69100000000000       18.53500000000000       -2.33100000000000
H          -40.46399999999999       18.47800000000000       -2.68300000000000
H          -39.52199999999999       16.93500000000000       -2.46800000000000
N          -40.09500000000000       19.19600000000000       -0.00600000000000
H          -40.05499999999999       20.10500000000000       -0.42000000000000
C          -39.91800000000000       18.01500000000000       -0.69200000000000
C          -40.32200000000000       18.93000000000000        1.26500000000000
H          -40.49700000000000       19.68300000000000        2.03300000000000
N          -40.29800000000000       17.61900000000000        1.42600000000000
C          -40.02399999999999       17.02400000000000        0.21400000000000
H          -39.93200000000000       15.95000000000000        0.11800000000000
87
 energy: -128.388409285552 gnorm: 0.144542023981 xtb: 6.7.1 (edcfbbe)
Fe         -39.73937265153898       17.00201162889899        3.48771805545478
N          -41.47323775145917       17.67860990482480        3.78807546917561
N          -40.44588620025059       15.26629732925941        2.98481255016378
N          -37.70495892306856       16.24523121142817        3.26187311263876
N          -38.73971911752313       18.67226849936636        4.03125096276935
C          -41.76410152482883       18.99064422934713        4.14267208056170
C          -43.16844695098499       19.28322726132188        3.90632586363874
C          -43.73152627366498       18.16449271038822        3.41557276128977
C          -42.66724565149764       17.17135844707477        3.36517547586303
C          -41.76729668324295       14.99660961667371        2.84042109669547
C          -41.98146946779362       13.58440359695004        2.56091771819159
C          -40.73882209905479       12.98864765975465        2.53388512707668
C          -39.77391367570419       14.05393321897678        2.77416645692921
C          -37.49089546997801       14.90903220607967        2.94557145687264
C          -36.05477005853097       14.69720172348111        2.81077853549462
C          -35.38057970138436       15.85046663947004        3.05830459193366
C          -36.44666558843034       16.83903808215077        3.35945939713216
C          -37.38242579739826       18.98511479249970        4.11626774384163
C          -37.22419609733851       20.32092789443258        4.67090012845326
C          -38.53963337097733       20.81209948711665        4.94565969762554
C          -39.44407664864511       19.76153632813874        4.54546247110016
C          -40.82960942036586       19.88372878920394        4.63000382446021
H          -41.21712413686525       20.77634491298813        5.11005798005316
C          -42.81335307740427       15.88587281807575        2.93659370732362
H          -43.80287103599274       15.54940624221569        2.65965432067247
C          -38.41101058501536       13.87205898672948        2.77231278122363
H          -38.02974667489234       12.86686389504673        2.61738276605145
C          -36.30014031876055       18.16599943528356        3.72517866363614
H          -35.29841818796402       18.59260680637179        3.70633984937432
C          -45.18551600043610       17.99444183032284        2.97235080642997
H          -45.58324593616580       18.94682654915448        2.59619036195872
H          -45.81237737701472       17.67770032196765        3.81715591191238
H          -45.26307211726061       17.25009248038834        2.17223851774702
C          -43.89268438873209       20.58909219447795        4.09441305090654
H          -44.17189598416936       21.00908016992648        3.11765928183295
H          -43.25913327582481       21.31057209304678        4.61819761992265
H          -44.81380177342204       20.42558526764022        4.66935753610790
C          -43.38803815567597       13.00695012775304        2.38237466979444
H          -43.97132050735062       13.60951359050058        1.67402743231450
H          -43.92374530079345       12.99792319162601        3.34249572542257
H          -43.33318377053698       11.98741884587301        1.99209593761835
C          -40.39246415275669       11.52910408683601        2.32659781305383
H          -39.39326275434284       11.26917708826977        1.95917192221384
C          -41.24905432825611       10.51282289802813        2.57860109222378
H          -42.24626956744692       10.70448050724723        2.95852197437251
H          -40.97868296187480        9.46890086418689        2.41932746263635
C          -35.35946281465953       13.42209234603827        2.39294265165414
H          -36.07934915204045       12.68813150579312        2.02477283244148
H          -34.81984975743494       12.99471698616209        3.24918369711304
H          -34.63920009692919       13.64069504399951        1.59323442811203
C          -33.86634618707135       15.73704668012240        2.98599112148925
H          -33.50902682119183       14.73297428621465        3.22627597895662
C          -32.87447852672080       16.55422659251546        2.62687296433340
H          -33.05408739891740       17.57990965131316        2.32774936433143
H          -31.84027298786795       16.20302396838285        2.61805960431181
C          -35.96087125466082       21.13778206609894        4.94207619429859
H          -35.89938767840219       21.98884607780077        4.24600544243854
H          -35.04264832148169       20.54614897704341        4.82764085354156
H          -35.98109479043210       21.54961108857092        5.96173684596615
C          -38.84268574593875       22.19953702956899        5.50881262786536
H          -38.16831888533314       22.93931744906556        5.05608847490633
H          -38.68047831569515       22.22465221238185        6.59693245535499
H          -39.87479268603542       22.52231210368495        5.30885132678816
C          -39.56048432627492       17.00736396249244        9.01300396078737
H          -38.75163617533880       16.50914883215557        9.56187905203203
H          -40.51742181817987       16.76592448134087        9.49173966807337
H          -39.39713237273936       18.08958619818516        9.04590749264521
N          -39.74496050250395       15.23084094150237        7.25639619925064
H          -39.91481100069120       14.48310563827199        7.90302654853690
C          -39.56515532484310       16.54661143464626        7.60422415307916
C          -39.66492327799996       15.12464608804629        5.92552276227807
H          -39.75423315615824       14.19288852231884        5.38726625988115
N          -39.46056772274243       16.31323503597853        5.40522608677017
C          -39.37678787900867       17.21050594111732        6.43563750027187
H          -39.19127156659172       18.25183425948263        6.24731436228827
C          -39.63336301173442       17.98910840466943       -2.13949770453483
H          -38.70003535870251       18.52921644066846       -2.34385405953611
H          -40.45091877428741       18.47006236054499       -2.69146872909190
H          -39.52449146776523       16.95154960537060       -2.47091591926412
N          -40.09707310761488       19.20068854903057       -0.02029115244726
H          -40.05751586383577       20.11434136933012       -0.43383739076034
C          -39.91492692248709       18.02013785627188       -0.69512384884720
C          -40.31574256840759       18.92032373436269        1.26662868697329
H          -40.49481644187914       19.66579831841187        2.02563434352676
N          -40.26411113678216       17.61937314647762        1.45216022805513
C          -40.02462269458196       17.03546231847976        0.23380311717078
H          -39.93738461542118       15.96750603529196        0.13181975679318
87
 energy: -128.421816502231 gnorm: 0.053608026510 xtb: 6.7.1 (edcfbbe)
Fe         -39.68769207156283       16.96692880182860        3.49296158563107
N          -41.47473391142844       17.70160781879274        3.78530781378754
N          -40.45128438900808       15.23080940358626        2.98753533406931
N          -37.68107184976424       16.21446569073878        3.23330633415839
N          -38.74141598363433       18.70554186640629        4.03053552667743
C          -41.75594712946950       18.99037237430136        4.14853724941166
C          -43.16151278283595       19.28598733695017        3.92046026943614
C          -43.72913792291961       18.15519714011976        3.41324997980086
C          -42.66255261206113       17.17692116477063        3.35874462932283
C          -41.76901311157307       14.95946404231075        2.83635324162639
C          -41.99012819973974       13.56148779126437        2.55980889624382
C          -40.74904410119325       12.96469002092707        2.53630450559090
C          -39.79363568152848       14.05107348978947        2.77613169841097
C          -37.46415952150177       14.91519009477663        2.93178222609518
C          -36.05051603889041       14.67936976238075        2.80625554731883
C          -35.38082214349363       15.85623764073915        3.05117632792782
C          -36.45789330800033       16.83147897785607        3.33576668836706
C          -37.40365494000844       19.00847253714915        4.10837922045900
C          -37.25156096289042       20.33867012337170        4.67151594350374
C          -38.49339488344327       20.80865099372272        4.93695277818050
C          -39.41935034159756       19.77906139889267        4.53752707914976
C          -40.81208261162159       19.89080135032315        4.62096231122630
H          -41.20132206502293       20.78956195436181        5.08239949800610
C          -42.81227024348492       15.87395657740555        2.93282059162630
H          -43.80283356319566       15.54468886619975        2.66844958927695
C          -38.41425562887369       13.90193221986697        2.77129857126049
H          -38.03659283347947       12.89834246345034        2.61369694960433
C          -36.33720451538711       18.16661729396901        3.72010256201105
H          -35.33213287351379       18.58190979420352        3.73276445855172
C          -45.15426874349293       17.99008247349298        2.97940361546273
H          -45.55733829296084       18.93348401637338        2.60767007318969
H          -45.78869053731956       17.67532085184648        3.81126536531282
H          -45.24946993521551       17.25247615670178        2.18584976151750
C          -43.87814020833382       20.58525622669713        4.10254859489864
H          -44.16095295156302       21.00287734526564        3.13289664218548
H          -43.26310816173395       21.31203878158952        4.62059803673325
H          -44.79664828387607       20.43033187824301        4.66924921502782
C          -43.36360012358495       13.00440620862956        2.37675618299468
H          -43.94640511710604       13.61027659823141        1.68188131405073
H          -43.90194729906398       12.99412431538072        3.32802233523028
H          -43.33254295649381       11.99438578230160        1.98451882920041
C          -40.41986532163333       11.55682565765987        2.33783698718197
H          -39.42071946838531       11.31729269277504        1.97164807711321
C          -41.23676594713143       10.54159613473915        2.58009282802090
H          -42.22827323284691       10.69239122493239        2.97106086144250
H          -40.96680324105565        9.50671259500809        2.41571699380497
C          -35.37424848106053       13.41443548530974        2.39310487351222
H          -36.08046016629298       12.68193501217181        2.02550394297207
H          -34.83078744751397       12.98461433244170        3.23699099863557
H          -34.65539236078809       13.62583493722926        1.60092730596499
C          -33.90483458169324       15.76741021791771        3.00332831892660
H          -33.55725627785078       14.76350594018828        3.25106958064464
C          -32.92068572455543       16.58058739155724        2.63400102374115
H          -33.06844682737469       17.59904079691036        2.32654652340282
H          -31.89305149498341       16.22872860026770        2.62318132245588
C          -35.98747366714708       21.11790212379238        4.93266780685451
H          -35.91339788284167       21.96840922228476        4.24727180133296
H          -35.07831846966804       20.52955259679562        4.82203700872504
H          -35.99487674513198       21.52943993447685        5.94522254671960
C          -38.82653450304169       22.16835004387657        5.49656432694541
H          -38.16908640189432       22.92059441222300        5.05718045257355
H          -38.67844071982224       22.20458763865301        6.57998919721065
H          -39.85347227085931       22.48125496770938        5.30057245180682
C          -39.55788759505194       17.00338712303940        9.02200069459916
H          -38.75696052340263       16.51511715010769        9.57419113646571
H          -40.50762040039692       16.77025644434304        9.50005450898767
H          -39.40091096598625       18.07671671168330        9.04886901525134
N          -39.73950432708825       15.22529873992309        7.27078278684618
H          -39.90801448535327       14.47030373792869        7.91327391968857
C          -39.56005329902784       16.53829739871641        7.61613832762833
C          -39.67543552510825       15.13876186478248        5.92371324757754
H          -39.75975630327616       14.21474737652519        5.38663976826648
N          -39.48419028240202       16.32442387703494        5.40004581900372
C          -39.38866527785275       17.20062595645544        6.43960580191489
H          -39.20206486909274       18.23780266378048        6.26516646320632
C          -39.63407461043361       17.98857931050602       -2.15200348735666
H          -38.70881822158515       18.52459885181841       -2.35914366934979
H          -40.44393354444140       18.46253242599030       -2.70371849253435
H          -39.52673289028400       16.96058637863898       -2.47778538022890
N          -40.10168451894125       19.20560578542092       -0.03349983856567
H          -40.06897428794073       20.12245489358190       -0.44614263589712
C          -39.91174426564928       18.02388459790413       -0.69872682928455
C          -40.29142581332428       18.91523121100328        1.26838394940074
H          -40.48324527463815       19.65354928067587        2.02031686297438
N          -40.20938449370227       17.62479840418398        1.47170780162960
C          -40.00449921672049       17.04847816031527        0.25187138969981
H          -39.93089894285998       15.98441007151193        0.14299623755183
87
 energy: -128.432914578074 gnorm: 0.028690613696 xtb: 6.7.1 (edcfbbe)
Fe         -39.66376555539756       16.95079052287928        3.49962193239578
N          -41.47198162679749       17.71120474515080        3.78653429977043
N          -40.45555013554281       15.21723510489357        2.99242949395818
N          -37.69185191485980       16.21023016142203        3.18748432548672
N          -38.74638353486601       18.72077528662257        4.00615385831236
C          -41.74788663020527       18.99298537329837        4.15171214976787
C          -43.15079802687538       19.28738563590766        3.93294307588749
C          -43.71406407592168       18.15483604662676        3.41996923094097
C          -42.65297785357193       17.17868215553305        3.35786739046638
C          -41.77507317358810       14.95002658421347        2.84158943275919
C          -41.99584839174278       13.55675640449782        2.56472134015153
C          -40.75658671030845       12.96290905615408        2.54397468848128
C          -39.80074488266582       14.04699233414493        2.77754747587131
C          -37.46618915462036       14.90896015828302        2.90893659079503
C          -36.05746991957377       14.66889869048981        2.79537234316789
C          -35.40437889718398       15.85906176668324        3.04144378747904
C          -36.47981710085646       16.82912161363067        3.30698336164735
C          -37.41218348254142       19.00775873179790        4.08459428980313
C          -37.24380977684313       20.33517455384901        4.65084255946729
C          -38.49030330019871       20.81332403373793        4.92750757995108
C          -39.41964707141266       19.78784445142720        4.52186517796575
C          -40.80466085453403       19.90274097779363        4.60976562160592
H          -41.18893161947872       20.81747361957867        5.04390581048466
C          -42.80919620121053       15.87256333747523        2.93800946456573
H          -43.80419793978743       15.54408398343305        2.68438082464711
C          -38.42272589470963       13.90449456031344        2.76200931741409
H          -38.04489906917905       12.90495268978277        2.60073760157227
C          -36.36104570454225       18.15872128821823        3.70834216420663
H          -35.35434748661240       18.56305741097186        3.76364612700158
C          -45.13116667581490       17.98326851728386        2.98674882723849
H          -45.53037672595072       18.92765763971545        2.61736328832705
H          -45.76267604344168       17.66587678094593        3.81891558432301
H          -45.22486092837121       17.24480922117316        2.19424620285525
C          -43.86380990028423       20.58594229914127        4.11644299393599
H          -44.14550069459015       21.00079119952522        3.14594580229460
H          -43.25356545612073       21.31803592661858        4.63361338774381
H          -44.78241797851372       20.43390760062887        4.68219163256435
C          -43.35920553645225       12.99726361887809        2.36447882268410
H          -43.93186217886944       13.62139866469137        1.67875975519548
H          -43.89416022105329       12.97621713666644        3.31636737693046
H          -43.33320137012786       11.99423078587912        1.95481101152089
C          -40.42519469138102       11.57428079394773        2.34162421359830
H          -39.42576507491219       11.36188529030155        1.97175355775283
C          -41.22638522141997       10.54071460132780        2.58959819095709
H          -42.20993113190935       10.66403629465979        3.01253945120266
H          -40.93623648203379        9.51899916167061        2.40556977459194
C          -35.38804464147670       13.39854310461869        2.39122055116600
H          -36.09613271160755       12.66503761257879        2.02518365661046
H          -34.84496794969545       12.96405719979848        3.23250159433767
H          -34.66846015938837       13.60065378757433        1.59844397721976
C          -33.94371966043625       15.80695056080882        3.02842684172567
H          -33.59479229998774       14.81068994781580        3.29321032590791
C          -32.97417407342930       16.63449872254979        2.65441370155707
H          -33.12368300300248       17.64398980973887        2.31759129037342
H          -31.94942372602631       16.28573231831820        2.63819077206552
C          -35.98673614459192       21.09919355136655        4.91940836244362
H          -35.91486340183851       21.94917857382532        4.23661319388485
H          -35.09311320256622       20.49402314131535        4.80729718873700
H          -36.00368564992011       21.50202499093746        5.93320319072526
C          -38.81889085121099       22.15757272676809        5.49320560203481
H          -38.16423991660893       22.91181220753558        5.05688202988817
H          -38.67278488834335       22.17815630205753        6.57472463338111
H          -39.84799515746712       22.44606305300204        5.29032162209008
C          -39.55439357232073       16.99513612196640        9.03934557610713
H          -38.75378038879451       16.51525580379446        9.59892636292001
H          -40.50332997246563       16.76706559013207        9.52092378435150
H          -39.40211583218739       18.06901818371833        9.05831535118782
N          -39.73548166476183       15.21541140816187        7.28235114986210
H          -39.89460354757060       14.45323393850567        7.92015496717696
C          -39.55876394838251       16.52685033510940        7.63382150763980
C          -39.69168359170445       15.14484327933143        5.92981090710866
H          -39.77628313760839       14.22711542542017        5.38562692116086
N          -39.50958521760024       16.33352444412189        5.41007975655756
C          -39.40714642162310       17.19741957500305        6.45881058517172
H          -39.22454117428737       18.23639666819706        6.29926912560776
C          -39.63941227658567       17.98646808674049       -2.16439899742330
H          -38.71739052043943       18.52302535338361       -2.38550101078748
H          -40.45066686074134       18.45355791297697       -2.71929353181138
H          -39.53018819676278       16.95843985136220       -2.48852170642554
N          -40.10000745963506       19.21204161637109       -0.04477075183261
H          -40.09173362812387       20.12807410180768       -0.46279465604520
C          -39.90212974475472       18.02789461484802       -0.70505822008806
C          -40.24589666992345       18.92409843713780        1.26751843463685
H          -40.44901031504148       19.65970299341754        2.01748630189839
N          -40.13255816520149       17.63805991522653        1.48081796478143
C          -39.95588027933197       17.06012730094004        0.25980895677080
H          -39.89007767968008       15.99670461985037        0.15357149758500
87
 energy: -128.440867890575 gnorm: 0.020903377558 xtb: 6.7.1 (edcfbbe)
Fe         -39.64052906180040       16.94238360409850        3.49233548407320
N          -41.46605167715055       17.72307014986564        3.78214604822757
N          -40.46070184278768       15.21010167253710        2.99633866943556
N          -37.71974089406877       16.20040274731697        3.17091622580756
N          -38.75236751386561       18.71423762870956        4.00578955906858
C          -41.73907914323703       18.99956471484991        4.15048533109839
C          -43.14031717287101       19.29129921458043        3.94538627770494
C          -43.69824630771515       18.15812358989086        3.43012480665702
C          -42.64197190063904       17.18280727863492        3.35978816014747
C          -41.78362207746923       14.94662718057874        2.85088626128653
C          -42.00288444498432       13.55490899620596        2.57302891243239
C          -40.76584003680107       12.96200132289613        2.55372927262418
C          -39.80954892458085       14.04137496025505        2.77794217355189
C          -37.48134079761333       14.89910913129733        2.88227083444319
C          -36.07344689175066       14.66033624403686        2.78382680913644
C          -35.43985968811347       15.86040065011529        3.03443898483612
C          -36.51309378707279       16.82192511241494        3.28608401734574
C          -37.42158594968743       18.99723245354972        4.07040227442373
C          -37.23867681171074       20.32275790216420        4.63420097802400
C          -38.48517823120017       20.81054639372127        4.90930619751627
C          -39.42017469958861       19.78914316422689        4.50720190427060
C          -40.79693867018285       19.91911213220508        4.59052942333795
H          -41.17539560794964       20.84873515853207        4.99718499107467
C          -42.80689972057423       15.87498415859989        2.94976030829564
H          -43.80680142997677       15.54734728787777        2.70817739981897
C          -38.43631380676072       13.89957015950966        2.74335987835045
H          -38.05691941185741       12.90294371024750        2.57906246442572
C          -36.38602570332468       18.14449909271085        3.69941193085317
H          -35.37865273256880       18.53567623936880        3.78701175851695
C          -45.11255015778931       17.97765221977935        2.99693930133150
H          -45.51257001328916       18.92095167173181        2.62748071594113