78
 energy: -115.980578205424 gnorm: 0.272834536893 xtb: 6.7.1 (edcfbbe)
Fe          35.31800000000000        4.43100000000000       10.28900000000000
N           37.18000000000000        4.13400000000000        9.72800000000000
N           35.03400000000000        5.57800000000000        8.72600000000000
N           33.48400000000000        4.78700000000000       10.89500000000000
N           35.60100000000000        3.26000000000000       11.83600000000000
C           38.13300000000000        3.32800000000000       10.32300000000000
C           39.37300000000000        3.32900000000000        9.56800000000000
C           39.18000000000000        4.15300000000000        8.51500000000000
C           37.82500000000000        4.64900000000000        8.62200000000000
C           35.93500000000000        5.92000000000000        7.74000000000000
C           35.34600000000000        6.81100000000000        6.76200000000000
C           34.06200000000000        7.01400000000000        7.14900000000000
C           33.88700000000000        6.26600000000000        8.37600000000000
C           32.55800000000000        5.62700000000000       10.32900000000000
C           31.37100000000000        5.75100000000000       11.15400000000000
C           31.57400000000000        4.95500000000000       12.23600000000000
C           32.87700000000000        4.35400000000000       12.04800000000000
C           34.71800000000000        2.98200000000000       12.85500000000000
C           35.30700000000000        2.13000000000000       13.85500000000000
C           36.57599999999999        1.90600000000000       13.46800000000000
C           36.74600000000000        2.58600000000000       12.20100000000000
C           37.92499999999999        2.60600000000000       11.47900000000000
H           38.75399999999999        2.00500000000000       11.85200000000000
C           37.24100000000000        5.48500000000000        7.69900000000000
H           37.85999999999999        5.83000000000000        6.87100000000000
C           32.74000000000000        6.29300000000000        9.13800000000000
H           31.90800000000000        6.89100000000000        8.76700000000000
C           33.45200000000000        3.49500000000000       12.94500000000000
H           32.85100000000000        3.19400000000000       13.80300000000000
C           40.17200000000000        4.46600000000000        7.40300000000000
H           39.82200000000000        4.00600000000000        6.45400000000000
H           41.16899999999999        4.04800000000000        7.66000000000000
H           40.24600000000000        5.56600000000000        7.26500000000000
C           40.61500000000000        2.48200000000000        9.84800000000000
H           40.33499999999999        1.61000000000000       10.47700000000000
H           41.36999999999999        3.09000000000000       10.39000000000000
H           41.04099999999999        2.11300000000000        8.89100000000000
C           36.03200000000000        7.39000000000000        5.52800000000000
H           36.80400000000000        6.67900000000000        5.16500000000000
H           36.52300000000000        8.35200000000000        5.78800000000000
H           35.28300000000000        7.55100000000000        4.72300000000000
C           33.06600000000000        7.69200000000000        6.44400000000000
H           32.12400000000000        7.17800000000000        6.20300000000000
C           33.21500000000000        9.06900000000000        6.00500000000000
H           34.13800000000000        9.62700000000000        6.22100000000000
H           32.40700000000000        9.56900000000000        5.45100000000000
C           30.15300000000000        6.62100000000000       10.85300000000000
H           30.13000000000000        6.86500000000000        9.76900000000000
H           30.21400000000000        7.56600000000000       11.43300000000000
H           29.22500000000000        6.07200000000000       11.11900000000000
C           30.72500000000000        4.72800000000000       13.32900000000000
H           30.87100000000000        3.82400000000000       13.93800000000000
C           29.64400000000000        5.62100000000000       13.72200000000000
H           29.44600000000000        6.54200000000000       13.15400000000000
H           29.01300000000000        5.38500000000000       14.59100000000000
C           34.61500000000000        1.56400000000000       15.08700000000000
H           33.65600000000000        1.09000000000000       14.78900000000000
H           34.40400000000000        2.38200000000000       15.80800000000000
H           35.26300000000000        0.79700000000000       15.56200000000000
C           37.66300000000000        1.23900000000000       14.29800000000000
H           37.64700000000000        0.14300000000000       14.11800000000000
H           37.48100000000000        1.43000000000000       15.37700000000000
H           38.65700000000000        1.63700000000000       14.00400000000000
O           35.92400000000000        6.09800000000000       11.41800000000000
H           35.11899999999999        6.53800000000000       11.69100000000000
H           36.75400000000000        6.35300000000000       11.61000000000000
C           32.52000000000000        0.21100000000000        7.70500000000000
H           32.71000000000000       -0.76700000000000        8.19600000000000
H           32.57600000000000        0.07800000000000        6.60300000000000
H           31.50900000000000        0.56900000000000        7.99400000000000
N           34.89700000000000        1.00700000000000        7.92800000000000
H           35.28300000000000        0.24800000000000        7.40400000000000
C           33.55100000000000        1.20000000000000        8.14700000000000
C           35.58000000000000        1.97300000000000        8.51500000000000
H           36.66600000000000        2.05900000000000        8.50000000000000
N           34.72500000000000        2.79000000000000        9.10500000000000
C           33.44700000000000        2.33200000000000        8.88400000000000
H           32.58400000000000        2.85700000000000        9.27300000000000
78
 energy: -116.033659197388 gnorm: 0.104042593414 xtb: 6.7.1 (edcfbbe)
Fe          35.31402073193776        4.41249298603882       10.27267917006089
N           37.20201570098567        4.13294911108917        9.72437126459699
N           35.03558736009154        5.59871097624112        8.71556827179045
N           33.46847749884929        4.79760684792031       10.90488545273545
N           35.60690747621255        3.25321166994094       11.85190538132293
C           38.13706185981528        3.32322508082501       10.32032170293570
C           39.37287169515148        3.31559480007183        9.56551415656613
C           39.18309438218967        4.14995439348952        8.51084630439776
C           37.83065859561049        4.64576945310089        8.61891395400375
C           35.93975401895403        5.92739996589371        7.73951198789323
C           35.35825321611809        6.81380032344684        6.76032728304482
C           34.06517325783376        7.01895230608633        7.14444574140440
C           33.88536242499092        6.25896023870718        8.36725949965313
C           32.55153087961553        5.63587589121462       10.32757374770897
C           31.36769232147975        5.76472331721130       11.14183300147696
C           31.56070556890820        4.96484728574748       12.23839614121046
C           32.86799669925335        4.35687130983067       12.05170948078746
C           34.71584086836627        2.97237839625628       12.85399830309639
C           35.30539177341425        2.12424363977556       13.85851151319378
C           36.58818804880161        1.91299588999119       13.47462760296255
C           36.75447926530884        2.59562961235481       12.20971491064019
C           37.92797383449135        2.60568649382743       11.48092629774049
H           38.75169798762364        2.00910877777368       11.85380181359542
C           37.24630471445547        5.48652580416617        7.69608265159959
H           37.86159041019890        5.82825398154891        6.87303998690761
C           32.73579939077388        6.29257353817733        9.12635952324673
H           31.91489908386304        6.89620432875186        8.75898666279653
C           33.44302932192950        3.48613534416094       12.94790504265327
H           32.85351304288371        3.19383811217713       13.80742099150288
C           40.15948722731230        4.46625873907156        7.41029523146625
H           39.82662790578822        4.01762076662918        6.46586563588503
H           41.14705652619929        4.06199227269456        7.65509166632391
H           40.24674618052794        5.54858086458525        7.26630153820818
C           40.59982028270493        2.48679726498414        9.85252463504612
H           40.34292822282698        1.62073509278831       10.46961206469080
H           41.35668629716332        3.07875004895651       10.38122740424342
H           41.03314816840985        2.12272889871915        8.91418397262585
C           36.03349970786496        7.37842916698615        5.53998590966708
H           36.79667730865845        6.68888419771569        5.16620840095804
H           36.51648026964924        8.33291850930477        5.78118618458641
H           35.29630979153959        7.55224943911009        4.74706858573647
C           33.05778204008514        7.74417416945870        6.43725676493955
H           32.12619347936276        7.22380927403972        6.21130452615897
C           33.20831004055837        9.02720032668520        6.00876409555874
H           34.11009986965539        9.59015645283158        6.22469971888096
H           32.42216980432074        9.53760688054614        5.46418148778153
C           30.16690546697655        6.61599587434119       10.83810039080455
H           30.12698038030149        6.86635390154529        9.77498101674349
H           30.21291208176672        7.55029194265581       11.41208744227128
H           29.24807358038214        6.08134022559685       11.10784053534009
C           30.68965267648879        4.75185324262653       13.34397117720185
H           30.85021696172278        3.85679968622740       13.94389251081738
C           29.67095638088215        5.58676992514670       13.71460721000634
H           29.46986412799157        6.50830524633093       13.18562486864616
H           29.04376739769970        5.36757474074333       14.57021184757605
C           34.61572853794620        1.57218078725167       15.07628899771580
H           33.66850148104582        1.09869219596057       14.79487072031399
H           34.40409704285979        2.36861933926272       15.79927780332358
H           35.24799681817461        0.81686617661035       15.55395712416222
C           37.66027169953215        1.23629373660676       14.28368461319728
H           37.65329605722945        0.15225182560763       14.11864984608580
H           37.48910032283045        1.42388948873216       15.34973682282379
H           38.64515129970199        1.62681624372716       14.01280747225453
O           35.90563025991681        6.09581008771465       11.41702500573089
H           35.12291988690463        6.56197735219156       11.70767170072851
H           36.77815035043200        6.37589548551944       11.62621052979858
C           32.52133523876598        0.20972548148628        7.70092330542056
H           32.69995035535168       -0.75878478947336        8.18300186369864
H           32.56500353455826        0.07353972385739        6.61453421184331
H           31.52637272933291        0.56258509771362        7.98364990982608
N           34.88690594787332        0.99206117388440        7.92288225598132
H           35.27819975392329        0.23168212839129        7.39560912821339
C           33.54815643612191        1.18848877131024        8.14824213951743
C           35.56705566133633        1.97799695211727        8.51915107818038
H           36.64060333126418        2.06492961793795        8.50423769436483
N           34.72963467635788        2.79916076450730        9.11270508373147
C           33.46418723114024        2.32934336193156        8.88839434396339
H           32.60652774045287        2.85128197101359        9.27097568543480
78
 energy: -116.043416918193 gnorm: 0.043746389975 xtb: 6.7.1 (edcfbbe)
Fe          35.31126810421019        4.40028193400177       10.26032359843938
N           37.21882397572139        4.12591870019960        9.71630922402468
N           35.03519453067289        5.60752950801187        8.69917762850407
N           33.44878670786909        4.79947314122275       10.90638510955298
N           35.60835695911312        3.24246543440701       11.86201987779557
C           38.13919326778823        3.31653574480138       10.31509725661461
C           39.37192526431723        3.30113660182060        9.56064744263013
C           39.18554941233887        4.14322591662773        8.50614227707713
C           37.83559367167838        4.64047417758563        8.61526391592258
C           35.94424577123634        5.93168980513942        7.73738348288706
C           35.36434735247545        6.81307136574432        6.75586948560846
C           34.06707724901938        7.01078799478827        7.13661915438226
C           33.88725186104374        6.25451981638660        8.35982965524812
C           32.54477516085735        5.64110414719051       10.32245025659142
C           31.36442377610842        5.77230162305894       11.13085840639526
C           31.55329218166913        4.97062654366545       12.23308481096077
C           32.85964426820367        4.35962107760514       12.05176000947077
C           34.71184692954566        2.96358114899168       12.84996962606963
C           35.30425703954325        2.11955755506113       13.85916033399426
C           36.59667953494969        1.92151984796979       13.48139794825679
C           36.76024306498231        2.60661294738259       12.21851000635709
C           37.93097507235700        2.60892335310287       11.48464365363809
H           38.75248811406407        2.01752137596961       11.86029667243832
C           37.25276987217245        5.48904059896647        7.69471624237810
H           37.86681375296517        5.82742167740232        6.87439017523068
C           32.73380870098993        6.29349817949269        9.11515612990923
H           31.92188217844372        6.90122079257932        8.74484298987516
C           33.43437188537184        3.47893802029397       12.94733464731052
H           32.85318782530175        3.19155887905618       13.80971129247562
C           40.15035433580996        4.46718171150461        7.41519404904490
H           39.82331771867765        4.02829920966312        6.47181278798563
H           41.13413417956318        4.07186623581196        7.65366563386695
H           40.23844638877522        5.54223163767758        7.27402996206307
C           40.58860659572814        2.48813430414556        9.85733125852264
H           40.34320420163406        1.62641658596697       10.47073925934559
H           41.34014097272651        3.07883900554490       10.38148276903805
H           41.03078050672415        2.12899254668392        8.92939868646834
C           36.03681298970012        7.37155244889646        5.54926945449913
H           36.79221036768528        6.68992754655554        5.16771753670823
H           36.52086915577918        8.32014657188535        5.78241023205042
H           35.30184739282630        7.55512013915708        4.76715423230087
C           33.04985664542331        7.77297339995787        6.43591143321922
H           32.11918949416533        7.24831874131680        6.23893872220545
C           33.19826670298539        9.00699969106707        6.02326745873885
H           34.09752153978867        9.56705739028040        6.21802872575104
H           32.43204637345779        9.52218432405159        5.46859272082190
C           30.17701257398718        6.61327612099889       10.81836105552866
H           30.13057011747258        6.86391964534838        9.76406096937176
H           30.21254774543763        7.54532914002094       11.38523021018224
H           29.26406398819350        6.08483442796393       11.09004874092175
C           30.67062722990855        4.76511679554850       13.35301652476548
H           30.84630430035908        3.86852597088571       13.93709032518085
C           29.69511374387185        5.56726054092733       13.72581504422835
H           29.48047261397484        6.49202397148811       13.22525610864204
H           29.06200697689830        5.34115214846304       14.56598477035316
C           34.61531451215977        1.57974534071993       15.06730320148301
H           33.67291754197981        1.10930530589277       14.79226742153422
H           34.40284171930598        2.36945571281924       15.78731074608003
H           35.23935452688043        0.83223162035734       15.55031835529030
C           37.66078679529167        1.23311709891969       14.27042198721726
H           37.65418055958294        0.15623966523574       14.10415013112223
H           37.49803622223180        1.41136592960042       15.33203736720493
H           38.64305808085451        1.61635377348495       14.01079495356507
O           35.89893261031842        6.10423654863516       11.42550581274394
H           35.14841656237685        6.61076747324314       11.74250784747017
H           36.78022916894877        6.40193712943244       11.64341908334539
C           32.51843705740055        0.21182812636427        7.69835696364741
H           32.68664201409433       -0.75604510218482        8.17011964712365
H           32.55736345420092        0.07657832623723        6.61928900510828
H           31.53160591383247        0.56435375988205        7.97507913892702
N           34.88055753862952        0.97866530020472        7.92322501368986
H           35.27437946281587        0.21869373963751        7.39282148741282
C           33.54662310847597        1.17990400094028        8.15539144531274
C           35.55950746330877        1.97786404178677        8.52357016201937
H           36.62478732116880        2.06601543104148        8.50429250014077
N           34.73712774261340        2.80207771235438        9.12433637479102
C           33.47970555652695        2.32493558206846        8.89898182093076
H           32.62379673043790        2.84253532298949        9.27833955199637
78
 energy: -116.046124474475 gnorm: 0.017084531529 xtb: 6.7.1 (edcfbbe)
Fe          35.31273268750324        4.40158168796822       10.25952098947221
N           37.22327303366119        4.12316460802775        9.71304194781071
N           35.03828585065949        5.60903041794278        8.69441695089758
N           33.44214050122076        4.79973319153985       10.90284093266877
N           35.60963226385815        3.24253482599732       11.86496354913561
C           38.13885553945046        3.31260005305560       10.31204243059328
C           39.36993671447182        3.29263641172882        9.55668977043417
C           39.18520441775902        4.13631249990185        8.50288774577129
C           37.83674311481377        4.63568627251214        8.61201424913803
C           35.94749758545219        5.93128302294046        7.73524084334936
C           35.36506898192039        6.81106370057950        6.75312560815494
C           34.06746685210467        7.00402913706270        7.13441418107927
C           33.88973369402358        6.24996874200999        8.35622633643300
C           32.54206935567730        5.64058073759821       10.31577849484953
C           31.36217391954613        5.77330514841799       11.12304083798530
C           31.55174043848420        4.97126129682280       12.22515205537170
C           32.85603727872829        4.35948325432149       12.04685196871288
C           34.70974633106324        2.96152190299179       12.84589974456772
C           35.30463902874943        2.12083223904552       13.85780438437332
C           36.59927927988696        1.92763437363488       13.48380694291447
C           36.76312767605130        2.61495757669188       12.22278101588381
C           37.93312678864134        2.61389503591641       11.48784597347598
H           38.75633998364230        2.02860012520051       11.86862944159128
C           37.25630187821724        5.48813057300648        7.69281935633483
H           37.87217970088806        5.82718850605458        6.87433253995482
C           32.73352845987124        6.28980642647491        9.10682553903247
H           31.92696839315540        6.90190070962083        8.73210210007999
C           33.43011033210350        3.47473522657282       12.94156463467598
H           32.85123632891334        3.18831840638502       13.80590289077636
C           40.14674213179666        4.47006708264645        7.41499960970125
H           39.82035998749213        4.03875088971728        6.46810203805390
H           41.13246807429978        4.07868523446566        7.64939293384013
H           40.22962202185496        5.54645873881586        7.28229050438265
C           40.58614710644822        2.48683365138194        9.86368815339218
H           40.34294667775575        1.62518233310300       10.47783397054983
H           41.32946515887902        3.08386085763971       10.39181801508681
H           41.03886496106921        2.12887428616761        8.94078975149742
C           36.04080728838970        7.36884125097112        5.55056453890513
H           36.78919829907706        6.68332148409002        5.16199660600104
H           36.53533782458936        8.31085973505117        5.78739430014855
H           35.30457700373591        7.56550567091017        4.77355157427173
C           33.04152801149515        7.77056208567726        6.44318828916313
H           32.09998525143181        7.25352091921340        6.27799300451465
C           33.20322539413303        9.00863701433657        6.00223614726397
H           34.10437263118135        9.56506392869070        6.19478690977180
H           32.42587329023380        9.53547089715619        5.47502308074041
C           30.17760577737833        6.61128486043712       10.79664418825486
H           30.13529998866865        6.85383588048763        9.73989306555577
H           30.20871630183586        7.54898095779659       11.35370071875949
H           29.26446356840544        6.08527526145980       11.06897665772087
C           30.67075989016158        4.75462469542672       13.34846367770257
H           30.85509921173959        3.85186185409659       13.91956493235377
C           29.68842943749904        5.55639444366741       13.74675729327459
H           29.47929021578426        6.50183590114953       13.27954867828241
H           29.06961185769164        5.31589158602902       14.59347306741562
C           34.61161806944772        1.58735942868473       15.06390955932454
H           33.66927076742422        1.11783576530133       14.78814406833285
H           34.39700500807263        2.38076064490358       15.77905338712653
H           35.23233649696474        0.84249034493583       15.55425141300849
C           37.66313350209143        1.22466861311335       14.25870630643370
H           37.65130765067192        0.15019920260770       14.07768397892409
H           37.50815819391686        1.38859282105544       15.32347907489131
H           38.64730147910433        1.60468636111193       14.00135357147282
O           35.90091129571497        6.12324780842027       11.44209402151112
H           35.17287084093016        6.65641972224408       11.77493643710613
H           36.78296343578625        6.42681838363098       11.65897291959054
C           32.51171320241243        0.21749757425795        7.69723535254227
H           32.66844917661574       -0.75716178311452        8.15928411005501
H           32.55193328833892        0.08983896520732        6.61721455890302
H           31.52618710423492        0.57513223730124        7.97096916402926
N           34.87785762979083        0.96960966840058        7.92877124366118
H           35.26916263430385        0.21042491144837        7.39473375611211
C           33.54544899353198        1.17487055807715        8.16631120162129
C           35.55987866535371        1.96971002569808        8.52871200857524
H           36.62403149065086        2.05843794462044        8.50241695269888
N           34.74405538973221        2.79587799930004        9.13590630711975
C           33.48661548271431        2.31748353881210        8.91535990278181
H           32.63181642864951        2.83294165337417        9.29826554205475
78
 energy: -116.048030438013 gnorm: 0.016633604831 xtb: 6.7.1 (edcfbbe)
Fe          35.31447445942187        4.40258196433104       10.25844513884856
N           37.22806934787654        4.12138426177671        9.70948631454713
N           35.04099200140025        5.60576356654186        8.68595797564018
N           33.43243536185151        4.79614531360749       10.89561262014859
N           35.61185048625451        3.24527291240613       11.86836865756996
C           38.13892041092857        3.30972477001465       10.30866623899170
C           39.36897197984540        3.28390202595183        9.55180066142809
C           39.18569563339305        4.12769359765422        8.49798518260359
C           37.83793963204648        4.63018416538694        8.60728120673792
C           35.95090653990690        5.93052282860860        7.73078069207047
C           35.36688506610759        6.81373135983628        6.74997505002656
C           34.06859734167833        6.99965256882791        7.13187365538935
C           33.89179689299853        6.24148835268314        8.34975238758431
C           32.53677678909780        5.63675057321527       10.30644180663124
C           31.35678571857957        5.77308004272460       11.11469481197244
C           31.54896708255485        4.97230759888867       12.21620787621582
C           32.85061565269124        4.35790024819428       12.03948868710558
C           34.70891964356343        2.96329532818686       12.84219259796272
C           35.30507157339677        2.12281875700995       13.85626945687120
C           36.60145824826552        1.93546616879957       13.48726589203155
C           36.76611372232639        2.62504879406392       12.22710835068813
C           37.93612769397718        2.62190216643387       11.49201373022008
H           38.76224738470697        2.04517466697847       11.87959001391320
C           37.26017232277407        5.48691409097996        7.68930566201863
H           37.87889768051489        5.82758462239273        6.87340164405931
C           32.73227043741367        6.28207002115983        9.09581609993074
H           31.93272138872879        6.89935649774749        8.71469375600001
C           33.42637940941999        3.47188338107772       12.93420696277883
H           32.84920463823774        3.18277328447243       13.79886630945134
C           40.14458588325532        4.47404317486296        7.41250154816332
H           39.81776709074357        4.05380811374593        6.45983491389066
H           41.13406608487954        4.08590717206122        7.63977998798505
H           40.21935737226282        5.55412150936277        7.29383250608751
C           40.58637239980006        2.48592893013552        9.87268053391142
H           40.34209164387494        1.62316391408201       10.48655453137517
H           41.31669457140787        3.09177560856934       10.41138795346550
H           41.05645641872653        2.12947649688513        8.95676529176624
C           36.04700031303489        7.36981074472784        5.54973806022771
H           36.77913332214703        6.67110468780416        5.14963493329872
H           36.56548898067293        8.29839744665844        5.79513848627887
H           35.30924787141200        7.59121994871078        4.77925342823176
C           33.03143624979661        7.77307938134422        6.46096286405947
H           32.07641084465100        7.26990817989203        6.33506514681886
C           33.19840376831240        9.01171418512861        6.00338725460864
H           34.13106309743469        9.54079022494786        6.13096377776890
H           32.41873407907694        9.53727656994175        5.47815274595509
C           30.17176159624869        6.60719908479869       10.77766201156821
H           30.13359238915936        6.83007487116999        9.71427471912533
H           30.20200530489171        7.55662333337406       11.31585941106726
H           29.25694846933656        6.08735306399287       11.05807269530778
C           30.67660811318518        4.74581970005996       13.34644552215190
H           30.85369519695214        3.82353978911691       13.88770645490375
C           29.70048088650436        5.55039829545343       13.77699978896278
H           29.47106741685843        6.49265461735149       13.31588057079977
H           29.08602519589754        5.27891689108225       14.62021364444646
C           34.60515419585565        1.59764611547702       15.06134039743291
H           33.66202291625685        1.12919574219991       14.78321793775245
H           34.38765294365739        2.39974750351436       15.76781065560697
H           35.22103947009450        0.85553852437973       15.56369468288239
C           37.66503640752785        1.21096755004245       14.24278694814812
H           37.64270392487096        0.14012460666921       14.03303929662691
H           37.52086749609889        1.34878553123243       15.31416241969760
H           38.65197619233869        1.58795127650970       13.98626766802406
O           35.90595079355782        6.15244815649392       11.46833159258986
H           35.21534045594105        6.72640839547445       11.82033167663436
H           36.78562476716517        6.47092943656562       11.68145786247361
C           32.49918723034843        0.22865060943013        7.69875381253741