78
 energy: -116.057900938132 gnorm: 0.000070479453 xtb: 6.7.1 (edcfbbe)
Fe          35.32850842200973        4.44390142113816       10.37004805595981
N           37.22079106731240        4.11946025781321        9.76400346001731
N           35.03035402227854        5.62360801816500        8.76295517337106
N           33.47174937677760        4.81815228510062       10.99382781529524
N           35.65899608552450        3.32076945522545       11.98167776129432
C           38.15980714882163        3.35694960588990       10.38627141158969
C           39.38664531736188        3.33232444935207        9.62328778111445
C           39.16439819355421        4.09261830181129        8.51688047272073
C           37.80489890930548        4.57269706537267        8.61989550684627
C           35.90814562000863        5.86873520200439        7.74988000437913
C           35.31899117341105        6.73142327137045        6.75964024413191
C           34.05002438621857        7.01043727174948        7.19622391258451
C           33.89022001185826        6.29182657452110        8.44459684606991
C           32.54824648942862        5.61369231098815       10.38787268648038
C           31.31701412868910        5.63496734331212       11.13783862921543
C           31.51561303273155        4.82340982914012       12.22212121120358
C           32.87187108378374        4.32147910504901       12.10273498906936
C           34.76939644120047        3.03272312880289       12.96569381972425
C           35.37111846885590        2.17884534710507       13.96767584973415
C           36.64978861465445        1.95909448220572       13.56295305761550
C           36.80946395590450        2.68002736461046       12.31827106195962
C           37.98041488952413        2.68834867612391       11.58373729753818
H           38.81718796318138        2.12674198638410       11.97043101184066
C           37.20339710089225        5.38428335825000        7.67863014041082
H           37.79293931688827        5.66602946638046        6.81983043010120
C           32.73837650669169        6.31184903588196        9.20792193646674
H           31.91828233023088        6.91686446166376        8.85260628655238
C           33.46769273648370        3.48868847850075       13.03040182359457
H           32.87812960213242        3.18527667378945       13.88190457494949
C           40.08579850417230        4.41031618322919        7.38937664461053
H           39.67115144829778        4.05785676965422        6.44458185722700
H           41.05380022200186        3.93740788111838        7.53570770346010
H           40.23896853728091        5.48690942246502        7.30973816065717
C           40.61663038920042        2.59695467374047       10.03310068198797
H           40.41542876215671        1.52879947449808       10.12039484507431
H           40.97125311572342        2.95300790949650       11.00061363356489
H           41.41179011206928        2.73649842915642        9.30490231896303
C           35.97358982125726        7.15324605638395        5.49059057465715
H           36.56977062887700        6.34146859857932        5.07653720453412
H           36.63378798200408        8.00654238602884        5.65599594440658
H           35.21997685103397        7.43970741767768        4.75984629290646
C           33.02525676766764        7.81793728871699        6.57261979865059
H           32.00578864866745        7.48518115247736        6.73050998596515
C           33.23867516276003        8.91243216014906        5.84937962557880
H           34.22407238311744        9.31766034372739        5.69912758558440
H           32.42519106727071        9.45915371469219        5.40205929724843
C           30.07694190159411        6.35280517184086       10.73275549947921
H           29.93059041297623        6.29517442161160        9.65498694056298
H           30.12956495580798        7.40698473555126       11.00965845763482
H           29.21289902452884        5.91099036013454       11.22482160114888
C           30.59865470206498        4.47558096652221       13.28508935721871
H           30.69867800838645        3.47053442868597       13.67871588971357
C           29.67655578251656        5.28074989719786       13.80254267308418
H           29.56575086407677        6.30291981086381       13.48541961327000
H           29.01598101195312        4.95033205359614       14.58707490597094
C           34.66594251748231        1.68275121009528       15.18290392070671
H           33.79170588610135        1.09325364474771       14.90543650217847
H           34.32903297091549        2.51869611454467       15.79594452606547
H           35.32259230572173        1.05928390928628       15.78488457465415
C           37.72384931464232        1.15643580385831       14.21425027361880
H           38.05897863223316        0.35397360307360       13.55609962823631
H           37.36646695905254        0.71215000297172       15.13985517097372
H           38.58419337429137        1.78468011883945       14.44567868692278
O           36.12885663791513        6.31896244609606       11.41895058575514
H           35.84006247086791        7.00235522956520       10.80439445950405
H           37.07351427144420        6.19153100278577       11.27903638638729
C           32.55134057176902        0.90741827371768        7.07476998770174
H           32.06834490087284        0.04645089083638        7.53674923244843
H           33.04167176665065        0.57323866375656        6.16048769307185
H           31.78959353816179        1.63563740769502        6.81484140356172
N           34.60804611234727        0.83700697486620        8.50172585168912
H           34.83965964637512       -0.12141677372413        8.29835363350861
C           33.53160496377378        1.52365883877597        8.00420610069364
C           35.29327862634936        1.67799508145498        9.30891653218815
H           36.18530384734154        1.41073357533865        9.83692996185895
N           34.71644840198957        2.85442379159830        9.35249737996179
C           33.61927890337765        2.77384983945720        8.54613427323821
H           32.97122391714705        3.61455441486003        8.40999289007553
