78
 energy: -115.849740308251 gnorm: 0.327289706494 xtb: 6.7.1 (edcfbbe)
Fe          -5.76100000000000       57.00100000000000      111.61700000000000
N           -6.39600000000000       56.11599999999999      113.33499999999999
N           -6.72100000000000       58.73199999999999      112.16899999999998
N           -4.83400000000000       57.97999999999999      110.07400000000000
N           -4.62100000000000       55.31499999999999      111.16199999999999
C           -6.13200000000000       54.85700000000000      113.71899999999999
C           -6.68300000000000       54.59300000000000      114.94999999999999
C           -7.35000000000000       55.75800000000000      115.32999999999998
C           -7.12100000000000       56.66499999999999      114.32899999999998
C           -7.39100000000000       58.96100000000000      113.30900000000000
C           -7.89600000000000       60.25299999999999      113.34699999999999
C           -7.44700000000000       60.85100000000000      112.17800000000000
C           -6.66200000000000       59.90300000000000      111.53999999999999
C           -5.01700000000000       59.26199999999999      109.71899999999998
C           -4.21300000000000       59.64900000000000      108.63800000000001
C           -3.45000000000000       58.51100000000000      108.36999999999999
C           -3.93100000000000       57.51200000000000      109.21999999999998
C           -3.88600000000000       55.13500000000000      110.07099999999998
C           -3.57300000000000       53.80600000000000      109.89300000000000
C           -4.08100000000000       53.16500000000000      111.01700000000000
C           -4.71700000000000       54.13600000000000      111.76299999999999
C           -5.39000000000000       53.94500000000000      112.96800000000000
H           -5.32800000000000       52.94000000000000      113.38300000000000
C           -7.56800000000000       57.99900000000000      114.31300000000000
H           -8.12200000000000       58.32599999999999      115.19300000000000
C           -5.89700000000000       60.12100000000000      110.39600000000000
H           -5.99800000000000       61.11299999999999      109.95900000000000
C           -3.53300000000000       56.16500000000000      109.20200000000000
H           -2.85400000000000       55.88700000000000      108.39700000000001
C           -8.18500000000000       55.99200000000000      116.58799999999998
H           -8.19800000000000       55.06600000000000      117.20200000000000
H           -9.22700000000000       56.25100000000000      116.30399999999999
H           -7.73900000000000       56.81500000000000      117.18700000000000
C           -6.59600000000000       53.27000000000000      115.68800000000000
H           -5.57900000000000       52.84099999999999      115.56200000000000
H           -7.34100000000000       52.55799999999999      115.27199999999999
H           -6.78800000000000       53.43100000000000      116.76999999999998
C           -8.83100000000000       60.75500000000000      114.44000000000000
H           -8.40400000000000       60.50800000000000      115.43600000000001
H           -9.82200000000000       60.26400000000000      114.34099999999999
H           -8.94400000000000       61.85700000000000      114.35999999999999
C           -7.71800000000000       62.09600000000000      111.62700000000000
H           -7.16600000000000       62.37600000000000      110.71899999999999
C           -8.64200000000000       63.07299999999999      112.10499999999999
H           -8.65200000000000       64.08700000000000      111.67900000000000
H           -9.35500000000000       62.82299999999999      112.90500000000000
C           -4.11400000000000       61.07400000000000      108.05200000000001
H           -4.11700000000000       61.81600000000000      108.87899999999999
H           -4.98500000000000       61.26899999999999      107.39000000000000
H           -3.16900000000000       61.17900000000000      107.47700000000000
C           -2.43700000000000       58.28000000000000      107.41900000000000
H           -1.80100000000000       57.39800000000000      107.57700000000000
C           -2.11100000000000       59.06700000000000      106.23099999999999
H           -2.68900000000000       59.96999999999999      105.98399999999999
H           -1.28400000000000       58.76500000000000      105.57100000000000
C           -2.92100000000000       53.18000000000000      108.65299999999999
H           -1.86200000000000       53.50800000000000      108.58499999999999
H           -3.45900000000000       53.51000000000000      107.73900000000000
H           -2.95000000000000       52.07200000000000      108.73200000000000
C           -4.00000000000000       51.67100000000000      111.32899999999999
H           -3.07700000000000       51.24700000000000      110.87799999999999
H           -4.88300000000000       51.14999999999999      110.90100000000000
H           -3.96600000000000       51.51900000000000      112.42900000000000
O           -4.27100000000000       57.67600000000000      113.19400000000000
H           -4.55200000000000       57.26900000000000      114.01399999999998
H           -3.56700000000000       58.20800000000000      113.08499999999999
C           -8.94400000000000       54.77100000000000      107.61699999999999
H           -9.19600000000000       55.45200000000000      106.77599999999998
H           -9.84000000000000       54.16600000000000      107.87199999999999
H           -8.11300000000000       54.10400000000000      107.30300000000000
N           -9.19000000000000       56.51500000000000      109.51600000000001
H          -10.11800000000000       56.80599999999999      109.28599999999999
C           -8.51300000000000       55.59899999999999      108.83600000000000
C           -8.47900000000000       56.97399999999999      110.51400000000000
H           -8.81600000000000       57.72799999999999      111.22399999999999
N           -7.31500000000000       56.36399999999999      110.48900000000000
C           -7.31300000000000       55.52700000000000      109.48000000000000
H           -6.44200000000000       54.91700000000000      109.27500000000001
78
 energy: -115.918447128348 gnorm: 0.127758749978 xtb: 6.7.1 (edcfbbe)
Fe          -5.72685333789776       57.01132112898046      111.63061763417518
N           -6.39954265029804       56.11738980375453      113.31988385542574
N           -6.69726328285504       58.72319145059564      112.17543495663308
N           -4.84007250672145       57.98080175753226      110.07250180635357
N           -4.62348421127833       55.33506227103779      111.16909220509125
C           -6.12861873700756       54.84641720675965      113.71152853120410
C           -6.69673573325150       54.58172837777686      114.96786749700745
C           -7.35664289769380       55.74445242663253      115.34980711883993
C           -7.13217484895727       56.67368775567407      114.32366447125497
C           -7.39998205786423       58.94541351336981      113.31848775595419
C           -7.91629092619785       60.25333358868081      113.35362934938979
C           -7.47243396995045       60.86837587107490      112.17778538049787
C           -6.66641005262888       59.90087292461215      111.51731772875524
C           -5.02694524104881       59.27934833086915      109.72034435359345
C           -4.20513190904913       59.66223236402401      108.63754119817199
C           -3.44492730122307       58.51952826674927      108.33451820144725
C           -3.90975252507932       57.50268324805853      109.22102148025265
C           -3.89477801475743       55.14544160582699      110.05087445271114
C           -3.57078367394906       53.78405297861881      109.88452162919575
C           -4.07573615168684       53.14040163609231      111.00442905037970
C           -4.72641595352045       54.12952669066765      111.77055112000600
C           -5.38928601125685       53.92569292682940      112.97267139819303
H           -5.32798081804350       52.92926949759042      113.38602613832150
C           -7.58265678182728       57.99565573785664      114.32222349939140
H           -8.12829187410487       58.32067784557719      115.19715109068817
C           -5.91011128171605       60.13721084828407      110.37918663836817
H           -5.99171595290953       61.12503231455448      109.95293631452680
C           -3.51832256282313       56.16637481087635      109.18388495439648
H           -2.84849565572265       55.88194226834745      108.38617330090966
C           -8.17799778343221       55.98572392851273      116.58680954716506
H           -8.20099815186351       55.07947940539899      117.19895893185107
H           -9.20725614996670       56.24832222420185      116.31207682818693
H           -7.74994205227892       56.80326204378504      117.18018554749608
C           -6.59903389653470       53.27378604789227      115.69281722484664
H           -5.59692392384383       52.84584354890210      115.57007821769072
H           -7.33083508040559       52.56413754438614      115.28611290821200
H           -6.78892463875737       53.42027087471335      116.75976032631471
C           -8.82405040520010       60.75429663895544      114.43992957449925
H           -8.41113681425073       60.50994265627451      115.42524496537483
H           -9.80837230514185       60.27715725064863      114.34660601212053
H           -8.94023974548445       61.83740498107455      114.37705044859649
C           -7.73959378650075       62.14031421968992      111.63786685939904
H           -7.17813997134828       62.40417087271205      110.74250744236869
C           -8.63015974099597       63.06844949402050      112.09424229328047
H           -8.65880058872964       64.06337878841299      111.66934717420597
H           -9.33581572536020       62.83896534633461      112.88182674288825
C           -4.11407246093742       61.05883477346624      108.06224996783335
H           -4.11836673378247       61.80253160549500      108.86803086989136
H           -4.96770013829131       61.26235654462194      107.40159335900189
H           -3.18723129175484       61.17699440809985      107.49357016717211
C           -2.42112377182898       58.30272459595520      107.37721177165058
H           -1.80307913021498       57.42081466854241      107.54946809908600
C           -2.11649052766579       59.05161176134904      106.26262415855959
H           -2.68285291077583       59.93531023938702      105.99253490628209
H           -1.30483857169307       58.76270459966356      105.60297020439417
C           -2.91834599410688       53.18045379613985      108.66635296389900
H           -1.87310815228762       53.50245940427500      108.58496414501667
H           -3.44760341662020       53.50138655506388      107.75964320720236
H           -2.94792167552161       52.08850862790955      108.72834845864391
C           -3.99646620825452       51.67341492670229      111.32448503817480
H           -3.08934297909323       51.24670826957475      110.88480922420050
H           -4.86897725743257       51.15178559473941      110.91142885809641
H           -3.96752079234296       51.51717491053684      112.40846755137785
O           -4.26329519230249       57.66731162632930      113.19592881901067
H           -4.53274881577422       57.28042901333970      114.02823666223122
H           -3.52265051175736       58.23470065809785      113.10512792778123
C           -8.94959969163494       54.78164472659748      107.62169401754666
H           -9.19712943064855       55.44376588616348      106.78438258035986
H           -9.82889407160770       54.17465207045306      107.86570280038822
H           -8.13190374246490       54.12177949835047      107.31589014973895
N           -9.21326315718037       56.50792525200160      109.49873929893812
H          -10.14455377260980       56.80337264040691      109.26927336877637
C           -8.50764058190401       55.57987252565151      108.81789717852962
C           -8.48250474164043       56.97400531930970      110.51282359675041
H           -8.81316162440326       57.71919117599707      111.21535286136950
N           -7.30913692512470       56.37370254781918      110.50295163649015
C           -7.30513929776254       55.51705145106396      109.47543228028302
H           -6.44127874916558       54.91379501367691      109.27171971569072
78
 energy: -115.938525072724 gnorm: 0.056314860966 xtb: 6.7.1 (edcfbbe)
Fe          -5.69012856005583       57.02000705351347      111.63900502356734
N           -6.39946794805477       56.11327830247528      113.31031372511885
N           -6.67092475116210       58.72231851645637      112.18231065561640
N           -4.83852631399593       57.98449514187084      110.07345278557048
N           -4.62495293265164       55.34963062163822      111.17264800805137
C           -6.12700083771270       54.83535215918659      113.70408822364038
C           -6.70895129393133       54.57365856979762      114.97756969128207
C           -7.36004674856497       55.73042135345113      115.35859519094141
C           -7.13991063275486       56.67602216554319      114.31560230159403
C           -7.40203396077569       58.93319329632158      113.32200320262179
C           -7.93503907068856       60.24865408045633      113.34745104867004
C           -7.50085088863822       60.87121631370471      112.17186838641331
C           -6.67385171998932       59.89972043252180      111.49918131289571
C           -5.03366680617908       59.29160395905316      109.72311872715909
C           -4.19545759255088       59.66639609767306      108.63977210184169
C           -3.44587744615755       58.52698894393343      108.31529353291549
C           -3.89519052653972       57.49792509353705      109.22133614915886
C           -3.90338876993162       55.15500180712997      110.03579191410424
C           -3.57501354013080       53.77222757911409      109.88017010276413
C           -4.07428692292197       53.12878574862159      110.99247659106432
C           -4.73414071020328       54.12707228777336      111.77458210154541
C           -5.38917891408425       53.90681801606674      112.97453109298141
H           -5.32836863169312       52.91353432847549      113.38715429790054
C           -7.59562885275064       57.98860182970174      114.32607857852379
H           -8.14532395848809       58.30820787971408      115.19613209222099
C           -5.92424682396459       60.15320673274773      110.36276554136963
H           -5.99119245636480       61.14185175514196      109.94319873641132
C           -3.50679349312045       56.16696743999913      109.16678913462667
H           -2.84310428336427       55.87537054404127      108.37049409000036
C           -8.17028841512039       55.97862901412402      116.58412114792210
H           -8.20294399402412       55.08672972013915      117.20194219461266
H           -9.19251976389316       56.24654015497427      116.31639427196511
H           -7.75354421378853       56.79503973855373      117.17372478540855
C           -6.60553533070667       53.27639759869597      115.69973777735687
H           -5.61083938039066       52.85089337949557      115.58144832185307
H           -7.32724179732537       52.56265907408075      115.30118543622197
H           -6.79674888206248       53.41037603429523      116.75969534564666
C           -8.81715692761855       60.75180928266376      114.43767188153694
H           -8.40966460796813       60.50173898115874      115.41555295218983
H           -9.80373284427996       60.29125170487197      114.35642723316010
H           -8.93075868020559       61.82660318947411      114.39279221941405
C           -7.75830143847543       62.17257292184734      111.64573507358689
H           -7.16494039073281       62.43566694698612      110.77661777488309
C           -8.62925014343853       63.07292507281149      112.08368711863585
H           -8.68476791667412       64.05135690113431      111.64163877009047
H           -9.32146644190288       62.87102961063855      112.87769573570557
C           -4.11100167866392       61.04274622267265      108.07209778319330
H           -4.12335266071517       61.78761677958368      108.86701036157457
H           -4.95441540325721       61.24833518167944      107.40974306500810
H           -3.19298014467679       61.17182787371851      107.50905461428621
C           -2.41148581077914       58.31890496848813      107.34678117772145
H           -1.80399485177680       57.43839629064711      107.53271179133033
C           -2.12743055215322       59.03741994968010      106.27784175768944
H           -2.68444543014586       59.91033367566374      105.98987729160059
H           -1.31310642609010       58.76739029879933      105.62654486602379
C           -2.91644394002369       53.18125772948341      108.68053092894569
H           -1.87864979772569       53.50160494291180      108.59381404473103
H           -3.43747893283935       53.49621504126829      107.77547758245140
H           -2.94169295087011       52.09674408070732      108.72907661148332
C           -3.99470148176422       51.67750938898951      111.31771069868273
H           -3.09762098645215       51.24256062185363      110.88559204078041
H           -4.86103975479166       51.14824463509732      110.91882267215423
H           -3.96777313918107       51.51909125957496      112.39289794257802
O           -4.19157858051320       57.65837583332929      113.21574998794557
H           -4.47112232667419       57.32555922309655      114.07157458451395
H           -3.46227987939066       58.27535299041586      113.17015179532933
C           -8.95755440585063       54.78868788478418      107.62076868691791
H           -9.20485306712887       55.44399205858447      106.78865472508139
H           -9.82978149344047       54.18338841286577      107.85970494062811
H           -8.14927349207969       54.13093549270155      107.31708516407703
N           -9.24236121279740       56.49668526977762      109.47413677333472
H          -10.17476971899806       56.79532065884394      109.24230494321183
C           -8.50703170411354       55.56273627364949      108.79973783246658
C           -8.50078999724014       56.96470942891531      110.49853021001593
H           -8.82468291376698       57.70630505850528      111.19710938891629
N           -7.32762538297866       56.37390648213452      110.50781864464449
C           -7.31203050545516       55.50786877176139      109.46742553118074
H           -6.44840482163800       54.91022984420973      109.26681918074014
78
 energy: -115.950234130797 gnorm: 0.057638011412 xtb: 6.7.1 (edcfbbe)
Fe          -5.65202653824535       57.02925575069578      111.64493468690243
N           -6.39122822688243       56.10691686929502      113.31159440791639
N           -6.64312090479543       58.73145025596605      112.19179115784674
N           -4.83106275256896       57.98925413080749      110.07547951134896
N           -4.62438855978180       55.35401804455891      111.17255968194610
C           -6.12426287157540       54.82521634303680      113.70185936128900
C           -6.71876911847974       54.56536714088602      114.98383004602415
C           -7.36234809328452       55.71766672426081      115.36183756721189
C           -7.14045330827552       56.67369439013842      114.31013264152901
C           -7.39868816638311       58.92714065379494      113.32267187074278
C           -7.94807810693058       60.24535562489865      113.33856629151109
C           -7.51744214256043       60.87268060180872      112.16964293893116
C           -6.67312138138870       59.90405848706868      111.49209990324131
C           -5.03372345608131       59.29881931933824      109.72754623649425
C           -4.18467312016668       59.66446699805545      108.64067136238701
C           -3.44724549932012       58.53012219278160      108.30889644324613
C           -3.88877750382981       57.49430152259007      109.21991707507881
C           -3.90699041639694       55.15967067541238      110.02718819135568
C           -3.57888984943677       53.76498496422753      109.87756792816231
C           -4.07545919083002       53.12259961027424      110.98321194506256
C           -4.73859871148008       54.12547651829293      111.77604068777825
C           -5.38959584456674       53.89344696077897      112.97534769249357
H           -5.33096726626103       52.89886644694448      113.38524134472196
C           -7.60338006004192       57.98033621726441      114.32312486156607
H           -8.16872135946988       58.29137918404781      115.18624161139043
C           -5.92852162091027       60.16420358824375      110.35266281666088
H           -5.99315755158644       61.15172310535329      109.92992105190511
C           -3.50208274556907       56.16467554278795      109.15548938502410
H           -2.84401835917805       55.86810600617434      108.35585429498255
C           -8.16626155056804       55.97302430150012      116.58442332535422
H           -8.20533738834561       55.08861148261937      117.20965211292113
H           -9.18554455351924       56.24574144161043      116.31872908378607
H           -7.75058260824115       56.79086406996201      117.16922618775800
C           -6.61408029825616       53.27353807224289      115.70970851280954
H           -5.61976882997221       52.85193394646649      115.59731228931128
H           -7.32932050594459       52.55438339901744      115.31432668166276
H           -6.81041085540856       53.40294028470396      116.76767395438399
C           -8.81258608977613       60.74888242575835      114.43837563969079
H           -8.40204630274562       60.48323555370438      115.40910567853932
H           -9.80654874706268       60.30611609270031      114.36565922782621
H           -8.91448495370050       61.82379933192937      114.41260834286832
C           -7.76428963477895       62.19442977009470      111.65433799943000
H           -7.14672755268001       62.46317654728939      110.80594697238558
C           -8.64377387304341       63.08940330865119      112.07447266872732
H           -8.71652974536812       64.05593186920514      111.61069596103434
H           -9.33361350542373       62.90785579311569      112.87206831455146
C           -4.10460494267189       61.03400636653938      108.07747304575476
H           -4.12931219106442       61.77747005802841      108.87084939928977
H           -4.94303095203276       61.23483700350540      107.41060132857169
H           -3.18634896770120       61.17175611835855      107.52183336208751
C           -2.40479142290695       58.32303808828260      107.33616684737703
H           -1.79716522790222       57.44770742783690      107.53150976265049
C           -2.12625023288155       59.04456907634123      106.26711210028952
H           -2.69550696610141       59.90081452049341      105.96178365997190
H           -1.30891393041155       58.78171907456436      105.62047970293038
C           -2.91022593390836       53.17948143264051      108.68849354558094
H           -1.87525345012794       53.50350119329432      108.60654004274764
H           -3.42555100043581       53.49173501680074      107.78200535718621
H           -2.93073918145518       52.09653951971858      108.73129180035384
C           -3.99409548283318       51.67650744260729      111.31189311441108
H           -3.10119976460388       51.23565782241319      110.88127095108882
H           -4.85966396179357       51.14189121522374      110.92258436579910
H           -3.96541057661858       51.52069569271686      112.38498254033540
O           -4.05113356276565       57.62874975170318      113.26817718671433
H           -4.38874877074258       57.40879354795711      114.15685831461714
H           -3.38508187188289       58.34816402558202      113.27984371132854
C           -8.97522041034998       54.78777079189443      107.60264606593027
H           -9.22168490894525       55.44549305862097      106.77508860945349
H           -9.84676456290504       54.18501705051891      107.84123055788112
H           -8.17074564822390       54.12913172131363      107.29961687813997
N           -9.28010886485365       56.48405270268157      109.44243308430795
H          -10.21055573484186       56.78556157087797      109.20201040831077
C           -8.52245972999576       55.54852248347813      108.77772135733065
C           -8.53988073297507       56.94638750597041      110.47878279673219
H           -8.85956560032160       57.68948437890482      111.17509276765749
N           -7.37220957872079       56.35769008212455      110.50944147736728
C           -7.33936099026644       55.49353568656461      109.45843976768344
H           -6.47071512564763       54.90159701208743      109.26250014232771
78
 energy: -115.957576787771 gnorm: 0.031130288445 xtb: 6.7.1 (edcfbbe)
Fe          -5.61166310538336       57.04342910330727      111.66190287623689
N           -6.37525579070319       56.10177409166659      113.32375627852235
N           -6.61479850168818       58.74912913163019      112.20465203984784
N           -4.81716355276055       57.99402331544347      110.08204045210258
N           -4.62824627034484       55.35233923748785      111.16778636227922
C           -6.11941342304433       54.81801836602212      113.70572894076376
C           -6.72542558742276       54.55782191228232      114.98825905504663
C           -7.36365171219910       55.70866230538803      115.36310970577455
C           -7.13431032599850       56.67027561637958      114.31016411447720
C           -7.39296880597780       58.92746054043752      113.32267483668302
C           -7.95595087094971       60.24359063721933      113.33127464421653
C           -7.52319881719590       60.87556218855465      112.17155306988366
C           -6.66341814426852       59.91496403745715      111.49644246733554
C           -5.02625866946170       59.30292345973336      109.73522095411272
C           -4.17648845495257       59.66111065471270      108.64112923795942
C           -3.44982113902478       58.53035207430606      108.30625536496713
C           -3.88652929278185       57.49259795643132      109.21703174580117
C           -3.90914020832759       55.16120353182561      110.02328573454145
C           -3.58208246257742       53.76321678858415      109.87648682462485
C           -4.07945737902588       53.12188934389546      110.97797659955880
C           -4.74266410071953       54.12578750308881      111.77503879657277
C           -5.39088526042157       53.88592723398209      112.97547867006459
H           -5.33590814076661       52.88714021858088      113.37966767099246
C           -7.60737728420297       57.97303775314208      114.31723521809111
H           -8.19784197354779       58.27297774178140      115.16985680700692
C           -5.92301497206828       60.17239206390612      110.35092404371306
H           -5.99938842373644       61.15470054879637      109.91486432606033
C           -3.50295178627681       56.16154037434902      109.14831339865711
H           -2.85009602718104       55.86205011690962      108.34344376899352
C           -8.16659002597462       55.97084576760005      116.58689486855340
H           -8.20825682653239       55.08868174947673      117.21827652515341
H           -9.18597399394668       56.24658109346468      116.32042087285276
H           -7.74455189932606       56.79051445229798      117.16703171131115
C           -6.62312432958849       53.26693134632718      115.72019942658663
H           -5.62465662035285       52.84964099319426      115.61695216718152
H           -7.33381411527677       52.54194257511006      115.32365384503572
H           -6.82864236176729       53.39895023662707      116.77834928441828
C           -8.81118040146320       60.74706600533401      114.44046208207575
H           -8.39508296998057       60.45929725799157      115.40491442799230
H           -9.81547839102480       60.32405333714889      114.37132591081487
H           -8.89218230356835       61.82699304941842      114.42850393657136
C           -7.76657920686993       62.20487088214423      111.66171131947968
H           -7.13215500464893       62.48443300408394      110.82993173073346
C           -8.66756783475148       63.10140264541764      112.06263835378132
H           -8.73926259181561       64.06254627694088      111.58490303733407
H           -9.36415988536416       62.93178486009662      112.85906679630166
C           -4.09740924079373       61.03272146488922      108.07840934260503
H           -4.13602352278027       61.77399924357424      108.87501387273899
H           -4.93238983334333       61.22525166869544      107.40327230572140
H           -3.17225579326133       61.17371355404104      107.53175103679565
C           -2.40519538595197       58.32337059260315      107.33244862100668
H           -1.78204550223443       57.46198434251413      107.53289032724653
C           -2.13366226812146       59.04918689188354      106.24877694313147
H           -2.71454723071669       59.89667898013262      105.94092711447568
H           -1.30147094188297       58.79570546412511      105.61517816925311
C           -2.89924315573038       53.17836025120145      108.69254268692622
H           -1.86411530813771       53.50911437300337      108.62338018524791
H           -3.40823766659801       53.48758003424065      107.78032631177850
H           -2.91361284054452       52.09369661557891      108.73657091349345
C           -3.99452124356784       51.67405758570366      111.30903460556021
H           -3.10237425302024       51.23098506095257      110.87450569980419
H           -4.86221984068114       51.13568632432797      110.92572941584154
H           -3.95947549779934       51.52270147315802      112.38392814956019
O           -3.95804268162310       57.66529086117607      113.33803315172824
H           -4.28050376885150       57.45839084229524      114.21785473038763
H           -3.29378755027304       58.36409817506381      113.36258295109673
C           -8.99465668706033       54.78216153597199      107.57771412027151