78
 energy: -115.973009380715 gnorm: 0.000046029520 xtb: 6.7.1 (edcfbbe)
Fe          -5.78208922361545       56.85556375493260      111.91704949491722
N           -6.43280447630782       55.96651553369864      113.56933755161896
N           -6.65259779261457       58.63207960660176      112.51600897428469
N           -5.01752022442745       57.83203827762696      110.24578564579036
N           -4.77477095176668       55.18838387803213      111.38648821618486
C           -6.19637927495638       54.67773367250042      113.95096626183484
C           -6.87637298388827       54.38898383169286      115.17639755543269
C           -7.53384994512683       55.54052949296002      115.54066339571884
C           -7.23996432751833       56.51537343801400      114.53437033938472
C           -7.41415547662327       58.81576399156055      113.63502784036750
C           -7.88157863265663       60.17081174167631      113.69785380898726
C           -7.39529159431771       60.80990035508875      112.57785202175326
C           -6.62637316487075       59.82157043384166      111.84522759505585
C           -5.32632365666684       59.10564295853565      109.84486268712556
C           -4.85043893843194       59.33598070257462      108.53191358880343
C           -4.23396494683152       58.14821544151561      108.11798804310757
C           -4.34291147553634       57.24417608408844      109.22044614537946
C           -4.02602654718557       55.01187717220949      110.25513055106393
C           -3.47558221051010       53.67316093536466      110.23939847402686
C           -3.91443917959093       53.05433025291867      111.37173970806809
C           -4.73376360129923       54.01309719846333      112.07716805764147
C           -5.39602678658117       53.76444027860399      113.26146622210106
H           -5.29151125033873       52.78193908016508      113.69468231951335
C           -7.69401538029763       57.82943926629892      114.56737313988998
H           -8.32217506714880       58.10283017355285      115.40112036737027
C           -6.03272037706035       60.04303726503823      110.62026525334757
H           -6.15604590082692       61.02350143703112      110.18648839517367
C           -3.84206509472461       55.93438530622269      109.24923499747642
H           -3.26550197882770       55.61605604170954      108.39475318147753
C           -8.38962148348549       55.78885570683394      116.73501214689595
H           -8.48865255176536       54.88751860143871      117.33419123293304
H           -9.38614618994338       56.11073029692039      116.43219726472226
H           -7.95765754530249       56.57017904197146      117.36120018601464
C           -6.83724382008813       53.07302679280512      115.87421558133761
H           -5.81437642060047       52.81730852070912      116.15185752802894
H           -7.21830530121387       52.28414036636185      115.22536945823262
H           -7.44119118874996       53.09489725346041      116.77759980244910
C           -8.67368827595770       60.75106992574081      114.81614212253450
H           -8.38559078426330       60.30099301562637      115.76436166822599
H           -9.74055258410965       60.57456328630931      114.66967266817937
H           -8.50825197169651       61.82509476049757      114.87428952998899
C           -7.55502019844956       62.18491896021532      112.17024530075564
H           -6.72983367111155       62.60105484573116      111.60366838934422
C           -8.61270056630584       62.95376787714903      112.41905135714308
H           -8.64974679051157       63.97913274627648      112.09099573091994
H           -9.48444486469586       62.58504209089028      112.92981315426779
C           -4.93392259250025       60.62311751461434      107.78636657136200
H           -4.91196464112724       61.46898981748019      108.47126716798016
H           -5.85647889764724       60.68887467642638      107.20475743197531
H           -4.09269244041842       60.71251030852772      107.10174324456561
C           -3.62076007165609       57.83481800909215      106.85583894353880
H           -2.86971098094433       57.05405860506875      106.88513785762339
C           -3.90940224429543       58.38486609060533      105.67496691582242
H           -4.67560349235484       59.12975211034186      105.55320067364291
H           -3.39124468330964       58.08673119270279      104.77895254449047
C           -2.60314344383297       53.14148433363126      109.15550012614506
H           -1.70623947580662       53.75243218377112      109.05356562809577
H           -3.12913642698701       53.15252927467867      108.20041757467799
H           -2.30007121315332       52.11951513889487      109.36793765784759
C           -3.64823408552686       51.67047711881174      111.85366227513400
H           -2.99296175405112       51.13895871938184      111.16834058943923
H           -4.58002867724970       51.11171435000502      111.94252644147645
H           -3.17461153430680       51.69470993692999      112.83487536575399
O           -3.71807075756751       57.93758221429379      112.94127118375575
H           -4.11948202351001       58.75799924069570      113.24489877937619
H           -3.24818079581321       58.14180268616558      112.12626927025578
C           -7.10178391506364       56.00100973236190      106.66907357510436
H           -6.29737093926633       56.64159383836475      106.30479101440741
H           -7.96917777561513       56.13370515420682      106.02305098416730
H           -6.77174210506626       54.96841913615482      106.60947621101521
N           -8.02330288103857       57.52145523712419      108.43241535484950
H           -8.29457503233067       58.25558005061470      107.79926127841588
C           -7.42662544531139       56.34001396846084      108.07631247267327
C           -8.12370543294074       57.53657006124310      109.77867080864328
H           -8.55983815044710       58.34383853211855      110.33115380600535
N           -7.62957590952127       56.44418180627765      110.30606768076956
C           -7.20496142726901       55.68349321894226      109.25273866924286
H           -6.76911608520036       54.71856405073867      109.41154894690659
