78
 energy: -116.057611939026 gnorm: 0.000082279290 xtb: 6.7.1 (edcfbbe)
Fe          -4.29048297624476       15.59560735957425      -21.12293303301913
N           -3.18644485991717       15.55900502040720      -19.46491992446231
N           -4.02363174955204       17.56418933594576      -21.27772937489513
N           -5.34129849506121       15.59943334807608      -22.84124975220121
N           -4.53978037200259       13.60347668992603      -20.99416306679332
C           -2.91481874734191       14.48304428022143      -18.68284941540021
C           -2.07319499498757       14.85955611983288      -17.56634208848309
C           -1.84031685328607       16.19165635299024      -17.69743117587771
C           -2.55093949496080       16.61184379753913      -18.88688925552449
C           -3.29083273655335       18.35137540216848      -20.44799869941861
C           -3.35800321590167       19.73030394152553      -20.85869116226460
C           -4.18523976288751       19.76921520004676      -21.94729161259395
C           -4.56800392130702       18.39320693381611      -22.20538517024684
C           -5.64913988382544       16.68786882117889      -23.60195900098612
C           -6.39622113875665       16.30130028241420      -24.76911282994469
C           -6.54646976268826       14.93986332319135      -24.69914337800930
C           -5.89016816962338       14.52862924886251      -23.47470297382155
C           -5.22262307659642       12.80318378532405      -21.85902392903454
C           -5.23161551864933       11.43620597943810      -21.39046254148772
C           -4.54660691772673       11.43120593851150      -20.21450853094721
C           -4.12017127821871       12.79258396239522      -19.98577158225861
C           -3.36019337483779       13.19357217116154      -18.90342002248757
H           -3.08273934617069       12.43900940547880      -18.18349431452543
C           -2.58520598318420       17.91499861192806      -19.33951863815596
H           -2.03086431942757       18.65372787137772      -18.78069927924515
C           -5.29499450157857       17.99297116629709      -23.30835779732533
H           -5.58783099971366       18.75829649549326      -24.00970680960736
C           -5.83126159155149       13.21980239433329      -23.02875153586712
H           -6.31043551831834       12.46410968020164      -23.63208184059280
C           -1.03328801272636       17.10091111881997      -16.83559000274721
H           -0.58186085625553       16.55375573032278      -16.01163309485297
H           -1.65801252904692       17.89232127693145      -16.42027307133386
H           -0.23669674297558       17.56801587859555      -17.41470758839545
C           -1.58990117194537       13.91359882626191      -16.52107518087141
H           -0.98901564065852       13.12190268631289      -16.96914842770246
H           -2.43100691918858       13.44912788258400      -16.00575245818424
H           -0.98000386546828       14.43018069210111      -15.78404408555911
C           -2.68556047899337       20.86382260592697      -20.16450715381549
H           -1.61297583170266       20.68421331293924      -20.08924397065370
H           -3.07871303336278       20.98504383466936      -19.15432065298098
H           -2.84657816118458       21.79313682874637      -20.70512043248952
C           -4.59813923649001       20.94583033969924      -22.68442932118473
H           -3.83277983708218       21.70355717051219      -22.81494252426309
C           -5.81771327045720       21.17423736488031      -23.15831574934028
H           -6.62762413935071       20.48044392950656      -23.00787983180135
H           -6.05517659698487       22.07884672526371      -23.69344993721424
C           -6.94278126852577       17.24043195464142      -25.78663960735267
H           -6.18128595345384       17.50296181347099      -26.52288172048515
H           -7.28532033266439       18.16089188801883      -25.31675173921180
H           -7.78055365755572       16.78120386302113      -26.30770293548383
C           -7.23016021000427       14.04706699297348      -25.60807085329794
H           -7.70534256524470       13.18614499215749      -25.15151122406727
C           -7.30592257971369       14.19678418302214      -26.92667428156857
H           -6.81398815281436       15.00341278348040      -27.44131071951831
H           -7.84551027761419       13.49655567896780      -27.54258722145035
C           -5.88694936778141       10.30545732818988      -22.10726851523507
H           -5.46505686413245       10.18745858116214      -23.10574605622192
H           -6.95740042012286       10.48505911299282      -22.21296550945390
H           -5.74900632144592        9.37285974907436      -21.56581888421474
C           -4.25007001170234       10.29265395131370      -19.29992665200400
H           -4.68999522181659        9.37099792206974      -19.67302511457942
H           -4.65083188821793       10.48677400555825      -18.30489082384520
H           -3.17366341192437       10.14575733791309      -19.20717734588983
O           -2.45310677350349       15.14939968216166      -22.42083687100210
H           -2.38735089687307       14.19891907829318      -22.27742948162725
H           -2.83328852908424       15.27710023141356      -23.29690721026543
C           -8.11824888274759       17.35346819242209      -17.47316891684735
H           -8.48605580211031       16.64189648454110      -16.73397880650688
H           -8.96923253489753       17.91476821250717      -17.85879215058450
H           -7.43911849378662       18.04425106665859      -16.98355307344560
N           -8.01831931473795       15.71837198604648      -19.36710090002437
H           -8.97717295543585       15.42025764255478      -19.29424848150480
C           -7.40732718190985       16.65247241073399      -18.57220897415245
C           -7.10311239601637       15.27824420547525      -20.25963529953614
H           -7.30213960819485       14.54066867834003      -21.00920933706439
N           -5.95087250990744       15.87620606695188      -20.07818503144656
C           -6.12408651427516       16.73396415052155      -19.03180595314575
H           -5.31915321705765       17.34735064962873      -18.68296809010108
