87
 energy: -128.466577269915 gnorm: 0.000099775238 xtb: 6.7.1 (edcfbbe)
Fe         -36.76845525283976       15.69334468980104        2.70834367236657
N          -38.45735728044669       16.74177119438949        2.95592712413113
N          -37.83361707986295       14.11154943085012        2.09110146284655
N          -35.07172048599754       14.67589858164433        2.39563191552741
N          -35.70899382134340       17.25098567361037        3.38380574642331
C          -38.57050785349353       18.01660741392778        3.40973883983970
C          -39.95157308764475       18.44757213483956        3.38644132498616
C          -40.66978004990110       17.39753275115924        2.90662832965176
C          -39.71813820027844       16.33767241195805        2.65033184797614
C          -39.18428214110821       14.04419716053877        1.95975196375594
C          -39.59133421263728       12.72645974154512        1.54963705203929
C          -38.44861303454481       11.97571256795226        1.46320383889194
C          -37.35754632937201       12.87858033542599        1.77657782980141
C          -34.96268382821091       13.40896884265294        1.91097460045460
C          -33.58126989283609       13.05158646639232        1.72613344908355
C          -32.84604655350864       14.14703857892840        2.09459067446779
C          -33.80561872906086       15.14131408888980        2.53451511613056
C          -34.36049942380484       17.31050802834866        3.53447241800386
C          -33.97000539522602       18.56360462915638        4.14351303995465
C          -35.11763112932023       19.26558972344694        4.34257676645057
C          -36.19307649053004       18.42866648071423        3.85713729920213
C          -37.52460483197667       18.80613407419919        3.85578810393594
H          -37.76560327624067       19.78993019556065        4.23072040198628
C          -40.06896417275216       15.08508491393338        2.18912817916549
H          -41.11612775679306       14.89508726680497        2.00708030254666
C          -36.01985048163714       12.55334041177317        1.64539540679714
H          -35.78134763142498       11.56530572285211        1.28216662770578
C          -33.46231505235311       16.34460767787654        3.12397409353275
H          -32.41266300382200       16.53727278228980        3.28316783011975
C          -42.13772183094996       17.28579286474044        2.67259167305188
H          -42.64129228881663       18.21926767593019        2.91275287533721
H          -42.56537838001397       16.49684235656495        3.29199621104623
H          -42.34224688866358       17.04351804693185        1.62942283335471
C          -40.42036321295382       19.79559495747331        3.81852564321008
H          -39.93364669016033       20.57805640098807        3.23532447502211
H          -40.18644802199151       19.96483309171497        4.87013059167727
H          -41.49570927207095       19.89147660375307        3.68881512260333
C          -41.00100953249341       12.29423041518167        1.33454746879802
H          -41.49011660887734       12.93362864164075        0.59909623142382
H          -41.56820069548973       12.35659883349459        2.26410331569412
H          -41.03854751416475       11.26638879316278        0.98193936396092
C          -38.35735196134538       10.56920499154628        1.13537589534450
H          -39.07439273325448       10.21759204442584        0.40075675544477
C          -37.51910464142586        9.69327917195410        1.67966617622976
H          -36.82167538598864        9.97085715845053        2.45184432819460
H          -37.51671488131184        8.65676275958555        1.38507829690518
C          -33.09960782751004       11.74925714654840        1.18473546933704
H          -33.45028901591388       11.60452890011930        0.16218042575079
H          -33.47246476813539       10.91933804840238        1.78615184697000
H          -32.01300527378601       11.71437557010847        1.17981327812780
C          -31.40576507682955       14.28255772994648        2.04068154054036
H          -30.84583374004789       13.38447585701858        2.28095417000400
C          -30.74182866940617       15.37787901646094        1.68794194531881
H          -31.24802142976969       16.27940816069991        1.38741533295290
H          -29.66460761507084       15.40221608752969        1.66550777149485
C          -32.56305670652043       18.94481331019244        4.45458384730325
H          -31.96783426120017       18.99317887342804        3.54215136857563
H          -32.10476067822073       18.20907086812842        5.11552114591726
H          -32.52237627415639       19.91658022962443        4.94112689926101
C          -35.30673257380460       20.62151104419578        4.93368510316682
H          -34.35437577256828       21.04400769275650        5.24478975189528
H          -35.96123503101315       20.57294897177140        5.80443478270251
H          -35.76045916067873       21.29853451030066        4.20881675063170
C          -37.46619490196493       15.09847589721920        8.23268322737198
H          -36.58047128276994       14.90524743472428        8.83807357198375
H          -38.26735945372820       14.44793379382272        8.58371149455792
H          -37.76771053519654       16.13116427989584        8.37755336193281
N          -36.78907521566978       13.63921506083284        6.31316457895994
H          -36.65379356281279       12.80604005641981        6.86184885661346
C          -37.18447883534984       14.86041472525992        6.79416838648136
C          -36.61707392610849       13.76228523463046        4.97771878818873
H          -36.30970356098978       12.96231398777767        4.33646894745370
N          -36.87916942408166       14.98397029000512        4.58445339483753
C          -37.23349566882328       15.67890355467172        5.70260981018311
H          -37.49808570942700       16.71417181863685        5.64707617241084
C          -36.22193420005765       16.24190378836906       -2.83141619839284
H          -35.34164752076584       16.76560579301407       -3.20445413799219
H          -37.08636391269042       16.57697790465964       -3.40484016447041
H          -36.08766321071210       15.17708352603111       -2.99413717201079
N          -36.61925491922062       17.76135491831001       -0.88034344739270
H          -36.65677510380065       18.61073524967080       -1.41947326111401
C          -36.41605264730332       16.50199924313588       -1.38235483321526
C          -36.75644701387167       17.64959537092764        0.46034580165162
H          -36.92665506056674       18.47704301760591        1.11770539047240
N          -36.65281180813660       16.39930493548471        0.83667318902737
C          -36.44132805237626       15.67326069465085       -0.29775054096655
H          -36.32205358006129       14.61046862801772       -0.25839916156949
