72
 energy: -105.980694180037 gnorm: 0.000069492857 xtb: 6.7.1 (edcfbbe)
Fe          -6.18250073217986       24.76983530493765        7.58077310157575
N           -4.44265794259834       23.83024616095473        7.34512182653666
N           -5.78643532103092       25.03739267456449        9.52349694341511
N           -7.97389232499140       25.66323824787085        7.82491296545678
N           -6.62689457629974       24.43267752975323        5.65571416844320
C           -3.93412411374862       23.32915659628637        6.19108002902458
C           -2.63242909429677       22.73848011921034        6.41846138021318
C           -2.37453493523804       22.88450160261609        7.74458103951159
C           -3.51877912276521       23.56967763752963        8.30650407953561
C           -4.69212724353503       24.59524332596316       10.20017541517320
C           -4.76446895336207       24.96483658134643       11.59055744837733
C           -5.93800934757765       25.65297375278850       11.74528585768705
C           -6.56632028695662       25.66973822776717       10.43866072054677
C           -8.43940159099233       26.25598839841492        8.96098169620586
C           -9.73784526696109       26.83498741214143        8.73946133702623
C          -10.05907084588691       26.57245770221912        7.43335885489542
C           -8.93014713211011       25.85486582767037        6.87894510286853
C           -7.76960535727795       24.77851979603109        5.00441829072118
C           -7.69743916861854       24.39887581016349        3.61088611848166
C           -6.47424369811727       23.83247174449024        3.43252662263460
C           -5.82101501501128       23.86185001091955        4.72194045803286
C           -4.56000357327691       23.35202768970639        4.95944727659766
H           -4.03006138405023       22.92442423240177        4.12275069908610
C           -3.62775825974993       23.91189847227256        9.63858196781327
H           -2.81558397155371       23.63242531774077       10.29141811227665
C           -7.78353557151476       26.26902673221192       10.17932687286458
H           -8.27732691292071       26.76530365085983       10.99997377069207
C           -8.85417745493091       25.42140279748391        5.56861974089076
H           -9.69677687317609       25.62454975149120        4.92675011608668
C           -1.18362158074775       22.45573412227224        8.53010404214094
H           -0.45622379934025       21.96215844970026        7.89058755968707
H           -1.47586623891967       21.76039251637622        9.31701058732209
H           -0.70216450668650       23.31456439322140        8.99868266270030
C           -1.80094815108463       22.10528897544242        5.35692371587059
H           -1.58874212695544       22.81780218659125        4.55956113053965
H           -2.32271819162397       21.25385491767985        4.91960567715841
H           -0.85578578386288       21.75486885030261        5.76394579638598
C           -3.76726883079112       24.58710812253670       12.62870123132579
H           -3.40622567564327       23.57337760821718       12.46280244672467
H           -4.22040397323416       24.63853319435364       13.61643868809528
H           -2.90801674867191       25.25986221996051       12.60871505123401
C           -6.50672939852284       26.23372836362651       12.94192236568703
H           -7.58774844122208       26.20095159594929       13.01144224132415
C           -5.81379748728937       26.79389952177779       13.92763041532575
H           -4.74309147146066       26.89509427282699       13.89010327744459
H           -6.30067602036325       27.19612603834009       14.80031179038061
C          -10.51181134917589       27.61171226414397        9.74573189895174
H           -9.84868928430420       28.23036925419833       10.34861901684021
H          -11.05635030485261       26.94604933778541       10.41762295173911
H          -11.23080459640037       28.25665342649809        9.24492269210335
C          -11.24585107210902       26.94035740727191        6.69251547791561
H          -11.09185127775134       27.16534686245763        5.64381264588159
C          -12.47403035041760       27.01035093146417        7.19459041765112
H          -12.69132822131992       26.75305212326136        8.21664886115701
H          -13.31410306314220       27.30494824374288        6.58803850045233
C           -8.78665394525601       24.62826393420432        2.62100801516895
H           -8.98323340022959       25.69488128260041        2.51075901101411
H           -9.70912924987210       24.14585786483299        2.94490499476523
H           -8.51431669713679       24.22832221792066        1.64758908375698
C           -5.86370633897572       23.27037074475649        2.19561045908996
H           -4.94368320040850       23.80057441719257        1.94959348214678
H           -6.54534833715609       23.35872858025112        1.35345732967463
H           -5.62071583910611       22.21635266048190        2.33225032444872
O           -7.24250737072421       22.84467194763064        8.03909010063233
H           -8.04550270092860       23.18011676242925        8.45413360011203
H           -7.48333569288151       22.55182011725959        7.15252357602403
C           -3.57888581982527       26.96249992804267        7.69403710078169
H           -3.26189290022149       28.00058751919999        7.71756930718526
H           -2.95354147064122       26.39501879361361        7.01278606705408
H           -3.54554823524861       26.51568628416034        8.68179124963073
S           -5.28149896011040       26.87171773891749        7.03705040395710
H           -5.83348582467689       27.56827089869894        8.03714273985999
