72
 energy: -105.865659788892 gnorm: 0.263679150580 xtb: 6.7.1 (edcfbbe)
Fe          -6.27100000000000       24.67700000000000        7.62500000000000
N           -4.43700000000000       23.80900000000000        7.37900000000000
N           -5.89200000000000       24.90600000000000        9.63100000000000
N           -8.10600000000000       25.54600000000000        7.93000000000000
N           -6.62100000000000       24.54200000000000        5.58200000000000
C           -3.84700000000000       23.48300000000000        6.17200000000000
C           -2.55000000000000       22.89700000000000        6.45500000000000
C           -2.38400000000000       22.88100000000000        7.78100000000000
C           -3.56900000000000       23.45400000000000        8.39500000000000
C           -4.80200000000000       24.39600000000000       10.30500000000000
C           -4.89400000000000       24.81600000000000       11.69300000000000
C           -6.01400000000000       25.55300000000000       11.83100000000000
C           -6.65300000000000       25.62400000000000       10.53200000000000
C           -8.48600000000000       26.27600000000000        9.03800000000000
C           -9.68700000000000       27.01700000000000        8.70600000000000
C          -10.00600000000000       26.73200000000000        7.42800000000000
C           -9.01500000000000       25.80200000000000        6.92600000000000
C           -7.88000000000000       24.73400000000000        5.02000000000000
C           -7.84600000000000       24.28500000000000        3.64600000000000
C           -6.41200000000000       23.79500000000000        3.41200000000000
C           -5.72500000000000       23.99100000000000        4.67100000000000
C           -4.40400000000000       23.68400000000000        4.92700000000000
H           -3.74100000000000       23.59200000000000        4.06700000000000
C           -3.80300000000000       23.62300000000000        9.74600000000000
H           -3.13900000000000       23.09900000000000       10.43300000000000
C           -7.82800000000000       26.28900000000000       10.24800000000000
H           -8.27400000000000       26.87600000000000       11.05100000000000
C           -8.98300000000000       25.26100000000000        5.65900000000000
H           -9.92300000000000       25.24800000000000        5.10700000000000
C           -1.14200000000000       22.34200000000000        8.52800000000000
H           -0.24100000000000       22.47400000000000        7.89200000000000
H           -1.27400000000000       21.26100000000000        8.74500000000000
H           -1.00000000000000       22.90500000000000        9.47500000000000
C           -1.53600000000000       22.38500000000000        5.40500000000000
H           -0.74700000000000       23.15100000000000        5.24700000000000
H           -2.05600000000000       22.19900000000000        4.44100000000000
H           -1.06100000000000       21.44800000000000        5.76700000000000
C           -3.85000000000000       24.43400000000000       12.76800000000000
H           -2.90000000000000       24.13700000000000       12.27400000000000
H           -4.22600000000000       23.57900000000000       13.36900000000000
H           -3.65500000000000       25.30600000000000       13.42900000000000
C           -6.60900000000000       26.25700000000000       13.08100000000000
H           -7.58700000000000       26.75100000000000       12.98800000000000
C           -6.02300000000000       26.31500000000000       14.28300000000000
H           -5.04400000000000       25.84300000000000       14.45000000000000
H           -6.51400000000000       26.83500000000000       15.11900000000000
C          -10.41100000000000       27.95400000000000        9.70200000000000
H           -9.67100000000000       28.38700000000000       10.40900000000000
H          -11.16600000000000       27.37800000000000       10.27800000000000
H          -10.90600000000000       28.78000000000000        9.14800000000000
C          -11.18600000000000       27.23200000000000        6.55300000000000
H          -11.22600000000000       26.91900000000000        5.50000000000000
C          -12.17600000000000       28.02500000000000        6.97600000000000
H          -12.20200000000000       28.37800000000000        8.01700000000000
H          -12.97700000000000       28.33400000000000        6.28800000000000
C           -9.00700000000000       24.30399999999999        2.62800000000000
H           -9.35400000000000       25.34900000000000        2.48100000000000
H           -9.85300000000000       23.69400000000000        3.01200000000000
H           -8.65900000000000       23.89900000000000        1.65400000000000
C           -5.83900000000000       23.20900000000000        2.10400000000000
H           -5.42300000000000       24.02900000000000        1.48100000000000
H           -6.64600000000000       22.69900000000000        1.53600000000000
H           -5.02700000000000       22.48900000000000        2.34000000000000
O           -7.58700000000000       22.43000000000000        8.11900000000000
H           -8.31000000000000       22.67000000000000        8.69800000000000
H           -7.40500000000000       21.61400000000000        7.81500000000000
C           -3.59700000000000       27.16200000000000        6.90100000000000
H           -2.90300000000000       27.67000000000000        7.60500000000000
H           -3.51900000000000       27.67000000000000        5.91600000000000
H           -3.26500000000000       26.10700000000000        6.79300000000000
S           -5.29200000000000       27.22200000000000        7.49800000000000
H           -5.04100000000000       26.57100000000000        8.62400000000000
72
 energy: -105.926587989766 gnorm: 0.115254537408 xtb: 6.7.1 (edcfbbe)
Fe          -6.29810775800799       24.63456328983481        7.63952901520796
N           -4.44630094236930       23.81146235924191        7.37857118642787
N           -5.89968150297845       24.90248876160102        9.63694193621807
N           -8.09171902150839       25.57322362642946        7.91085080463835
N           -6.62820079902178       24.51573361206812        5.60780898904599
C           -3.84998712024930       23.49742366386631        6.17914913808976
C           -2.54535736920707       22.90614566977008        6.44289734685521
C           -2.38294485012637       22.87322742382553        7.78770049903652
C           -3.58086774406957       23.44667565639286        8.38268175199089
C           -4.82183644161342       24.39266409089660       10.31477477854142
C           -4.89390339337302       24.80711935572434       11.70670377419236
C           -6.02295981712748       25.56509935676578       11.84988876236394
C           -6.65287619551529       25.61458582297876       10.53786857991228
C           -8.48876646398913       26.28186772363343        9.01687654933317
C           -9.69965586822161       27.02133681660945        8.70673132191941
C          -10.03526918771591       26.72247320350002        7.41591186226886
C           -9.01388712675904       25.80335739733851        6.92490633419762
C           -7.85610017304656       24.69839356377775        5.01459755270719
C           -7.80229631349101       24.26311515755606        3.63683559624456
C           -6.45401806974526       23.82364648453014        3.41300091324563
C           -5.76061843016830       24.00915656223775        4.66910182356076
C           -4.42334959818894       23.68904708834106        4.92960652672711
H           -3.76713961716660       23.56117082883960        4.07163610360953
C           -3.81131370355092       23.62671292136486        9.74090912335131
H           -3.12790665827537       23.12785652179966       10.42180285090829
C           -7.82971551418396       26.28327299265868       10.23830301744611
H           -8.27573098036879       26.86338661776863       11.03846960314425
C           -8.96762913330811       25.25099932333162        5.65028937138881
H           -9.89732138133748       25.26849836685799        5.08851769640122
C           -1.16086042154391       22.35191332790846        8.52284513095568
H           -0.26487212788426       22.47593942226331        7.90355827928723
H           -1.27551167606138       21.28375617344894        8.74409780894374
H           -1.00732508107576       22.89440508687573        9.46103515749675
C           -1.55212313147314       22.39796237856966        5.41332818180629
H           -0.76239517760287       23.14222727194345        5.24991657066495
H           -2.04771170382938       22.20323673434217        4.45781775350827
H           -1.07858054897863       21.47187941623976        5.76030410874463
C           -3.85881438585959       24.43339471906940       12.74993809621817
H           -2.91699876401389       24.13801389205562       12.27824870590943
H           -4.22270844689294       23.59617012397235       13.35846229499745
H           -3.64915490117578       25.28392054224560       13.40564656442381
C           -6.58820806585958       26.24385659062320       13.06428138685420
H           -7.55944829345735       26.72786023509133       12.95848392609874
C           -6.02058140219060       26.30900961504765       14.26698588865761
H           -5.06147962908842       25.85460582497323       14.46446109528185
H           -6.50114393564602       26.82613487157128       15.09313081588003
C          -10.39432447243546       27.94128022149846        9.69397195461685
H           -9.67764041170659       28.37420522406631       10.39860892888864
H          -11.15083316324209       27.38606697299733       10.26372969145202
H          -10.88134331174670       28.76691375665222        9.16898859041035
C          -11.17225233713892       27.22304801386455        6.57435061115591
H          -11.19375143708845       26.90837902859293        5.53112094574397
C          -12.16607399056439       28.01215407002053        6.97802634635911
H          -12.22834339960756       28.36846874296773        7.99547467213809
H          -12.95504869982867       28.32213177404155        6.29833746997504
C           -8.96417626015231       24.29965335543747        2.65144020970408
H           -9.33009512302971       25.32517297569976        2.49535616376031
H           -9.81737252190021       23.70487957954785        3.01031900508434
H           -8.65791104079537       23.90527642223916        1.67687332401685
C           -5.86333525876063       23.23342686455158        2.13807415551109
H           -5.43693258788899       24.02098174028605        1.50041311901044
H           -6.63299371908461       22.71414287972363        1.55491759887752
H           -5.05886782329970       22.51550975690816        2.35080838086411
O           -7.55956391251344       22.48767382725526        8.11635636878576
H           -8.29958657466374       22.67888327653582        8.68967940106899
H           -7.39324219747650       21.61510317081575        7.80448847489161
C           -3.58115740968394       27.15618982073072        6.89739648664768
H           -2.91509560762671       27.66978380060094        7.60049005247317
H           -3.52717297708240       27.66091726089545        5.92809155763711
H           -3.26658789066531       26.11392375389403        6.78797765838247
S           -5.28874586632440       27.22056932971263        7.48767652520632
H           -5.03917313837532       26.59127389468225        8.63462773263452
72
 energy: -105.949134322818 gnorm: 0.048117625467 xtb: 6.7.1 (edcfbbe)
Fe          -6.30847281724743       24.64015792849869        7.64240152451463
N           -4.46586755274722       23.80476136203065        7.37977284369415
N           -5.91677063129824       24.88548134011091        9.64292536692966
N           -8.08191172758475       25.58604544858563        7.89364242847338
N           -6.64047713185124       24.47690620742825        5.63608575468574
C           -3.86354941875855       23.50557527242254        6.18874742354390
C           -2.55202649820002       22.91995638651474        6.43561036125661
C           -2.39325190059205       22.87224854733302        7.79230090594193
C           -3.60101824105939       23.43971305928856        8.37254122583161
C           -4.84432335841012       24.38254579580288       10.31947711461840
C           -4.89481461956417       24.79494330460018       11.70927468791523
C           -6.03074965593937       25.56689570939364       11.85901312143201
C           -6.65748295691882       25.59914033409641       10.54002416636553
C           -8.48393347612111       26.28474104374002        8.99467596044807
C           -9.70075856231301       27.01978051504771        8.70583174994513
C          -10.05184746081694       26.71041573434231        7.40725652445770
C           -9.00909447168921       25.80095054694966        6.92261670206144
C           -7.84140839220286       24.66582502698508        5.02260456396344
C           -7.76227298583125       24.24802180876982        3.63355509340870
C           -6.49360038006557       23.84461002729939        3.42126828091579
C           -5.79107089118583       24.00584727214346        4.68262306306230
C           -4.44882382298090       23.68013035365700        4.93743844080012
H           -3.80466032919202       23.51556489621010        4.07927483170899
C           -3.82041747597825       23.63347031756618        9.73363496704920
H           -3.10863073129347       23.17046441818628       10.40728796903319
C           -7.82956800085390       26.27584552362504       10.22520612495836
H           -8.28090233796237       26.84798615155589       11.02261606473975
C           -8.95272111974178       25.24613570772805        5.64335548966549
H           -9.86616325311766       25.30274884045710        5.06236537243698
C           -1.18767147543963       22.36290932234812        8.51739196971386
H           -0.29487528516556       22.48378684958915        7.90627219032764
H           -1.28828605817889       21.30083032507257        8.74413771988281
H           -1.02679201610416       22.89323696243130        9.45154695357794
C           -1.57336698842165       22.41774584028104        5.42218418231215
H           -0.77949371193722       23.14671055259856        5.25334621495558
H           -2.05253031468460       22.21432622848988        4.47007335170545
H           -1.10247374894568       21.49717381257721        5.76450960474132
C           -3.86884855358099       24.43222730358146       12.73037374952779
H           -2.93493709504447       24.13113688041980       12.26719308064646
H           -4.22492655602808       23.60806813574784       13.34976236209634
H           -3.64817689167699       25.27290839820924       13.38110710774638
C           -6.56610463226354       26.22407475812374       13.03565528410050
H           -7.53072175792439       26.70476072099604       12.91473854486724
C           -6.01537543381289       26.30089833401347       14.24597294684266
H           -5.06843057352869       25.86032353404141       14.48016636737572
H           -6.49556056739686       26.81928120651933       15.06015650792159
C          -10.37631457875463       27.92584534356737        9.68243493971507
H           -9.66870659539481       28.34872926166772       10.38925299872017
H          -11.13822365524740       27.38574539194657       10.24771370018344
H          -10.85627282260728       28.75625924423204        9.17601269368717
C          -11.15229242345476       27.19983683045916        6.60076121708995
H          -11.15118870260217       26.88977302428935        5.56173132743191
C          -12.15586307919626       27.98856163411915        6.98399258231787
H          -12.25744523140184       28.35450862457823        7.98539828331193
H          -12.92547984616410       28.30629070831218        6.29897353135543
C           -8.91982600894586       24.29330217649753        2.67366198537804
H           -9.28597535761332       25.31216924177704        2.52468817324479
H           -9.77051309044112       23.70668368078275        3.03027429361861
H           -8.63668803916808       23.90524855606827        1.69814773400528
C           -5.88859037994826       23.26259270363263        2.17088432859820
H           -5.45413033204871       24.03486863969685        1.53123794561677
H           -6.63892279299231       22.73769225566630        1.58120730636940
H           -5.09355633194249       22.54755030982522        2.38888783604644
O           -7.50344868229095       22.55915987026842        8.11145769881550
H           -8.27689211004200       22.68737289110775        8.66755131816626
H           -7.38032211137853       21.65800624150867        7.79592071404728
C           -3.56556441142496       27.14969049561160        6.89080212818216
H           -2.92449841063662       27.66848186977032        7.59696246695014
H           -3.53212738409798       27.65261333480708        5.93152089806784
H           -3.26448219361992       26.11509131071188        6.78314109976022
S           -5.28822834388547       27.22056631481894        7.47545203960127
H           -5.04428522304845       26.62105199886778        8.64691449751919
72
 energy: -105.957753155531 gnorm: 0.026690039714 xtb: 6.7.1 (edcfbbe)
Fe          -6.33085162712790       24.60562993757393        7.64782360423766
N           -4.48390802833803       23.80159228125352        7.38292275588591
N           -5.93100166940378       24.86481355766377        9.63902051678720
N           -8.07311685553331       25.58652608167580        7.88422253138259
N           -6.65454237759386       24.44340543751607        5.65960210765815
C           -3.87914727902008       23.50613200428433        6.19704047031733
C           -2.56725798913862       22.93182866147216        6.43780468849042
C           -2.40996308526068       22.87965927384867        7.79334465606892
C           -3.61756157382985       23.43911337963067        8.37064070272570
C           -4.85708286645654       24.36783323140390       10.31367051590681
C           -4.89818574372495       24.77842554596142       11.69769219645844
C           -6.03262519362924       25.55114200931717       11.84957959786358
C           -6.66443652078149       25.58093010366186       10.53492836255975
C           -8.47449607865138       26.27966062854651        8.98639068052420
C           -9.69146316663195       27.00805990078882        8.70837624407851
C          -10.04858034332578       26.69749812711862        7.41240808300601
C           -9.00503742660861       25.79673546236676        6.92237930417875
C           -7.84907690354427       24.64934684649968        5.04451195858889
C           -7.77033999923841       24.24277548643213        3.65186396207232
C           -6.48678498941019       23.85118300885768        3.43439862332911
C           -5.79775323703320       23.99141284008268        4.70599381138234
C           -4.46464112889893       23.66335382384701        4.94804218669194
H           -3.83673392589372       23.46068595052775        4.08602005627580
C           -3.82536165289269       23.63625754437943        9.72817630286547
H           -3.08180591407660       23.21410177002025       10.39657746375767
C           -7.82962183363696       26.26355752188095       10.21864047970336
H           -8.28777418194326       26.83093210545162       11.01428192626022
C           -8.95190714781559       25.24794308279374        5.64437435558468
H           -9.84629414945449       25.34721689659670        5.03683178655464
C           -1.20965272583466       22.37265140778300        8.51923300789850
H           -0.31914693231171       22.49618157467939        7.90580988078253
H           -1.30984906356277       21.31048608011183        8.74697075269005
H           -1.05124841201853       22.90301800250952        9.45407018570653
C           -1.59074269653168       22.43796264170472        5.42396623039432
H           -0.79676849530403       23.16723086483406        5.25569290993530
H           -2.06851938037209       22.23249796434001        4.47118254772541
H           -1.12239213396310       21.51784525946872        5.77042576360944
C           -3.86996440744723       24.42229117502432       12.71341763715213
H           -2.94266818327157       24.10680016985821       12.24558711102360
H           -4.22932071787095       23.61000331171179       13.34780677934972
H           -3.63719966465523       25.27042694314288       13.35073877296280
C           -6.55637567197433       26.21328458515117       13.01714367156233
H           -7.51625919524897       26.69676513384375       12.87997104177720
C           -6.01527495901203       26.29852931225205       14.23260961464635
H           -5.07283898612721       25.85805968616677       14.49295793060792
H           -6.50268568814435       26.82974448654581       15.03230482986049
C          -10.35847906690385       27.91431127865079        9.68324655929006
H           -9.64572977530077       28.31826752797205       10.39677198269595
H          -11.13272430380513       27.38002244678298       10.23792456083657
H          -10.82208910963860       28.75671654298571        9.17977117272258
C          -11.14194987483687       27.18131987433701        6.60967962798904
H          -11.12004206294232       26.87068731353525        5.57161916773345
C          -12.15726195462987       27.96335064831976        6.97911442192576
H          -12.29874765966008       28.31836635271206        7.98283944585915
H          -12.90896755478613       28.28153805910652        6.27630975762457
C           -8.90844568103061       24.29199295211707        2.68775932310266
H           -9.25736859918263       25.31579421429147        2.55066192806642
H           -9.74983106609830       23.70132964627112        3.05088390028350
H           -8.61349505779349       23.90548273657188        1.71609600331738
C           -5.88977793287980       23.28393587889742        2.18661645416797
H           -5.45869131373658       24.06413356773977        1.55841917945667
H           -6.64626547826352       22.76451329079177        1.60157108674508
H           -5.10318451311298       22.56915810958033        2.42076073599499
O           -7.43208891487104       22.63387434017472        8.11252877798581
H           -8.24080355563991       22.72671964860200        8.63334423728618
H           -7.33991208652706       21.73663932559891        7.76893705486077
C           -3.56264392942626       27.14077274367722        6.88471973334740
H           -2.93301503424069       27.67062854607115        7.59287647630572
H           -3.53622993451363       27.64066757340084        5.92368325718808
H           -3.25607323951913       26.10735764241078        6.78201343532600
S           -5.29327212588446       27.20444851261089        7.46216634759200
H           -5.03964997223182       26.68144012620932        8.67523677341343
72
 energy: -105.961927875084 gnorm: 0.031018672123 xtb: 6.7.1 (edcfbbe)
Fe          -6.28790991670005       24.70607138162964        7.63377539600947
N           -4.50692408136958       23.79486960899496        7.38590497204569
N           -5.94122704053698       24.84922913020981        9.63182519696181
N           -8.05911658729356       25.57983001064983        7.87590047420766
N           -6.66630619747384       24.41411374487810        5.69120497772791
C           -3.90118328280998       23.49556569727834        6.20623700858867
C           -2.58790234911394       22.93909106414823        6.44155489161632
C           -2.43053175257528       22.88646729082546        7.79427228600137
C           -3.63723148980656       23.43657807095953        8.36911330053476
C           -4.86880643429800       24.35105851357672       10.30537438900728
C           -4.90261503950763       24.75659549244707       11.68388313618673
C           -6.03539407242775       25.52679482691847       11.83896964072794
C           -6.67311276732401       25.55653129623316       10.53072906632929
C           -8.46417183586467       26.26490929463689        8.98123117178045
C           -9.68012676783086       26.98704845392475        8.71299926592493
C          -10.04296587071454       26.67590741594369        7.42166991245827
C           -8.99983918780871       25.78626312379251        6.92427555284026
C           -7.85596168748453       24.63054919287496        5.07409757993111
C           -7.77596521295260       24.24159779974696        3.67857270192640
C           -6.48474919904976       23.84919822578061        3.46102801690579
C           -5.80831069634311       23.96752449090489        4.73865452481539
C           -4.48713142089779       23.63030682026383        4.95997961323195
H           -3.87898982391211       23.39390773486953        4.09512838258591
C           -3.82741312029054       23.64210088214233        9.72172792689660
H           -3.05645488626395       23.26034864815619       10.38166970100694
C           -7.83081302352264       26.24459018232468       10.21479636703068
H           -8.29764624864527       26.80845555970280       11.00687831828073
C           -8.95001631872570       25.25181145119080        5.64573928095066
H           -9.81923926370578       25.39033324870313        5.01042122118381
C           -1.23337703821299       22.38430313352990        8.52415570108080
H           -0.34373234243204       22.50937528949737        7.90964508107538
H           -1.33624793925553       21.32237372163868        8.75437321722494
H           -1.08008948320263       22.91772786903205        9.45899226550392
C           -1.61032334336487       22.46006057812104        5.42395260418984
H           -0.82152338684316       23.19600489516733        5.25824386817686
H           -2.08901363422975       22.25595275454608        4.47050820570947
H           -1.13968616038044       21.54098101131109        5.77091176503972
C           -3.87023537529397       24.40903135296017       12.69648402271524
H           -2.95164524414696       24.07086574254607       12.22394093701763
H           -4.23453255112668       23.61396467838239       13.35146333140057
H           -3.62331924666056       25.27074241856763       13.31251535876686
C           -6.55037609341089       26.20197906295870       13.00047595972996
H           -7.50230625610605       26.69539881240867       12.84605012191389
C           -6.01701540634456       26.29530163289646       14.21855611836240
H           -5.08171560234114       25.85017726226280       14.50412446742904
H           -6.51236193099344       26.84622972399704       15.00025149881850
C          -10.34081769116646       27.89976172953245        9.68329583630604
H           -9.62403197487789       28.28128116487589       10.40750492685479
H          -11.13271735604384       27.37671199908137       10.22517835805333
H          -10.78143710835772       28.75412553345677        9.17533175486860
C          -11.13357282410563       27.15814955136802        6.61708494034205
H          -11.08629631909123       26.85879875770986        5.57635405925636
C          -12.16298941729326       27.92494311349188        6.97803832822919
H          -12.33762051969036       28.27013463321407        7.98224763246144
H          -12.89368235576818       28.24600810180029        6.25373798802797
C           -8.89803226888159       24.29449909910933        2.70766106343788
H           -9.23444314275365       25.32111396571158        2.57418777432356
H           -9.73678997830886       23.70203082406995        3.06892125414033
H           -8.59087473693091       23.90858321241612        1.73947218687722
C           -5.89121697391519       23.30692246102267        2.20918336972407
H           -5.46185513979983       24.09805017337563        1.59558537506445
H           -6.65118360426533       22.79755979905768        1.61974947160855
H           -5.10954219042490       22.59069787772289        2.44521403708024
O           -7.34558792480126       22.69816258815931        8.12463747310220
H           -8.19380237493468       22.77004210997726        8.58925939438556
H           -7.30874045537554       21.80946847035228        7.73480059306937
C           -3.55932048422624       27.13208097264380        6.87688979387574
H           -2.93647851260714       27.66774321399947        7.58572384839217
H           -3.53463586438933       27.62677329510946        5.91252390178470
H           -3.25099785198053       26.09726389498410        6.78010829928354
S           -5.29640677120575       27.20825919397505        7.44775882125723
H           -5.05636954921017       26.72771567025215        8.68029072034059
72
 energy: -105.964410530060 gnorm: 0.021292368029 xtb: 6.7.1 (edcfbbe)
Fe          -6.31167142192420       24.64554546292316        7.64322542337806
N           -4.51228310288851       23.80271689965526        7.38780811890673
N           -5.93542930253829       24.85138076730004        9.62005783179630
N           -8.04981180325831       25.57596713326595        7.87123623190942
N           -6.66801765864335       24.41590359046076        5.70875172860781
C           -3.91015566113854       23.49148636159311        6.20999508890676
C           -2.59732160614430       22.94111237984325        6.44347379574647
C           -2.43611151465741       22.89441259446732        7.79338308992339
C           -3.63783429576845       23.44757383237838        8.36827902495038
C           -4.86465871583104       24.35227940812776       10.29686065103109
C           -4.90435137808154       24.74601326281863       11.67617186614117
C           -6.03697867159618       25.51133229424109       11.83191244459182
C           -6.67097105407275       25.54902458278756       10.52427511820808
C           -8.45449841166615       26.25927156674539        8.97911785399917
C           -9.67292181759939       26.97624664242555        8.71576193493886
C          -10.03714379983717       26.66842329979186        7.42708939344574
C           -8.99370249878896       25.78892857463617        6.92270145126806
C           -7.85488966758415       24.63545284536224        5.08657603623830
C           -7.77416318538320       24.24739709139357        3.69424172566044