72
 energy: -105.980613284930 gnorm: 0.000046920403 xtb: 6.7.1 (edcfbbe)
Fe          -6.09755503753559       24.63895202148053        7.58584327744374
N           -4.38657961999090       23.65110668153639        7.33963409415955
N           -5.77442501099360       24.75428066772532        9.54527295212615
N           -7.86654989738616       25.58002978725726        7.81754130383926
N           -6.47652346761608       24.45227903519499        5.61443951167792
C           -3.89448872977564       23.12578330323095        6.18813221358860
C           -2.61218693119156       22.49606977507686        6.41870893110471
C           -2.34137949076617       22.65835026565968        7.74033217473781
C           -3.46831511652125       23.37370005900748        8.30037642796198
C           -4.67408526728428       24.32110646573803       10.21269857045650
C           -4.78893543679159       24.59168992534786       11.62479258836518
C           -5.99907990356443       25.20445457467533       11.79997722050866
C           -6.59562313527551       25.29452342346652       10.47989798644937
C           -8.39166368537856       26.04587589649199        8.98493620435019
C           -9.64771453335780       26.70798472802970        8.75177645469354
C           -9.87522375749600       26.64045044590794        7.40203745268550
C           -8.74080862745194       25.93801286901191        6.83961070632176
C           -7.55357794858003       24.93762084486754        4.93632013839480
C           -7.46323334647729       24.60706476679128        3.53318303109874
C           -6.30853909495541       23.90305210688830        3.37884660467306
C           -5.70532973590274       23.81856047025589        4.68810670851735
C           -4.50243363035523       23.18966645782822        4.94854954161533
H           -3.99544248821280       22.72310678835041        4.11848220128348
C           -3.58401735690297       23.69516764665171        9.63679582575586
H           -2.76810989439637       23.41756097114422       10.28580736298997
C           -7.80990659372551       25.90163713254894       10.23143720330031
H           -8.34296442296218       26.31083988321105       11.07519154368334
C           -8.60547682139543       25.63808547065291        5.49653594693102
H           -9.39048537740921       25.96274063130357        4.83189738200862
C           -1.15757973448964       22.20974468148733        8.52522716171645
H           -0.42961375226958       21.72140402920819        7.88219814199707
H           -1.45866556237569       21.50442944835772        9.29998564009480
H           -0.67405856443163       23.05829019440954        9.00949011673702
C           -1.80438428103121       21.82452490733027        5.36227023427492
H           -1.54241073085752       22.52882590841194        4.57200125666019
H           -2.36696689407616       21.00592439392664        4.91327922974574
H           -0.88532603830264       21.41965275162560        5.77820713618382
C           -3.79410429090194       24.19208416293070       12.65685193719029
H           -2.96882122106151       24.90473792840880       12.69680764333236
H           -3.38155471855989       23.20945026248613       12.43363098937458
H           -4.26645282327981       24.15756533937844       13.63632116703998
C           -6.62536131695268       25.66459465755407       13.02030051091354
H           -7.70419217698551       25.56708797738158       13.05913671386916
C           -5.98675621274234       26.18761077604874       14.06145893000598
H           -4.92330667084010       26.35126539904248       14.05697483624145
H           -6.51418257219394       26.49783521260062       14.94814794703091
C          -10.46438908564435       27.38490875552002        9.79530108289305
H           -9.82363231837551       27.89201938597466       10.51479943022132
H          -11.07864546949278       26.66439948927436       10.33805288930026
H          -11.12214548252145       28.11946708716212        9.33546040702393
C          -10.98291784405970       27.16374116956154        6.63271236996936
H          -10.73708396507806       27.51758758954033        5.63811965887580
C          -12.24352339285503       27.22983367389834        7.04739841041458
H          -12.55197630088197       26.85080792921040        8.00607089463876
H          -13.01940446021224       27.64556198031699        6.42641559371013
C           -8.47772238753020       24.99292319577425        2.51293308046840
H           -8.57739891639988       26.07750879568338        2.46222006930392
H           -9.45319290114224       24.57582945044504        2.76430792666901
H           -8.19327270384377       24.62940803611120        1.52873348447945
C           -5.72037243405425       23.31107644266499        2.14483614173672
H           -4.74110529118733       23.74453310712450        1.93947538718954
H           -6.36146429202900       23.49231358725269        1.28585974053554
H           -5.59542832695285       22.23416524651067        2.25901671757246
O           -7.24068487817708       22.72933415093695        7.85629361363770
H           -8.04065136118183       23.05473297792207        8.28486511992980
H           -7.47077040650677       22.52890585284247        6.94160815065783
C           -3.73974718258133       26.55224629304378        6.04569867483383
H           -2.90564157145637       26.13114326384882        6.59713942117093
H           -3.47347336337286       27.52739313982384        5.64964723389029
H           -4.03828779327000       25.87217402419607        5.25541282312086
S           -5.11030736136983       26.74498479245007        7.23867891107656
H           -5.99136858884747       27.19021945698772        6.33649161351621
