78
 energy: -116.058078044517 gnorm: 0.000024567517 xtb: 6.7.1 (edcfbbe)
Fe          28.18597129824970       90.95382549921725       52.12271637488514
N           29.17643318895601       92.59969359272746       51.51908576915456
N           29.30547482361877       90.91274143952074       53.79942166145670
N           27.17092732238648       89.36010075303044       52.75732960071583
N           27.05086248979764       91.04447734755296       50.48886886959199
C           28.99998575656981       93.27584703672586       50.35268410660768
C           29.93134948057536       94.37623528629011       50.25349208478966
C           30.68043836688220       94.34841491842302       51.38911520273022
C           30.19853428647748       93.22836382869035       52.16518371864250
C           30.30917937075122       91.77056132436925       54.14093506697785
C           30.91154698250359       91.38334399792585       55.38883875018738
C           30.25740318677769       90.24967102657757       55.79720884574195
C           29.25225220939600       89.98201802542876       54.78856250968372
C           27.39519296323641       88.64692258010990       53.89428782564832
C           26.47322002712134       87.54323706924956       53.99858177647972
C           25.67759912290852       87.60197310349361       52.88622898520741
C           26.13437943764382       88.75282850877592       52.12969543109019
C           26.03408115152122       90.20765364622200       50.15892300581572
C           25.45486334349754       90.58015272709069       48.88543878617850
C           26.15185316869291       91.66358902395419       48.45347986578160
C           27.14573460354809       91.93774496811379       49.46990935249976
C           28.05367464050539       92.97571509362807       49.39073173671049
H           28.02032281751928       93.60307820603639       48.51327842793228
C           30.72410975864204       92.85736939317488       53.38779984185805
H           31.54052273768470       93.44780032213676       53.77486533423210
C           28.37262481953327       88.91807970883697       54.83465301096172
H           28.45530657654720       88.24171726153226       55.67144469246472
C           25.59923046020212       89.13558222936314       50.91377189926040
H           24.78251929432203       88.55007567172414       50.51974843481585
C           31.78631457506238       95.25306682809773       51.81421818192680
H           31.96343080368519       96.02359384152135       51.06803673665524
H           32.71108257211075       94.69216728370282       51.95343997552755
H           31.54261758505885       95.74073587847195       52.75857422481098
C           29.99769784312265       95.31984585068697       49.10207488565307
H           29.04933063708305       95.84386986812193       48.98094872427234
H           30.20576492820622       94.78117230555587       48.17741851290167
H           30.78054905778845       96.05946852474587       49.25145707304230
C           31.98282307700435       92.13898986492238       56.09552364775521
H           31.84061534330325       93.21230785807452       55.97752916231198
H           32.96784306588265       91.88404546400048       55.70038420458113
H           31.96799992861467       91.90083247197059       57.15717799596960
C           30.45658107817851       89.46154871835246       56.99290761388134
H           29.56549454696706       89.00132911507829       57.40379347677953
C           31.62149823187544       89.26057924561928       57.60057652946376
H           32.54607805052497       89.65147153436898       57.21302804762357
H           31.69309004394178       88.67064300487715       58.49924611900817
C           26.38984431511944       86.60083556264489       55.14819738352627
H           26.54784419194963       87.12598083248692       56.08906565990689
H           27.14677454801256       85.81885091663821       55.06689230031959
H           25.40949288081559       86.12959934366582       55.17372846606074
C           24.57564488777674       86.74774684527571       52.50197337273790
H           23.76487440094042       87.23872078037950       51.97630950609725
C           24.49452295859686       85.44179670543777       52.73526003372329
H           25.28973551498650       84.89434800380803       53.21064633505974
H           23.63429538849002       84.86763215051300       52.43308201851966
C           24.31514921205311       89.86916655453317       48.24038446361502
H           23.43479811104718       89.89807938868177       48.88263685295058
H           24.56707024868808       88.82392676026784       48.05902084307077
H           24.05988217540057       90.32983878705814       47.28921436499649
C           25.98306830260648       92.46056799972048       47.20554583411749
H           25.17688617378724       92.05915116588416       46.59650974151252
H           26.89926041590444       92.44688672464997       46.61463084192902
H           25.74910039363330       93.49865773999153       47.44271194674229
O           26.78990580802779       92.37883936264703       53.25585916056090
H           27.10282744419732       93.21950553865305       52.90435649723022
H           27.15203532067638       92.29101343600554       54.14427735680262
C           30.68039911299504       86.98046508214415       49.11200708498479
H           31.28843676672417       86.24757275375364       49.64216446818909
H           31.21506826583507       87.27856655763107       48.21016504557029
H           29.74450374905270       86.51258054609751       48.82336048138254
N           31.39795108327973       88.94153148802789       50.49437791773977
H           32.38600474341749       88.80783708452262       50.35495454314643
C           30.40224998411384       88.15700488789484       49.97392727118088
C           30.81172752256940       89.91582171318805       51.22569179847032
H           31.34955373096156       90.67764774862461       51.75098921058790
N           29.50665041236365       89.79625158513848       51.19969263085284
C           29.23638340451009       88.70673105845954       50.42456313944107
H           28.22865347700014       88.39336364745715       50.24518734871636
