78
 energy: -116.057997204427 gnorm: 0.000075587588 xtb: 6.7.1 (edcfbbe)
Fe         -14.96551739342649       -8.71275952897844       -3.23915201158480
N          -15.79874238119418      -10.43854738858401       -3.77837053960963
N          -15.92193831162011       -8.78758816559706       -1.49026212193558
N          -14.16321337267699       -6.93717556407047       -2.71828595131048
N          -14.04294996725524       -8.59538328105798       -5.02368283688394
C          -15.61206372465142      -11.10778452749028       -4.94674116210702
C          -16.38341907453836      -12.33295068389953       -4.96416772517983
C          -17.04056786166633      -12.38555801413248       -3.77599090396987
C          -16.65972401548219      -11.19301179391647       -3.04930670314307
C          -16.76665301041390       -9.76175755671855       -1.06322565432512
C          -17.25610586699922       -9.46999208657927        0.26673505384181
C          -16.68163230155392       -8.29419180399327        0.63429511882513
C          -15.85020291253720       -7.88447925968341       -0.47720263026507
C          -14.30273269258194       -6.29750597637496       -1.52839266419734
C          -13.54567745985430       -5.06234829542564       -1.51971547757784
C          -12.93094915059047       -4.98572087054556       -2.74247578033992
C          -13.32629691371220       -6.16434503965533       -3.46798549054038
C          -13.22678813386967       -7.59943385274564       -5.46240704499930
C          -12.73998725705712       -7.88802691770122       -6.79713083226505
C          -13.26961328547888       -9.10581344439991       -7.13617141115524
C          -14.07586053382584       -9.52328843913003       -6.01933932344905
C          -14.80739076487975      -10.69812506035553       -5.99000654138251
H          -14.75591070600774      -11.33729600371119       -6.85804123631290
C          -17.11890036628511      -10.88842189038325       -1.78155652941944
H          -17.80730807850815      -11.58001080057903       -1.31997649002907
C          -15.09744953265654       -6.72618883084724       -0.48134991936007
H          -15.13925762390196       -6.10466071682464        0.39983622509429
C          -12.90507459402086       -6.45661310455131       -4.75463533331269
H          -12.26160559459736       -5.73771032365802       -5.23819727770959
C          -16.40629005319136      -13.29679156806281       -6.10061181734119
H          -15.40405118552766      -13.67539540911639       -6.30337954264079
H          -16.77420247940035      -12.81266901323396       -7.00539794860647
H          -17.05295662840813      -14.14204657467615       -5.87821481290372
C          -17.98005993703471      -13.42094114929331       -3.25949067928721
H          -18.95579535296728      -12.98115216310286       -3.05286588177287
H          -17.60310311390046      -13.85667229993556       -2.33360785792862
H          -18.11176552648522      -14.22020548023959       -3.98465842827308
C          -13.03240681861650       -9.90620399500758       -8.36882774669841
H          -13.85454607332961       -9.78539937100793       -9.07632047197385
H          -12.94714557455404      -10.96501207323887       -8.12930408432696
H          -12.11298302010156       -9.58286711906049       -8.85278191877932
C          -11.84946279697416       -7.03579621122662       -7.55325197886738
H          -11.13442831421905       -6.46788817731041       -6.96894762857554
C          -11.85227173375494       -6.89722150400977       -8.87515840758227
H          -12.56909993148407       -7.39772834019019       -9.50232885191227
H          -11.14858111420173       -6.25274172056911       -9.37539899809499
C          -11.97800027163588       -3.95328940001258       -3.23560185583945
H          -12.48166712561012       -3.23477077492634       -3.88468491650604
H          -11.17129458286492       -4.41258468253601       -3.80513325483914
H          -11.54643910484595       -3.41312284892405       -2.39544948899767
C          -13.47333557781551       -4.14893865357116       -0.40083594893426
H          -13.52424249322785       -4.60716769913493        0.58013199516943
C          -13.36171272965471       -2.82756742969158       -0.48944921407896
H          -13.35494290908505       -2.31471608054427       -1.43542736370070
H          -13.29947013458979       -2.20735973211230        0.38935721526345
C          -16.83178292490280       -7.52410527943856        1.90131200345978
H          -17.22708481884307       -6.52834769015387        1.69964824391931
H          -15.86777218725329       -7.41052209406811        2.39805310855378
H          -17.51077738411148       -8.02987897868827        2.58341499401872
C          -18.20756012636721      -10.33446343107830        1.02093387804641
H          -18.42905741048375       -9.90729010240643        1.99586445983244
H          -17.78886201514021      -11.33028519900222        1.17003570959137
H          -19.14344154080669      -10.44052749190795        0.47219883708785
O          -16.66842081200510       -7.49236107028656       -4.17633185349664
H          -16.56786810965673       -6.66081150040922       -3.70055472971485
H          -16.31187042157878       -7.35770772749936       -5.06119991516463
C           -9.84961718591157      -10.35515100055520       -1.75412916198489
H           -9.49129038506805      -11.31684049917841       -2.12117306023043
H           -9.57204146140864      -10.26623575397172       -0.70386877672826
H           -9.35768495418539       -9.56459120145477       -2.31196414865783
N          -12.19991676161807      -11.11165303531681       -1.33416606527746
H          -11.95193897026568      -11.89117819523808       -0.74724424098738
C          -11.32035297045302      -10.24103807111671       -1.92249119452029
C          -13.44943701198502      -10.73162813657188       -1.68461202649443
H          -14.34151689844789      -11.23215733238904       -1.36830035726909
N          -13.41409106034851       -9.67399800531788       -2.45860540615661
C          -12.09681693284604       -9.35731099816211       -2.61551749197710
H          -11.79701019098657       -8.52097851345903       -3.21175972319612
