72
 energy: -105.980606841913 gnorm: 0.000065127743 xtb: 6.7.1 (edcfbbe)
Fe          25.53789521953764       27.97077144560394       18.87727006130662
N           25.77632361362259       26.43418124610487       20.11755088554601
N           24.06863845877572       28.69116767009540       20.05201026988793
N           25.24508811408404       29.50063521017753       17.59397986971045
N           26.92795681207706       27.22542247363532       17.66340624092647
C           26.68557524298804       25.43450118896415       20.00555671786123
C           26.56767057652122       24.50731394975071       21.11099721203059
C           25.55001480555860       24.96577556837296       21.88568143119339
C           25.06822560027142       26.17251193899941       21.24777755615107
C           23.58081498202058       28.12304124715498       21.19051495628527
C           22.53576104447491       28.93201943635437       21.75889319861569
C           22.40114583469471       30.02185185432619       20.93864132194715
C           23.36277151087543       29.84031816737620       19.87086950737140
C           24.40793342752332       30.56329395185345       17.76620739500592
C           24.51713035886283       31.48258312154090       16.66455962155853
C           25.44144249239527       30.94702469810609       15.80630007307886
C           25.89451764632737       29.71685472060189       16.42096369350024
C           27.32851794529530       27.72814953709109       16.46705751332031
C           28.37028826680157       26.90556158030358       15.88918884393707
C           28.59915919748572       25.90312600425445       16.77701947814784
C           27.68393232877393       26.11917321091922       17.87731510706109
C           27.59232845649122       25.28627790151446       18.97405903059544
H           28.26108195407867       24.44073097293629       19.01583174030671
C           24.04112246882190       26.94400654742408       21.75160610658208
H           23.56986502385947       26.61050262939050       22.66293180382972
C           23.53589510148757       30.73017360858162       18.82774601228521
H           22.92486635738696       31.61901035860428       18.82879167181098
C           26.84615021899227       28.87756634220213       15.87268715893650
H           27.26292164078605       29.15365218186838       14.91692527547069
C           24.98988437328346       24.40023836015278       23.14502023776893
H           25.51603178480041       23.49201344250678       23.42768273667419
H           23.93422917417427       24.15932007568922       23.01916678469044
H           25.07873460834064       25.11686600941926       23.96208933455233
C           27.42431523002313       23.30202968737578       21.29044761595920
H           28.47670329498109       23.58262302334802       21.33643553637405
H           27.29393164962062       22.61372435786821       20.45528468480039
H           27.16846368322169       22.77875906770441       22.20839063009351
C           21.73913177747036       28.57668343139814       22.96472559948575
H           22.27326430333946       28.84349548725278       23.87833757641583
H           21.53882300768199       27.50670390478419       22.99166645036604
H           20.79027451063818       29.10906704793766       22.95449347470211
C           21.48445142846344       31.13599931469086       21.04167517754368
H           21.13483394128552       31.54461904416234       20.10062981460639
C           21.06160478513041       31.68083973659067       22.17742598265404
H           21.41140170154364       31.34708575701545       23.13873643669008
H           20.36557912377382       32.50297929229066       22.18208508797080
C           23.79462971502148       32.77927628394774       16.55649773433472
H           23.72304929523203       33.26326224561693       17.52948413056782
H           22.78195978201849       32.63186333244462       16.17710004076813
H           24.32269662717372       33.44315680277948       15.87530725912534
C           25.93360910038479       31.46993515628309       14.55050492126797
H           26.97396149385047       31.26002160549468       14.33230926797082
C           25.21543179803890       32.16052641992914       13.67150595425476
H           24.16729117656790       32.35741534826900       13.81546513440468
H           25.64952235337135       32.53301757002423       12.75870268199531
C           29.02277594708118       27.17589518989839       14.57766190126852
H           29.53508993619244       28.13806543832063       14.59687946140166
H           28.28190365090765       27.20247774243184       13.77843116748283
H           29.75207327174220       26.40469844755984       14.34313143138221
C           29.56758709964020       24.77403604100917       16.70057584864887
H           30.25475701075266       24.80203263341580       17.54626050925897
H           30.15010384279269       24.82573156004138       15.78422111416068
H           29.04331504084403       23.81847954773488       16.72136200421250
O           23.95239545959953       26.89434994441825       17.71431407428933
H           23.15628604211507       27.34088829669829       18.02431856104577
H           24.12590557528543       27.21006969747727       16.82029153016871
C           27.08277976309511       28.91343534789170       21.76213378087793
H           27.57632973617637       29.70776249438892       22.31362142883096
H           27.61822986495676       27.97861736987075       21.89110529993459
H           26.05244142429536       28.79320883801909       22.07871072695651
S           27.13458094378673       29.30267323328087       19.97763746408828
H           26.38760097043879       30.40785760846648       20.07483365572294
