72
 energy: -105.884196361395 gnorm: 0.235824960227 xtb: 6.7.1 (edcfbbe)
Fe          25.57400000000000       28.04200000000000       18.91700000000000
N           25.76700000000000       26.36200000000000       20.08800000000000
N           23.87000000000000       28.56500000000000       19.93900000000000
N           25.15900000000000       29.45700000000000       17.46900000000000
N           27.07900000000000       27.27500000000000       17.70300000000000
C           26.78300000000000       25.41300000000000       20.04300000000000
C           26.66700000000000       24.54900000000000       21.21000000000000
C           25.61600000000000       24.99500000000000       21.92600000000000
C           25.03300000000000       26.14100000000000       21.24100000000000
C           23.40400000000000       28.00300000000000       21.11000000000000
C           22.31100000000000       28.83200000000000       21.61200000000000
C           22.15000000000000       29.84500000000000       20.73800000000000
C           23.14400000000000       29.70300000000000       19.69700000000000
C           24.28000000000000       30.51500000000000       17.67500000000000
C           24.53800000000000       31.54900000000000       16.70200000000000
C           25.56500000000000       31.12100000000000       15.93700000000000
C           25.97200000000000       29.79500000000000       16.41300000000000
C           27.46700000000000       27.82600000000000       16.49600000000000
C           28.47300000000000       26.95000000000000       15.93700000000000
C           28.66800000000000       25.92300000000000       16.78300000000000
C           27.78800000000000       26.11100000000000       17.91800000000000
C           27.70800000000000       25.30000000000000       19.03500000000000
H           28.44400000000000       24.50100000000000       19.12300000000000
C           23.92500000000000       26.85500000000000       21.66500000000000
H           23.40500000000000       26.46300000000000       22.53900000000000
C           23.29600000000000       30.56600000000000       18.63500000000000
H           22.56400000000000       31.36900000000000       18.54600000000000
C           26.99100000000000       28.99200000000000       15.91800000000000
H           27.46099999999999       29.30900000000000       14.98700000000000
C           25.07100000000000       24.40300000000000       23.25000000000000
H           25.78500000000000       23.64600000000000       23.63900000000000
H           24.09100000000000       23.91300000000000       23.06700000000000
H           24.95600000000000       25.21100000000000       24.00300000000000
C           27.61500000000000       23.36400000000000       21.56900000000000
H           28.34400000000000       23.69300000000000       22.34000000000000
H           28.17100000000000       23.04000000000000       20.66300000000000
H           27.02100000000000       22.51700000000000       21.97300000000000
C           21.48200000000000       28.57300000000000       22.90200000000000
H           21.86100000000000       29.22000000000000       23.72200000000000
H           21.58300000000000       27.50900000000000       23.20600000000000
H           20.41400000000000       28.81500000000000       22.71700000000000
C           21.16800000000000       31.04500000000000       20.74400000000000
H           20.88700000000000       31.50400000000000       19.78500000000000
C           20.62700000000000       31.57300000000000       21.84600000000000
H           20.86600000000000       31.16100000000000       22.83800000000000
H           19.93600000000000       32.42600000000000       21.77500000000000
C           23.73100000000000       32.88700000000000       16.62800000000000
H           23.37600000000000       33.16300000000000       17.64400000000000
H           22.85100000000000       32.75800000000000       15.96200000000000
H           24.38400000000000       33.69900000000000       16.24200000000000
C           26.23900000000000       31.83400000000000       14.73000000000000
H           27.25500000000000       31.53200000000000       14.43700000000000
C           25.66500000000000       32.80800000000000       14.00500000000000
H           24.65000000000000       33.15800000000000       14.24400000000000
H           26.20300000000000       33.26800000000000       13.16300000000000
C           29.16200000000000       27.19900000000000       14.58200000000000
H           29.69400000000000       28.17400000000000       14.61000000000000
H           28.40100000000000       27.22800000000000       13.77300000000000
H           29.89900000000000       26.39200000000000       14.38200000000000
C           29.63900000000000       24.73800000000000       16.62300000000000
H           30.62000000000000       24.99900000000000       17.07500000000000
H           29.78700000000000       24.51700000000000       15.54400000000000
H           29.23000000000000       23.84500000000000       17.14100000000000
O           22.99800000000000       27.02199999999999       17.55300000000000
H           22.28700000000000       27.19400000000000       18.17000000000000
H           22.91900000000000       26.64400000000000       16.75200000000000
C           27.75900000000000       28.51700000000000       21.40000000000000
H           28.37800000000000       29.06800000000000       22.14000000000000
H           28.42900000000000       27.84200000000000       20.82600000000000
H           27.02000000000000       27.90500000000000       21.95900000000000
S           26.90000000000000       29.66600000000000       20.26700000000000
H           26.06700000000000       30.13200000000000       21.18600000000000
72
 energy: -105.933741276769 gnorm: 0.098342581853 xtb: 6.7.1 (edcfbbe)
Fe          25.48849660049974       27.97942749731071       18.85111720574422
N           25.77823798710566       26.38100710331574       20.10863021153386
N           23.88519693969432       28.58744013603362       19.95508678399550
N           25.18923454633494       29.49178644869577       17.49483744150420
N           27.05743441303184       27.27964076447471       17.70333542883800
C           26.77242462908185       25.42760456338885       20.05532018608542
C           26.66951585305926       24.55045707271385       21.21361099874464
C           25.60490807472638       24.98844249719728       21.93497474766053
C           25.03731845164038       26.13476491551005       21.23887163068604
C           23.40185472234514       28.01784716055257       21.10594619642663
C           22.30036316837231       28.83163739501157       21.61538338302078
C           22.13512900827044       29.86451158016256       20.73766720503072
C           23.13370134554975       29.69734379968122       19.69634038594834
C           24.29154234469945       30.51870640234523       17.66402410426115
C           24.53322668218895       31.55409733729666       16.68201501407423
C           25.57177173778876       31.12519156774359       15.90437567816859
C           25.97598667486981       29.81345648323244       16.42471780702751
C           27.45914003403169       27.81680636048787       16.50471282870773
C           28.47567438453652       26.95520290904161       15.92645911492670
C           28.67415179786060       25.92260540594463       16.78378507174621
C           27.78642530851361       26.13599024372675       17.91347463203426
C           27.69991706311476       25.31853819765679       19.03408150491628
H           28.42568385899216       24.51355285842654       19.11302955912889
C           23.92679509923748       26.85797897062212       21.66381672793124
H           23.41807079012129       26.47215278691430       22.54165057353866
C           23.29914006522408       30.56200343202244       18.62856258012049
H           22.58292619303106       31.37140251756385       18.55117453350247
C           26.98636673006905       28.99273664154055       15.93084045397002
H           27.45771084111830       29.30344836733284       15.00356574376868
C           25.07752104193452       24.41144483016239       23.23433725475449
H           25.77338070006243       23.66428052554042       23.62800075014432
H           24.10825507886750       23.92761460834879       23.06930034049174
H           24.95574334897949       25.19862844628501       23.98582137186827
C           27.59776444623272       23.39076515716015       21.55842156490769
H           28.32472502283688       23.69618338283991       22.32154583136697
H           28.15276256310993       23.05130082101063       20.67896405421803
H           27.02849675784913       22.54376935062261       21.95659456926136
C           21.49979281562792       28.57017648249629       22.88086874544264
H           21.86224494549216       29.20251572066533       23.70120372694554
H           21.58361826005758       27.52556893529368       23.19463546994240
H           20.44339885322525       28.80712205806844       22.71280127544710
C           21.17723976770226       31.01672301240169       20.75675858651460
H           20.91527610469338       31.46443842233135       19.79790962093991
C           20.63505872197148       31.55392977400871       21.84493817245031
H           20.86267428639949       31.17600439204953       22.83264532602000
H           19.95690173248892       32.40049483275861       21.77730155758878
C           23.74865352113530       32.86119832091732       16.63087345092490
H           23.39117923796360       33.14629229187349       17.62620272700739
H           22.87589035028388       32.75356283722348       15.97484546080393
H           24.37687308334418       33.67363993042176       16.25362171378863
C           26.22024848635921       31.82396561492062       14.74786346990063
H           27.22711679252421       31.51172654711656       14.47241069873415
C           25.66289667899992       32.79200597297523       14.02148220869999
H           24.66144910611591       33.14709785703631       14.22430499048757
H           26.19176434611650       33.25003714218907       13.18988854297255
C           29.15398350631590       27.19948450541767       14.59686876783275
H           29.68330341791673       28.15870535756807       14.61119816291300
H           28.41378090068656       27.22592268386489       13.78942236516671
H           29.88100138166881       26.40957013866721       14.38595669881116
C           29.62604749457544       24.75457625737462       16.62794267604905
H           30.60107187829462       24.99672504891651       17.06875861088318
H           29.77978805011758       24.52106176556501       15.56929332190472
H           29.23440787724573       23.86368868076922       17.12788229249069
O           23.04247940988108       27.03347644006373       17.58898439920719
H           22.30173540057016       27.20234944862254       18.16693146803753
H           22.92282760936737       26.64561562766619       16.73974371212866
C           27.76520048664371       28.50917603049417       21.41643165058876
H           28.37306923486123       29.07638313144036       22.12934375947767
H           28.41277784733091       27.85531660482047       20.82589862415658
H           27.02755060304024       27.90519921745447       21.95049907635885
S           26.90659731192838       29.62626260035366       20.25787206273424
H           26.06810619407202       30.11921777827707       21.17102313659372
72
 energy: -105.952439671304 gnorm: 0.029260437023 xtb: 6.7.1 (edcfbbe)
Fe          25.42905470494559       27.94687917816179       18.81250649751049
N           25.75876109325703       26.38833622106360       20.10472632399790
N           23.88474270048010       28.58971757572045       19.94935887984044
N           25.20139439350904       29.50521006690854       17.51375163880438
N           27.00736542726155       27.27083190467551       17.68810960127059
C           26.75103501758491       25.44976235920386       20.05723075365151
C           26.66559041251933       24.56486770146253       21.20865619862052
C           25.59230916662897       24.99390934824008       21.93597946058863
C           25.03427759222037       26.13732515730853       21.23183921513097
C           23.40404660929781       28.02812265432086       21.09679874132256
C           22.30264530423009       28.82678219499160       21.61488666675530
C           22.12932566073785       29.87241363752064       20.73504298196173
C           23.13029248029964       29.68989235837308       19.69422259347147
C           24.30685458705825       30.51729409711759       17.66599071204973
C           24.52818573865989       31.54937922148341       16.67451605893223
C           25.57438382573055       31.11959039919339       15.88896281542204
C           25.97620133851625       29.82114081895816       16.44214611435864
C           27.43489813409532       27.80521672921697       16.50822731719584
C           28.46720142093874       26.96289264253336       15.92316983774687
C           28.66859477336654       25.92915194813982       16.79072261213473
C           27.76151399916982       26.15294026111715       17.90451446679544
C           27.67931728607722       25.33932715484090       19.02942386309849
H           28.39930838742301       24.53326002241139       19.10362414043795
C           23.93142404003316       26.86888280937212       21.66653579272153
H           23.43491186689045       26.49131338119111       22.55063230345619
C           23.31209845700954       30.56334506375320       18.63298708095892
H           22.60784901125483       31.37812448516582       18.56112114799951
C           26.97759549129502       28.99315818944030       15.94391975030228
H           27.45470636706027       29.30183398784891       15.02308816998530
C           25.08106769688602       24.42464350354956       23.21601825630735
H           25.76984354941316       23.68323649640495       23.60947306451032
H           24.11588210756720       23.94312562658739       23.06653393639246
H           24.95625692035876       25.19999676346629       23.96840971464765
C           27.57768589768114       23.42590078735305       21.54320271211982
H           28.30478395889766       23.71782641805844       22.30260475022362
H           28.13042656718852       23.07739126462847       20.67677436970460
H           27.01929152562548       22.57963978727321       21.93942586732579
C           21.52167700667263       28.56499634607484       22.85799672405433
H           21.87769755995183       29.18758957597611       23.67961676709335
H           21.59577531235483       27.52940115547773       23.17335675637523
H           20.47096844429312       28.80294069191284       22.70049497796141
C           21.19791068779511       30.98130191746823       20.76754874551627
H           20.94785509374586       31.41600476869671       19.80615519673725
C           20.65028403699514       31.53038147125088       21.84700818761338
H           20.86484699172800       31.18319294423814       22.83859691993478
H           19.97551660835367       32.36797550824355       21.77555122177462
C           23.76621259543008       32.83149261350487       16.62939450641040
H           23.41190843177767       33.11488123579995       17.61721645844403
H           22.89518025850134       32.74295231805051       15.97867280881204
H           24.38578998517940       33.64258972378305       16.25842852023159
C           26.19647926845560       31.79461930551278       14.77194635313878
H           27.19981289424274       31.47468784297716       14.51609005910971
C           25.65570546938144       32.76406199483019       14.03739316075439
H           24.66091481790365       33.12943805981282       14.20388792795710
H           26.18957867744321       33.22719288503657       13.22304087526757
C           29.14001822624139       27.20337300386700       14.61424371116480
H           29.66918264580031       28.15387751003336       14.61906621918255
H           28.41345211116060       27.22743036951284       13.80431389913504
H           29.86125769759181       26.42062515690778       14.40021315985690
C           29.60861914501713       24.77659066197079       16.63873966367152
H           30.58182116395546       25.00523460640138       17.07347084179808
H           29.76467249498761       24.53897597548185       15.58941958364257
H           29.22497773939665       23.88479858974979       17.12550069568229
O           23.14549022909803       27.01209020935168       17.64997080588045
H           22.35451233530057       27.23651142006764       18.15371405996798
H           22.95646757807647       26.69222093561627       16.75460819865789
C           27.77234638590130       28.49764167545014       21.42300378410282
H           28.36622692935463       29.08307280707730       22.11665653309000
H           28.41129089246274       27.85759172112257       20.82775047086711
H           27.03706907503074       27.90006792329385       21.94486762551159
S           26.92952796097260       29.60761130350656       20.24650374918950
H           26.06082973827710       30.10292355488636       21.13942642366011
72
 energy: -105.959680053493 gnorm: 0.049476701178 xtb: 6.7.1 (edcfbbe)
Fe          25.38214380695205       27.91981861301575       18.78034789140676
N           25.73321201603983       26.39612058554247       20.09729316766593
N           23.88710056870124       28.58801295900327       19.94557912873483
N           25.19706230842257       29.49964991171855       17.52168846328972
N           26.96126896705033       27.26095018064743       17.66960514049128
C           26.72519970455661       25.46396575482188       20.04760039681345
C           26.65328426021731       24.58502564269347       21.19956234339190
C           25.58219771038886       25.00825716076383       21.93224265946401
C           25.02071200728644       26.14385886487590       21.22765215564305
C           23.40842784076918       28.02946545208074       21.09317909711673
C           22.31712928792070       28.82252684999491       21.61620691274677
C           22.13852759867980       29.86864400490508       20.73788534803458
C           23.13280534633082       29.68623272899364       19.69412975785674
C           24.30630309530881       30.51004296282793       17.67227401585935
C           24.51949035699778       31.53471630761374       16.67757811972734
C           25.56407446487342       31.10229443724999       15.89172576526804
C           25.96753559230050       29.81276499443085       16.44950031948373
C           27.40441346274004       27.79754838481065       16.50103007821527
C           28.44813683652594       26.96828392963315       15.92484279833909
C           28.64859232082652       25.93795030370397       16.79581779013607
C           27.72545380102446       26.15525877047297       17.89467145118531
C           27.65004467184955       25.34792143779257       19.01967012037796
H           28.37339201291657       24.54808940940976       19.09655123748442
C           23.92862866762691       26.87631364894160       21.67288272837674
H           23.44816012808559       26.51547184587026       22.57202133966934
C           23.31617570802160       30.56529687368673       18.64062744749301
H           22.62712156407786       31.39368294116543       18.57961669283395
C           26.96303811315970       28.99009165553265       15.94314068985311
H           27.45207590238273       29.30620948700309       15.03272066729483
C           25.07800177195575       24.43898078448805       23.21047979507117
H           25.77124810324585       23.69822041800781       23.59785358489415
H           24.11160117598813       23.95708601557342       23.06530550496471
H           24.95489936708002       25.21424747103552       23.96391247929972
C           27.56622098658644       23.45325115614853       21.52792331411820
H           28.29441670859867       23.74793296916628       22.28543182231867
H           28.11427587003184       23.10551953150964       20.65822077243896
H           27.00495610030774       22.60949148174442       21.92559414227652
C           21.53876481590294       28.55420744298371       22.85221589036240
H           21.90017340599628       29.17064180414947       23.67626208959072
H           21.60922395887942       27.51497289082229       23.15743934480036
H           20.48985055276575       28.80013063531697       22.69336743381299
C           21.20449938454785       30.96242239900779       20.77407616291521
H           20.95897282159509       31.39119043353886       19.80969551320562
C           20.65285668016462       31.51146599504784       21.85244763600846
H           20.87624245146857       31.18432118634882       22.85037072368968
H           19.97905270818123       32.34706938518119       21.77473351584215
C           23.77217715918656       32.81723493413463       16.63108458153146
H           23.42102331262411       33.09680988381515       17.62108840623764
H           22.90266542668349       32.73783032750447       15.97662107841463
H           24.40375016584900       33.62002729091281       16.26105608116678
C           26.18905455092836       31.77010623925774       14.78338673666972
H           27.19149284125288       31.44000932592857       14.53891765607704
C           25.65673653647070       32.74039199629823       14.04179610034085
H           24.65203876217365       33.09680015148098       14.17750635036251
H           26.20191391587721       33.20092577308734       13.23575049445069
C           29.12591517165965       27.21155402602954       14.62312242078896
H           29.65544994280310       28.16227100799869       14.62887669425326
H           28.40212111931730       27.23463331332999       13.80990266149247
H           29.84725078098856       26.42717212959796       14.41342337910418
C           29.59197399433563       24.79252916892467       16.65161792211859
H           30.56361731699790       25.02152504993698       17.09004907261115
H           29.75083553526516       24.55824766446685       15.60154122498142
H           29.20648145665085       23.89888652951907       17.13427238060508
O           23.28500643199755       26.96218731779377       17.72475404128640
H           22.45875390519609       27.31146145035700       18.14370179628440
H           23.04824580679712       26.76361966170834       16.78027266067261
C           27.78070688725062       28.48766059866729       21.41889333479805
H           28.36462659528736       29.09101854800934       22.10655215661057
H           28.42579051920551       27.84769217196671       20.83097860054617
H           27.04519972574332       27.89068864967525       21.94121902540071
S           26.94010680141487       29.57660058032330       20.21761265802826
H           26.05310035271260       30.07549811000277       21.09202903530653
72
 energy: -105.963896426165 gnorm: 0.038634158759 xtb: 6.7.1 (edcfbbe)
Fe          25.34505952745792       27.90218152926937       18.75978673153807
N           25.70012322900723       26.40676158973947       20.08652451158837
N           23.89335867331555       28.58302024951913       19.93999449190983
N           25.18966259360037       29.48421807186772       17.53292307271614
N           26.90110501274298       27.24593983298444       17.64537977559361
C           26.69369396115897       25.48188638667796       20.03448453764764
C           26.63862229157530       24.61280189487736       21.18862823144721
C           25.57266885591142       25.02882502644900       21.92752778180679
C           25.00328817388169       26.15330263879212       21.22372136614218
C           23.41645371749765       28.02822861381525       21.08946077949219
C           22.33763090285049       28.81454148676911       21.61621592694611
C           22.15263673510735       29.85807830428900       20.74082735086374
C           23.13722375111754       29.67995394234251       19.69361837150554
C           24.30276626516586       30.49665422616946       17.68173594462882
C           24.50722249737655       31.51002053163376       16.68299515651708
C           25.54673178429244       31.07328618813791       15.89847390206723
C           25.95439655305613       29.79518756127267       16.45786109702209
C           27.36353484940491       27.78617509696837       16.48982497792016
C           28.42224822789266       26.97313943866438       15.92949756546562
C           28.62134004452815       25.94918299683070       16.80382098864514
C           27.67801902466039       26.15484762471775       17.88363867080939
C           27.61426217692258       25.35779794831042       19.00901489253998
H           28.34387372843604       24.56730613340401       19.09076183566887
C           23.92644150445058       26.88570156413995       21.68380352200671
H           23.46507287175391       26.54605327702424       22.60089160293432
C           23.31986812879138       30.56648695077848       18.65122860819205
H           22.64940257618008       31.41146708519457       18.60273363157841
C           26.94358159343844       28.98319276797249       15.93951904416562
H           27.44744283423115       29.30956467083161       15.04230819510465
C           25.07662765224080       24.45839193481759       23.20828051840458
H           25.77736434202853       23.71802068722173       23.58805935548399
H           24.10817432975724       23.97505484725542       23.06689090147164
H           24.95652625575580       25.23570630395939       23.96277370421067
C           27.55730489772530       23.48750348531067       21.51240167429459
H           28.28683511145591       23.78918868994782       22.26758370983795
H           28.10007115844260       23.14219984635395       20.63664833201570
H           26.99237705141905       22.64594610539213       21.91304205313853
C           21.55895380980846       28.53864459565253       22.84784953305857
H           21.92905347890779       29.14726296578023       23.67553836023624
H           21.62544259335428       27.49292762533712       23.13875069796173
H           20.51156388554333       28.79550786502397       22.68643824587985
C           21.21163722428976       30.94177475359637       20.78096671628986
H           20.96498204384868       31.35967308648299       19.81226372176579
C           20.65850564540166       31.48991317693712       21.86016712759735
H           20.88846904451279       31.17835159042176       22.86475534751816
H           19.97699693351652       32.31767875863577       21.77322659683449
C           23.77543026599163       32.79845485768542       16.63076565491522
H           23.42816787340681       33.07564533537146       17.62421216349462
H           22.90751346595711       32.72851415530105       15.97099851786655
H           24.42512095504997       33.58944873088872       16.25979352762224
C           26.17767989233026       31.73429429597803       14.79099902733327
H           27.18308115914129       31.39863300447436       14.56575396223889
C           25.65136924828232       32.70212651755215       14.03939642198406
H           24.63858698149075       33.05386144528789       14.14933019612912
H           26.21458883244368       33.16419671257233       13.24706253867716
C           29.10879857583860       27.22093869193148       14.63369261929861
H           29.63876085012250       28.17348171048570       14.64245165216455
H           28.38681511529943       27.24290564305347       13.81612460554224
H           29.83185624786626       26.43363891898567       14.43022118704381
C           29.57339061513873       24.81125283989055       16.67017254604507
H           30.54286097120923       25.04437288329826       17.11471785493208
H           29.73691164834600       24.58115533136917       15.61778287568249
H           29.18526345456911       23.91495846768789       17.14983664241494
O           23.41210419127833       27.12367956641161       17.69332408319593
H           22.62215454800691       27.30929806138851       18.16824913892044
H           23.16518648434218       26.76355924624714       16.84723139384547
C           27.78971150702894       28.48162617882885       21.41177799152183
H           28.36113544890400       29.10419281706525       22.09618063800718
H           28.44620956310334       27.83870056500048       20.83653357117529
H           27.05236552964558       27.88435784037125       21.93584926027239
S           26.95722364141125       29.55099088378453       20.18290755945852
H           26.04209538997913       30.04516535151850       21.03079520976238
72
 energy: -105.967476736989 gnorm: 0.016142838848 xtb: 6.7.1 (edcfbbe)
Fe          25.40009154604732       27.95764580046465       18.81055416729479
N           25.67860573562954       26.40983287218654       20.07577696112211
N           23.90588560476034       28.58909101603220       19.94727281915677
N           25.18584670543674       29.47647676681935       17.54338746566964
N           26.87271519801793       27.23794432960972       17.63289591745572
C           26.67123840237366       25.48142200142969       20.02266801071172
C           26.62630837058603       24.61834934079806       21.18152194001114
C           25.56669210371066       25.03525961127318       21.92588181365453
C           24.99309841294009       26.15715801193211       21.22303032167526
C           23.42134342692898       28.03342709609874       21.09551563608555
C           22.34079174794568       28.81711100454907       21.62075740386176
C           22.15642516119050       29.85936674231707       20.74703524923066
C           23.14234303086158       29.68457460445807       19.70218627334374
C           24.29784824434264       30.49325671441481       17.68758863416844
C           24.50060682326650       31.50216877959031       16.68395302951307
C           25.53407399176105       31.06041979278095       15.89780249332163
C           25.93822985628957       29.78271273836360       16.45537181649170
C           27.33863870149401       27.77653457149554       16.47719265708845
C           28.40258502913169       26.96780547919983       15.92395452636307