78
 energy: -116.058077760177 gnorm: 0.000118178920 xtb: 6.7.1 (edcfbbe)
Fe          -5.56086780926176       56.93007123291759       20.98667308391381
N           -6.31403959814545       56.01624899649507       22.61500637090959
N           -6.45738039994529       58.64556035117425       21.55253903168575
N           -4.76997800016420       57.85952669095507       19.41046954136727
N           -4.63605355147989       55.24248597672408       20.47407108032060
C           -6.16526196461413       54.70915403846393       22.95868173103997
C           -6.89363202426708       54.41303295878882       24.17108826996901
C           -7.49164823169246       55.57417954477294       24.55273013263103
C           -7.12319427145214       56.56338361850519       23.56540362587604
C           -7.24701280383365       58.84003242948900       22.64734619963759
C           -7.75233969801485       60.18669693452459       22.68174474645554
C           -7.26158620375501       60.81122380367692       21.56413286314202
C           -6.44817965026329       59.82661673149417       20.87981819498258
C           -4.97533931130558       59.15104851736314       19.03433696913360
C           -4.25440890880774       59.45403764167434       17.82293392418971
C           -3.60191398147116       58.30435968553437       17.46744162040087
C           -3.93972799737215       57.32408029572038       18.48249613211622
C           -3.83008403082115       55.05255601894715       19.39832589288370
C           -3.35611367272632       53.68552980606411       19.34647129009294
C           -3.89999955446153       53.05398466087811       20.41955423568669
C           -4.69746059974526       54.04459740528308       21.11156716875802
C           -5.41166854479830       53.78141783077877       22.26421100512742
H           -5.37653914729391       52.77624674616829       22.65540302432929
C           -7.55326292298864       57.87596784559286       23.59463373501211
H           -8.20044525095092       58.16625187821889       24.40817687331897
C           -5.76889376880944       60.06680932105807       19.70135783431580
H           -5.86637481808611       61.04836516594912       19.26366476911611
C           -3.49948692969526       56.01367422804519       18.46283362121496
H           -2.85226312079720       55.71518621459599       17.65221545777194
C           -8.36090536773855       55.84604062288820       25.73280346544191
H           -8.48812003727898       54.94894543297662       26.33355851930442
H           -9.34644902767030       56.18789030518430       25.41492911452407
H           -7.92265066061706       56.62058448052777       26.36289836974984
C           -6.93289365510214       53.07298868190257       24.82169228737956
H           -5.92908460644804       52.75455177405244       25.10389376836325
H           -7.34355267390094       52.32835393658224       24.13954620371012
H           -7.54935365223320       53.09448729171344       25.71708637313192
C           -8.58237188880246       60.76409596315341       23.77521790565649
H           -8.27154151988397       60.37403063323208       24.74339303157641
H           -9.63723951819527       60.52031545682306       23.63651907889355
H           -8.48041341271951       61.84737890620525       23.78769859188940
C           -7.44894728113434       62.17582832814018       21.12452992010685
H           -6.60884902625674       62.61857743586172       20.60215101563851
C           -8.54850004432995       62.90100427460438       21.30283901663276
H           -9.43061482617050       62.50055384561809       21.77117408029833
H           -8.61238504495563       63.92013291586822       20.95924914625847
C           -4.19811200604322       60.79056294124618       17.16930893044344
H           -4.15044225501049       61.58269402102168       17.91507847095734
H           -5.08242217325731       60.96032944472173       16.55266130499319
H           -3.31744164294206       60.85807814986113       16.53393682470016
C           -2.72025122411774       58.06007924578914       16.34734980279193
H           -1.90686635609528       57.36878882973144       16.53511939541333
C           -2.83868051572315       58.60235824576077       15.13969670272606
H           -3.65234153628024       59.25838514052638       14.88353686205272
H           -2.13404900668680       58.38680308273999       14.35356365764347
C           -2.44741378992651       53.15043974729827       18.29361458204010
H           -1.50206072731718       53.69328287351342       18.29363227896587
H           -2.89811503688414       53.25656335883757       17.30646379681594
H           -2.23703509112355       52.09718989534086       18.46246918352742
C           -3.74912280291201       51.63834132511197       20.86021567984575
H           -3.10498095974593       51.08791687553379       20.17896011577447
H           -4.71893701721759       51.14115118318978       20.89286563688894
H           -3.31173344973561       51.59228234830798       21.85778996825789
O           -3.80993504963000       57.56687499526019       22.32543959223641
H           -4.01808380601990       57.05111708168889       23.11220209403899
H           -4.06579638272178       58.47759537577860       22.50806064814021
C           -9.06034627286724       55.20536428643145       17.00573949317450
H           -9.71841340687121       55.94631518470010       16.55204019577891
H           -9.64008211436129       54.30044684263317       17.18764361045716
H           -8.26313007735421       54.97350473522599       16.30657783872900
N           -9.24953877678919       56.10440666448176       19.33543214686038
H          -10.25529598808046       56.07928546188644       19.37250976920003
C           -8.47752061015222       55.72184187317723       18.26987435132027
C           -8.41704740491372       56.52185207192841       20.31543792931183
H           -8.74496977463741       56.87970821596717       21.26936609498889
N           -7.16607253414746       56.42661520442784       19.93570771259702
C           -7.18725827717177       55.92994850204637       18.66537170511807
H           -6.27947492281163       55.75778994065572       18.12482531024182
