78
 energy: -115.965555046929 gnorm: 0.265669462195 xtb: 6.7.1 (edcfbbe)
Fe          -5.67100000000000       56.90100000000000       20.95800000000000
N           -6.27600000000000       56.04400000000000       22.68100000000000
N           -6.48700000000000       58.68000000000000       21.60100000000000
N           -4.80100000000000       57.87500000000000       19.44000000000000
N           -4.46200000000000       55.26799999999999       20.61499999999999
C           -6.03700000000000       54.74900000000000       23.06500000000000
C           -6.64100000000000       54.52000000000000       24.37000000000000
C           -7.23300000000000       55.66299999999999       24.74400000000000
C           -7.02100000000000       56.63300000000000       23.68600000000000
C           -7.30500000000000       58.83799999999999       22.70000000000000
C           -7.88300000000000       60.18800000000000       22.63500000000000
C           -7.41700000000000       60.76700000000000       21.52200000000000
C           -6.51900000000000       59.81700000000000       20.86000000000000
C           -4.99800000000000       59.19700000000000       19.05000000000000
C           -4.13600000000000       59.51400000000000       17.92800000000000
C           -3.44400000000000       58.41699999999999       17.65300000000000
C           -3.85900000000000       57.37400000000000       18.58800000000000
C           -3.82900000000000       55.07999999999999       19.41500000000000
C           -3.61700000000000       53.64700000000000       19.22900000000000
C           -4.16300000000000       53.03100000000000       20.28400000000000
C           -4.73200000000000       54.04100000000000       21.15800000000000
C           -5.36000000000000       53.80100000000000       22.34200000000000
H           -5.32200000000000       52.78800000000000       22.74200000000000
C           -7.51300000000000       57.93800000000000       23.71400000000000
H           -8.09000000000000       58.25700000000000       24.58200000000000
C           -5.87100000000000       60.05800000000000       19.67900000000000
H           -6.06200000000000       61.01500000000000       19.19300000000000
C           -3.38700000000000       56.07300000000000       18.59100000000000
H           -2.60100000000000       55.82200000000000       17.87900000000000
C           -8.05800000000000       55.97900000000000       26.02600000000000
H           -8.11300000000000       55.07200000000000       26.66500000000000
H           -9.08800000000000       56.28400000000000       25.74400000000000
H           -7.56500000000000       56.79300000000000       26.59900000000000
C           -6.55700000000000       53.16100000000000       25.10400000000000
H           -5.50100000000000       52.81500000000000       25.12400000000000
H           -7.17300000000000       52.40700000000000       24.56900000000000
H           -6.91800000000000       53.27500000000000       26.14800000000000
C           -8.81000000000000       60.77100000000000       23.71400000000000
H           -8.67900000000000       60.20499999999999       24.66100000000000
H           -9.86800000000000       60.68500000000000       23.38600000000000
H           -8.55300000000000       61.83700000000000       23.89400000000000
C           -7.67700000000000       62.18400000000000       20.98900000000000
H           -6.93900000000000       62.72200000000000       20.37700000000000
C           -8.84600000000000       62.76200000000000       21.29200000000000
H           -9.59000000000000       62.23000000000000       21.90400000000000
H           -9.07700000000000       63.77600000000000       20.93300000000000
C           -4.05800000000000       60.89200000000000       17.22400000000000
H           -4.46200000000000       61.67699999999999       17.89900000000000
H           -4.66200000000000       60.87200000000000       16.29200000000000
H           -3.00000000000000       61.13200000000000       16.98500000000000
C           -2.35500000000000       58.15900000000000       16.57200000000000
H           -1.51200000000000       57.47699999999999       16.75400000000000
C           -2.45400000000000       58.78400000000000       15.40000000000000
H           -3.29100000000000       59.46999999999999       15.20200000000000
H           -1.70000000000000       58.62199999999999       14.61600000000000
C           -2.91900000000000       53.00800000000000       18.00700000000000
H           -1.81700000000000       53.09199999999999       18.12300000000000
H           -3.22500000000000       53.53900000000000       17.08000000000000
H           -3.19300000000000       51.93400000000000       17.93700000000000
C           -4.22600000000000       51.50100000000000       20.57700000000000
H           -3.45000000000000       50.97699999999999       19.98000000000000
H           -5.22500000000000       51.10600000000000       20.29500000000000
H           -4.03600000000000       51.31700000000000       21.65600000000000
O           -3.91000000000000       57.79700000000000       22.62800000000000
H           -4.04100000000000       57.30499999999999       23.43900000000000
H           -3.30200000000000       58.43099999999999       22.49000000000000
C           -9.16900000000000       54.74600000000000       16.92100000000000
H           -9.02100000000000       55.35700000000000       16.00500000000000
H          -10.25700000000000       54.57999999999999       17.07200000000000
H           -8.65100000000000       53.77200000000000       16.79100000000000
N           -9.12200000000000       56.48799999999999       18.84700000000000
H          -10.02300000000000       56.88900000000000       18.68600000000000
C           -8.59300000000000       55.47700000000000       18.11500000000000
C           -8.26100000000000       56.85500000000000       19.80099999999999
H           -8.47600000000000       57.58499999999999       20.58000000000000
N           -7.11400000000000       56.17200000000000       19.62200000000000
C           -7.28300000000000       55.35500000000000       18.54300000000000
H           -6.46500000000000       54.75399999999999       18.16500000000000
78
 energy: -116.022291252272 gnorm: 0.110837493295 xtb: 6.7.1 (edcfbbe)
Fe          -5.58558836933384       56.92989917617880       21.00249426877980
N           -6.29386975661571       56.04144451314237       22.67831699778450
N           -6.52456290293418       58.66830979951728       21.57645967284010
N           -4.78259500966070       57.88536084020938       19.43565727554317
N           -4.51044136824288       55.25457979652147       20.58120028157667
C           -6.04685785750176       54.75538616648105       23.07411203189910
C           -6.64384202376616       54.51140002833704       24.37745124222538
C           -7.24534883146608       55.66632864868037       24.75309474302172
C           -7.02357809219826       56.62606083132520       23.68437487652512
C           -7.30569521339912       58.85338785479755       22.68655737674655
C           -7.88028944401357       60.19712668382132       22.64606365478929
C           -7.40997441514349       60.79237991229033       21.51741529596114
C           -6.54303128457794       59.81861762245476       20.85721059242272
C           -4.99341099488304       59.19018382427129       19.04418234281924
C           -4.13577416300846       59.51739504442194       17.91887421194361
C           -3.41503242505648       58.40190559865471       17.64387789268874
C           -3.84021953055613       57.37899015438837       18.59188696274464
C           -3.82157173123655       55.06206335531047       19.42172426509970
C           -3.60148506295093       53.63594897233410       19.22359241434491
C           -4.15492738118357       53.00743330417180       20.28800803827524
C           -4.72610214951265       54.03155755405844       21.14267586616893
C           -5.36023714047774       53.80275986395979       22.34466797229532
H           -5.32950184232462       52.79457839000435       22.74092061343863
C           -7.50576172356762       57.93147891881789       23.69909028820648
H           -8.08300681648536       58.24230882073000       24.56331694814860
C           -5.87299528798956       60.05609933057988       19.67345048192941
H           -6.04793592513609       61.01559183981117       19.19999588989363
C           -3.38008333236020       56.07183148745573       18.58962319995391
H           -2.62021060317501       55.81604700740347       17.86046943877499
C           -8.04496878804797       55.97206205057597       26.01007480938968
H           -8.10921544600811       55.08656568851462       26.65030120855348
H           -9.06353945726481       56.27835730684407       25.74545306020438
H           -7.57258444320773       56.77859765364875       26.58284208365787
C           -6.55715518640456       53.17978311079531       25.09753376866241
H           -5.51987809501253       52.82594140845625       25.12361135734784
H           -7.16275218086791       52.42618922850409       24.57960291298628
H           -6.91462731834173       53.27378476330621       26.12738512254887
C           -8.79650164347886       60.76196794864688       23.70777008554407
H           -8.68022475032217       60.21504570988753       24.64811968476341
H           -9.84651554199781       60.68294941337941       23.39731917496695
H           -8.55883752774676       61.81654855812648       23.88816714942561
C           -7.69002061893128       62.16360828526562       21.00801549597695
H           -6.94808734053081       62.67934350334581       20.39910758998595
C           -8.84330722264437       62.76247781298549       21.29119108585953
H           -9.59415955407130       62.25443396352453       21.87970571012031
H           -9.07169077997918       63.76273051786691       20.93713633332468
C           -4.06259233446536       60.87483050149746       17.23988690473419
H           -4.45534280577883       61.66153597313241       17.89183362623772
H           -4.65283171338948       60.87230899233043       16.31523774006998
H           -3.02338063663339       61.11886212413358       16.99040896624564
C           -2.37900493504529       58.17584248789452       16.58248057791835
H           -1.55258334573045       57.49344284057597       16.77837348639770
C           -2.45621527910250       58.78591550267609       15.40592454417827
H           -3.27554227744016       59.45703618639418       15.18608681090351
H           -1.71319035005740       58.62536575433805       14.62996065522534
C           -2.92248412170930       53.01725861594289       18.02007597055681
H           -1.83322737424772       53.09327029764830       18.12130064263122
H           -3.22104184516703       53.53077531611707       17.09969107347780
H           -3.18889854358986       51.95857328917488       17.93767147372538
C           -4.22186545215931       51.51643326861881       20.57208256509860
H           -3.46171309134907       50.98703715370629       19.98997939097211
H           -5.20752525794477       51.11821148016826       20.30341925136170
H           -4.04074118358758       51.32292146560746       21.63413893519709
O           -3.93678350150481       57.76471940740802       22.60250618927201
H           -4.04224958307586       57.30723306716024       23.43409998510987
H           -3.29385760834117       58.44079462998330       22.48483440719115
C           -9.16697607160896       54.76357529500378       16.92744609507372
H           -9.02933396620151       55.34838209818545       16.01068657604387
H          -10.23933949385218       54.58419088418903       17.06939195168024
H           -8.66217044445851       53.80097871170797       16.79850781509453
N           -9.13276168471625       56.46777119268024       18.84705141508014
H          -10.04260754072073       56.86615205165611       18.68738039664871
C           -8.56230246359427       55.48813631126456       18.09453245444168
C           -8.25681341982063       56.85400411150366       19.79311273739376
H           -8.47434681445369       57.57605910575624       20.56072575024168
N           -7.10763289036237       56.20185020663388       19.65074149059689
C           -7.27732356515471       55.36641459852562       18.58045984580348
H           -6.47132383112129       54.75927481458071       18.20686850523726
78
 energy: -116.040224034689 gnorm: 0.026025124111 xtb: 6.7.1 (edcfbbe)
Fe          -5.54191931312383       56.94735152661502       21.03339065994446
N           -6.28549737838924       56.04406318367677       22.68557317272382
N           -6.53555756150235       58.65995935737423       21.56115039931047
N           -4.74517548685566       57.89834744464562       19.45639275504606
N           -4.55054639733877       55.25679558045638       20.55912411204090
C           -6.05123648517805       54.76175488171219       23.07794391299075
C           -6.64406688589431       54.50808316570458       24.37737961581253
C           -7.25246796581554       55.66937654445166       24.75382427897516
C           -7.02129859983510       56.61991029300491       23.67911610683508
C           -7.30429058162651       58.85839178330338       22.66896472766664
C           -7.87659645853286       60.19032233609273       22.65098327634464
C           -7.41100201800420       60.79742003564156       21.50880578322127
C           -6.55782969291474       59.81639376550510       20.85281625583591
C           -4.97792541324249       59.18256194624420       19.05356063568655
C           -4.14078847895037       59.51555268401538       17.91721107913477
C           -3.39869343573814       58.39223688112059       17.64177264001363
C           -3.81503546801958       57.38702000401407       18.60821329822913
C           -3.82768504101010       55.05566685754064       19.42659412274130
C           -3.58918982366501       53.63789243589440       19.22614636612058
C           -4.14822034246182       53.00057995385476       20.29445876710756
C           -4.73313512383216       54.03427269532855       21.12600623132716
C           -5.36863081166031       53.80828018099742       22.33763080726714
H           -5.33732247984066       52.80392113023085       22.73341890227739
C           -7.50234807073539       57.92064285488978       23.67697395426445
H           -8.08014623004928       58.22684528459001       24.53791359280648
C           -5.86813051766271       60.05154704305797       19.67195112879268
H           -6.02625280308860       61.01446979236460       19.20772257351798
C           -3.38285748758481       56.06976203682507       18.58713514033769
H           -2.65289483543721       55.80223418414793       17.83537515016917
C           -8.03267500243712       55.96621624452728       25.99093655676842
H           -8.09869084755487       55.09093139332774       26.63087110263169
H           -9.04643348423862       56.27500417172514       25.73897317811153
H           -7.57098459437802       56.76992925377522       26.56345586095541
C           -6.55966306428968       53.20010538850791       25.09074427160019
H           -5.53171845647282       52.84310363314980       25.12063759303501
H           -7.15892262812466       52.44552645510333       24.58138094479143
H           -6.91780355645870       53.28437833094853       26.11269829877465
C           -8.77696159990133       60.75009616394539       23.70182757708851
H           -8.66684239569503       60.21638211863844       24.64068892309090
H           -9.82356441223837       60.67196007912662       23.40243183849065
H           -8.55594536962304       61.80194086213761       23.87584781664833
C           -7.70065231774143       62.13181464052428       21.02820894795989
H           -6.94917886066475       62.62436786172424       20.42152351550113
C           -8.84206233516567       62.76299301174465       21.28937952913587
H           -9.61449389906537       62.28265324136565       21.85702267272760
H           -9.05556337856078       63.75587526433677       20.93380123459519
C           -4.06909582831286       60.85279714362309       17.25408757876017
H           -4.44985145246788       61.63817395089304       17.90027081358073
H           -4.65636850390751       60.86641049495679       16.33533536236724
H           -3.03919357374203       61.09421773732050       16.99421995894708
C           -2.41157018736612       58.19274423262237       16.60084500776915
H           -1.60033697011231       57.50555005112120       16.81274934576026
C           -2.45978917915509       58.78966674361081       15.41389470821508
H           -3.26667522161897       59.45048047223172       15.16165576050933
H           -1.71738644308588       58.62523089194421       14.65088049860325
C           -2.92189162590420       53.02987518619860       18.03818941776315
H           -1.83784077231745       53.10077593270788       18.12293299863979
H           -3.22072654048540       53.53396695361443       17.12209687182468
H           -3.18520362599246       51.97898224378304       17.94672686943955
C           -4.21528723318147       51.53686637781304       20.56928037976751
H           -3.46695136564031       50.99969513388164       19.99350197516204
H           -5.19562856563832       51.13675518374028       20.30938744680828
H           -4.04174459382885       51.33253669163546       21.62265202096910
O           -3.93488650844716       57.70215966073507       22.54155102571852
H           -4.04531456668407       57.32851958707432       23.42203922113990
H           -3.31784900011309       58.43941157938242       22.48002370403224
C           -9.15667140634164       54.77953694394795       16.93386008019955
H           -9.03609314412064       55.35033451186390       16.01431831527821
H          -10.21883397994796       54.60258946620131       17.08885969259659
H           -8.66363598763413       53.82109994721689       16.80204000358826
N           -9.14836242495022       56.44878431745987       18.84561021549375
H          -10.06606703788713       56.83582927740623       18.68868533634442
C           -8.53102563417384       55.49576166252196       18.07945349517470
C           -8.26771366957266       56.85440877341608       19.78621124424772
H           -8.48807971337061       57.57543980243543       20.54354840642515
N           -7.12295092739106       56.22792823656653       19.67208237531185
C           -7.26953228268728       55.38287153005039       18.60757772446761
H           -6.47054464332129       54.76166530411438       18.25445283664727
78
 energy: -116.043599504034 gnorm: 0.062148108823 xtb: 6.7.1 (edcfbbe)
Fe          -5.52888341230849       56.95142640246561       21.04528829635492
N           -6.28192041302065       56.04190570937423       22.68118098811525
N           -6.53197593152068       58.65224026734460       21.55573617874687
N           -4.71908485909032       57.90366416788054       19.48096152082332
N           -4.56896779836098       55.26060712438557       20.55042034750898
C           -6.05214466793517       54.76171593456190       23.07247160170331
C           -6.64588203557876       54.50848862224993       24.36832686591624
C           -7.25471557012850       55.66884414596458       24.74362546554999
C           -7.01880562524735       56.61582736089163       23.67095773616637
C           -7.30198547644181       58.85035439345752       22.66086355752573
C           -7.87737568519882       60.17217982945171       22.65004678348019
C           -7.42112692152823       60.78209867060893       21.50320421725553
C           -6.56082980734631       59.81078223228075       20.85090059551985
C           -4.96281685443082       59.18072258154811       19.07391199827189
C           -4.14725651432044       59.51208251128519       17.92753116476408
C           -3.40323848584496       58.38964434451723       17.64711104410674
C           -3.80102804131726       57.39046009475585       18.62381277699086
C           -3.83653046183450       55.05874774754565       19.42563294139580
C           -3.58534504178421       53.64611130922853       19.23039006208466
C           -4.14633080990630       53.00685425443294       20.29661531764085
C           -4.74405989384278       54.03853307432350       21.11737287573371
C           -5.37643780521791       53.80876502793068       22.32886091098994
H           -5.34816587655818       52.80408788480662       22.72260793642414
C           -7.50135664756835       57.91138569555890       23.66542804809956
H           -8.09057684786730       58.21260347704011       24.51892449337445
C           -5.85868128377835       60.05042300143015       19.67973454427527
H           -6.00533884736554       61.01558947746560       19.21744241177410
C           -3.38951607717236       56.06784583952302       18.58333801472208
H           -2.69149041988124       55.78735356646933       17.80349989578142
C           -8.02779106514092       55.96538247131769       25.98014371850418
H           -8.08937096951684       55.08887575900718       26.61894057278413
H           -9.04258747309567       56.27503769762579       25.73224442007325
H           -7.56352381401328       56.77035218451845       26.54952437714343
C           -6.56300514154348       53.20820714706014       25.08697459959717
H           -5.53420248385422       52.85382089167095       25.12134634804993
H           -7.16076291741515       52.45168665001155       24.57845912270118
H           -6.92630226368965       53.29806644043210       26.10679659761037
C           -8.76456153789421       60.73672779027913       23.70348622242131
H           -8.64178445548942       60.21385385123807       24.64749723963140
H           -9.81332335928937       60.65123893336482       23.41332883617574
H           -8.54668092236745       61.79232731567593       23.85960043621112
C           -7.71067644936622       62.11162131304568       21.02979971342253
H           -6.94594733853427       62.58843163428277       20.42788856558346
C           -8.84194002483688       62.76958352811397       21.27869874850718
H           -9.64299173687749       62.31099633002983       21.83041197530206
H           -9.02547250928203       63.76734624509503       20.92066472102577
C           -4.07841316961323       60.84245287056806       17.26426467552784
H           -4.44288621693067       61.62902534236000       17.91908146636345
H           -4.67789281476897       60.86184332830786       16.35341609721066
H           -3.04883385914902       61.06996741380982       16.98930575257554
C           -2.42765168265931       58.19547922018470       16.60549594458181
H           -1.62452790273041       57.50303558044460       16.82880831615260
C           -2.45588332020197       58.79043820762821       15.41536675850447
H           -3.25971686907333       59.44772633400196       15.13736029967298
H           -1.70196751699860       58.62065651461452       14.66669822470931
C           -2.91271273712666       53.04243364486431       18.04705236047828
H           -1.82828174262183       53.11639747900789       18.12817331341136
H           -3.21710534753525       53.54690046078520       17.13261691585545
H           -3.17496697828695       51.99113818766604       17.95636820446382
C           -4.21005735874235       51.54628528876167       20.57206500347997
H           -3.46429640861763       51.00892742163690       19.99253898216835
H           -5.19325979209363       51.14955046526786       20.31498220278322
H           -4.03542318795441       51.33969781645153       21.62533745791389
O           -3.85247887527658       57.58355410190073       22.45726180185160
H           -4.07293901370618       57.37587979615194       23.41395701791014
H           -3.36428218692580       58.45852171642932       22.47135552093165
C           -9.13986572925134       54.79054614665100       16.94093869890569
H           -9.03454419688773       55.36127116038326       16.01856830789098
H          -10.20029542928449       54.62036005956269       17.11410691667215
H           -8.65264898802173       53.83067907103104       16.80112053893757
N           -9.16308882712699       56.44215514271788       18.84382037799597
H          -10.08992173147342       56.80536495829698       18.68340707114871
C           -8.51202079020231       55.50165908246833       18.08414166876950
C           -8.29723810492818       56.86604697747278       19.79093897324982
H           -8.53309467889022       57.59229006062639       20.53865970574446
N           -7.14405354553331       56.25765728059698       19.69540874556390
C           -7.26196021473523       55.40174559967559       18.63730608330552
H           -6.45689820804904       54.77141233812586       18.31507178942908
78
 energy: -116.046430542713 gnorm: 0.027808787958 xtb: 6.7.1 (edcfbbe)
Fe          -5.52149718383091       56.95346895153881       21.05430010450492
N           -6.27627888563726       56.04030760228923       22.67454377657208
N           -6.52330842928637       58.64423717876795       21.55179140472695
N           -4.69317502545367       57.90702938595966       19.50882582093034
N           -4.58954803528231       55.26632652522347       20.54140076645202
C           -6.05169783817936       54.76147432539508       23.06444928059211
C           -6.64760444770083       54.51072734248753       24.35625895642886
C           -7.25607305802072       55.66816496272970       24.72971703290504
C           -7.01636908980828       56.61216338580689       23.66083377478354
C           -7.30036537946348       58.83868395003792       22.65258442161213
C           -7.88097495724787       60.14886392391957       22.64623243523150
C           -7.43576026737254       60.76044738388622       21.49660349727843
C           -6.56391341974161       59.80356629530792       20.84731969076195
C           -4.94739476940051       59.17883694796757       19.09837069538782
C           -4.15592555269283       59.50739310839221       17.94170361107077
C           -3.41297783730170       58.38861629907385       17.65525333098317
C           -3.78803024951775       57.39325071316335       18.64080996836636
C           -3.84715522653025       55.06515487046959       19.42363637671571
C           -3.58043782460770       53.65761166112478       19.23726795312614
C           -4.14297029307772       53.01780465842997       20.29959398865365
C           -4.75753095314300       54.04478590285078       21.10928137902971
C           -5.38503781515875       53.80912330113031       22.31853386050208
H           -5.35958179829266       52.80372696799805       22.71067524796493
C           -7.50292213876898       57.90121044104869       23.65327639032454
H           -8.10689021971932       58.19689842467896       24.49748612681626
C           -5.84899933947105       60.04922676178071       19.68872562087536
H           -5.98375946455088       61.01608856336674       19.22640220374194
C           -3.39826584129602       56.06591644587446       18.57857932619531
H           -2.73385754277025       55.77258860622884       17.77040127298509
C           -8.02457409050652       55.96541219510503       25.96884740359267
H           -8.07992763372924       55.08571186532855       26.60645190427630
H           -9.04159487758879       56.27498990885021       25.72368819864208
H           -7.55564512159535       56.77264995483438       26.53441580588497
C           -6.56630560301028       53.21578398081488       25.08322309323371
H           -5.53469941796198       52.86575206458481       25.12336086468239
H           -7.16254894046114       52.45632723744686       24.57449303124286
H           -6.93640932393116       53.31441174915469       26.10163313510358
C           -8.75540197295700       60.72152734729372       23.70381775290974
H           -8.61511145197265       60.21150806832097       24.65533887706409
H           -9.80747573784273       60.62567088056641       23.42431141482327
H           -8.53960399580878       61.78259185464911       23.83769803264931
C           -7.72429078949357       62.09071620244421       21.02819527697408
H           -6.94497363659530       62.55191419448446       20.43199947726590
C           -8.84508954301749       62.77497472541319       21.26435340119085
H           -9.67645491479725       62.34169392890716       21.80273599192632
H           -8.99369419548806       63.77922305986596       20.90160662005689
C           -4.08979881190672       60.83279318184745       17.27473711970558
H           -4.43517612342669       61.62181206435969       17.94076538664827
H           -4.70558899453494       60.85678015941758       16.37325193870496
H           -3.05945747628656       61.04353941051716       16.98190428407383
C           -2.44231287593083       58.19763966955465       16.60976502574504
H           -1.64656312416760       57.50034855574322       16.84602184054816
C           -2.45072158006769       58.79129784069320       15.41731549166447
H           -3.25039791901111       59.44806282352048       15.11195951685486
H           -1.68156784743348       58.61440098382662       14.68527956358219
C           -2.89856120556635       53.05707713700253       18.05702065763188
H           -1.81296039212720       53.13675662579293       18.13677095702992
H           -3.20990897701270       53.56301479986827       17.14354601986691
H           -3.15901810407667       52.00366676183496       17.96860320242634
C           -4.20181216455381       51.55597187188557       20.57743523643907
H           -3.45738683893492       51.01972042268068       19.99196116359281
H           -5.18946917551123       51.16321887621406       20.32296652831972
H           -4.02377826700381       51.34889273739954       21.63193644237413
O           -3.92143548478616       57.63762120806627       22.45143467964379
H           -4.02181419142460       57.32704294950945       23.34188241894218
H           -3.33717822624025       58.39051460859352       22.43451600338077
C           -9.11782067383103       54.80006155566842       16.94968044472758