72
 energy: -105.980606733813 gnorm: 0.000051660076 xtb: 6.7.1 (edcfbbe)
Fe         -16.13509430547029       -3.65474182525204       18.27225057217494
N          -15.45835915221951       -4.43538324573969       19.97185452813811
N          -16.69952917666257       -5.48702375446793       17.65502957048615
N          -16.76782015632737       -2.88237808303053       16.51820363702614
N          -15.50555924683293       -1.85157644551903       18.83298296929018
C          -14.90501448279515       -3.76186252750813       21.01052824287299
C          -14.55172734153671       -4.66995089423275       22.08109797640816
C          -14.89201638060737       -5.91379120224280       21.65327873348772
C          -15.45843667049983       -5.74598691708565       20.33181275182936
C          -16.52793790657563       -6.66246699519497       18.32270668702601
C          -17.06568462037823       -7.76289173912630       17.56797432520847
C          -17.58163258248404       -7.22665748747069       16.41694247911510
C          -17.32786559050621       -5.80256304008555       16.49004016455199
C          -17.42380485057960       -3.54435952991386       15.52263665609586
C          -17.76682585189375       -2.64580821413937       14.45230736727412
C          -17.29363330073199       -1.41289019392522       14.81804648685042
C          -16.68984684258930       -1.58548104690904       16.12268722274287
C          -15.56854550342796       -0.70004657923608       18.11571942762832
C          -15.01709594411042        0.40460120027815       18.87167018561180
C          -14.63555363136639       -0.10830494777128       20.07036490433694
C          -14.94563493898265       -1.52132052139593       20.02398542351482
C          -14.67680992798548       -2.40016194874118       21.05370377450867
H          -14.23042334965383       -1.99765372032509       21.94960952969198
C          -15.94443651377928       -6.79006550451287       19.57173656804871
H          -15.87864091325599       -7.78221927528547       19.99021166778181
C          -17.69434667589571       -4.90146236501419       15.50839288894376
H          -18.21592619074186       -5.29127102620588       14.64850799740734
C          -16.10365567466616       -0.56642293429514       16.84966089116467
H          -16.08367704739873        0.41577470691504       16.40436127636258
C          -14.74561111266356       -7.22560477861878       22.34408900519356
H          -14.29458645799406       -7.09707475006360       23.32473338472524
H          -14.11320993776958       -7.89561361910942       21.76147737298522
H          -15.71716873131546       -7.70362121837760       22.47307683818158
C          -13.93016908322572       -4.24913015786637       23.36768638128788
H          -14.56353397036603       -3.52553111098452       23.88116150752558
H          -12.96098510154656       -3.78342096257667       23.18872079189812
H          -13.78354825830470       -5.10324097014520       24.02410844661705
C          -16.99008175223465       -9.19390189072585       17.96971152279560
H          -17.78873166042090       -9.44574153643722       18.66965429608945
H          -16.03821252497598       -9.40794783209525       18.45323668501839
H          -17.08790151873397       -9.83224687228430       17.09402505547774
C          -18.22346050995320       -7.89354047362868       15.30533941662713
H          -18.04235572149989       -7.45853144384934       14.32925284020853
C          -19.00258398812724       -8.96584768794590       15.39834513064293
H          -19.25461673427979       -9.41127957231002       16.34488286908773
H          -19.43899818437017       -9.42158972196084       14.52528543579042
C          -18.54095556455074       -3.01781358906917       13.23680880576051
H          -19.32677224165865       -3.73051882721181       13.48298561859398
H          -17.89369786549499       -3.47448242392144       12.48601345764735
H          -18.99826144217343       -2.13162253539334       12.80190281093132
C          -17.37960028276987       -0.15396322309482       14.11065898790078
H          -17.48860032529655        0.72581044247911       14.73365523194588
C          -17.32686111989602       -0.00891431710035       12.79099141928203
H          -17.17331345614319       -0.84250179269151       12.12792815425302
H          -17.41053257242940        0.95986737559807       12.32746092367666
C          -14.92919684631956        1.80432294136266       18.36969836349760
H          -15.92394717345019        2.19842754640303       18.16056214527693
H          -14.34770207042298        1.84610914343427       17.44855023662805
H          -14.45349622195618        2.44877560438181       19.10455475870912
C          -14.01211842888878        0.57599691248440       21.23724018781284
H          -14.63746800508041        0.46651389177520       22.12331571497813
H          -13.88190855284808        1.63687221341678       21.03900441861371
H          -13.03523893662319        0.14468002896393       21.45644633361112
O          -14.18039381595243       -4.00827909903572       17.23303965404131
H          -14.12678188205073       -3.23452178373788       16.66079077437334
H          -14.39980411669426       -4.76166265181388       16.67304196171611
C          -18.68152900031710       -4.54794205739485       20.34827554609913
H          -19.75156603985494       -4.54643237262932       20.53183977336433
H          -18.14436220567396       -4.30644251575201       21.25950043397431
H          -18.34681956155842       -5.50686181703276       19.96790640096269
S          -18.27964974528971       -3.23551571279017       19.14213860879157
H          -18.97513250886364       -3.77967072523274       18.13759739181430
