72
 energy: -105.898346909891 gnorm: 0.247838931523 xtb: 6.7.1 (edcfbbe)
Fe         -16.25000000000000       -3.67100000000000       18.23500000000000
N          -15.52200000000000       -4.47100000000000       19.95200000000000
N          -16.56100000000000       -5.55600000000000       17.54600000000000
N          -16.69500000000000       -2.90300000000000       16.38800000000000
N          -15.61000000000000       -1.83900000000000       18.81400000000000
C          -15.00500000000000       -3.75800000000000       21.03100000000000
C          -14.60000000000000       -4.71600000000000       22.05000000000000
C          -14.87000000000000       -5.94300000000000       21.58500000000000
C          -15.45600000000000       -5.82200000000000       20.27200000000000
C          -16.44000000000000       -6.74300000000000       18.25400000000000
C          -17.04200000000000       -7.81000000000000       17.48000000000000
C          -17.52300000000000       -7.26000000000000       16.35000000000000
C          -17.24100000000000       -5.84600000000000       16.37600000000000
C          -17.37800000000000       -3.59100000000000       15.40500000000000
C          -17.77800000000000       -2.63600000000000       14.37700000000000
C          -17.33800000000000       -1.42400000000000       14.76200000000000
C          -16.64400000000000       -1.57600000000000       16.02200000000000
C          -15.61000000000000       -0.68200000000000       18.04300000000000
C          -15.08200000000000        0.39200000000000       18.86400000000000
C          -14.77500000000000       -0.11400000000000       20.07000000000000
C          -15.09800000000000       -1.52000000000000       20.06500000000000
C          -14.90500000000000       -2.38900000000000       21.12200000000000
H          -14.65700000000000       -1.96100000000000       22.09300000000000
C          -15.84100000000000       -6.88400000000000       19.47900000000000
H          -15.65800000000000       -7.89300000000000       19.84800000000000
C          -17.61100000000000       -4.95300000000000       15.38500000000000
H          -18.13000000000000       -5.35800000000000       14.51600000000000
C          -16.05000000000000       -0.55900000000000       16.74100000000000
H          -15.92000000000000        0.40400000000000       16.24800000000000
C          -14.60300000000000       -7.27600000000000       22.30400000000000
H          -14.49000000000000       -7.09300000000000       23.39400000000000
H          -13.66700000000000       -7.73100000000000       21.91600000000000
H          -15.45700000000000       -7.96800000000000       22.14100000000000
C          -13.95800000000000       -4.39800000000000       23.42300000000000
H          -14.73500000000000       -4.44300000000000       24.21500000000000
H          -13.52100000000000       -3.37700000000000       23.40500000000000
H          -13.16800000000000       -5.14500000000000       23.65000000000000
C          -17.09700000000000       -9.29800000000000       17.94100000000000
H          -18.03000000000000       -9.47300000000000       18.51900000000000
H          -16.22400000000000       -9.52200000000000       18.59000000000000
H          -17.09200000000000       -9.96600000000000       17.05400000000000
C          -18.27900000000000       -7.89800000000000       15.14700000000000
H          -18.40000000000000       -7.31800000000000       14.22000000000000
C          -18.79900000000000       -9.12700000000000       15.17000000000000
H          -18.70900000000000       -9.75400000000000       16.06900000000000
H          -19.32400000000000       -9.52800000000000       14.29000000000000
C          -18.59300000000000       -3.01300000000000       13.10800000000000
H          -19.11500000000000       -3.97900000000000       13.27600000000000
H          -17.90800000000000       -3.12000000000000       12.24000000000000
H          -19.34900000000000       -2.22600000000000       12.90000000000000
C          -17.47000000000000       -0.03700000000000       14.07600000000000
H          -17.22800000000000        0.86800000000000       14.65200000000000
C          -17.86499999999999        0.13700000000000       12.80900000000000
H          -18.12100000000000       -0.72800000000000       12.18000000000000
H          -17.93800000000000        1.14800000000000       12.38100000000000
C          -14.90600000000000        1.86700000000000       18.41100000000000
H          -15.85100000000000        2.23000000000000       17.95400000000000
H          -14.09200000000000        1.93400000000000       17.65700000000000
H          -14.66300000000000        2.50300000000000       19.28900000000000
C          -14.18100000000000        0.65300000000000       21.28300000000000
H          -15.00700000000000        1.05200000000000       21.91000000000000
H          -13.55900000000000        1.50100000000000       20.92300000000000
H          -13.56400000000000       -0.03700000000000       21.89700000000000
O          -13.86200000000000       -4.27100000000000       17.51100000000000
H          -13.93200000000000       -5.09500000000000       17.02900000000000
H          -13.11500000000000       -3.81600000000000       17.66900000000000
C          -18.59200000000000       -3.80600000000000       20.55900000000000
H          -19.64100000000000       -4.07200000000000       20.81200000000000
H          -18.30100000000000       -2.93000000000000       21.17800000000000
H          -17.94500000000000       -4.66900000000000       20.82500000000000
S          -18.42000000000000       -3.41500000000000       18.80500000000000
H          -18.60600000000000       -4.66000000000000       18.39000000000000
72
 energy: -105.949668104283 gnorm: 0.102943440064 xtb: 6.7.1 (edcfbbe)
Fe         -16.12953404661283       -3.68242579958669       18.19186509384886
N          -15.52764785431799       -4.47243394074759       19.96004557814526
N          -16.59981117629408       -5.55545862094993       17.54998992902877
N          -16.71175323149750       -2.89543921202837       16.39502098033425
N          -15.58542675688163       -1.83937755705624       18.81068149991626
C          -15.02120143038668       -3.77367784722291       21.03318461042159
C          -14.60172691956303       -4.71284514461653       22.06221731248452
C          -14.86623902196776       -5.95476413444521       21.59153571868903
C          -15.44479127117626       -5.80996769912960       20.27361222043463
C          -16.45240387188573       -6.74148827534111       18.23328237652266
C          -17.04246879951706       -7.82442062056105       17.46825984163144
C          -17.53694608597692       -7.27160035761316       16.32102425316642
C          -17.24799419947185       -5.85020892752448       16.37525211084742
C          -17.37669453900012       -3.57071528297642       15.40460030634132
C          -17.78226509246436       -2.63176717367300       14.36520606807125
C          -17.32836948156045       -1.40229574245466       14.74489076755410
C          -16.65311090076243       -1.58153952366561       16.02110063664459
C          -15.61483063069320       -0.68339102677849       18.06448446469425
C          -15.07887477953733        0.40634226347977       18.86331297983232
C          -14.77699590264088       -0.10201863844914       20.08373909019414
C          -15.10693988478628       -1.51166561847162       20.05587049533152
C          -14.91453686846102       -2.39508159737813       21.10966916095878
H          -14.63947916109450       -1.96987324324110       22.07034102499053
C          -15.84338209638907       -6.86850471895706       19.47128317068467
H          -15.67435228987059       -7.87174693166473       19.84949746077292
C          -17.60591283370643       -4.93949968830985       15.39047293354192
H          -18.12109918386734       -5.34247285905315       14.52674368050534
C          -16.05481389070773       -0.56944813872268       16.75589670516523
H          -15.93453081733423        0.39362401458671       16.27077281577957
C          -14.60752995912953       -7.26575204008690       22.29737417976193
H          -14.49412816488281       -7.09707460503799       23.37289720140489
H          -13.68669593138901       -7.72599379579737       21.92008875956611
H          -15.44082237477489       -7.95855133409892       22.14187397406118
C          -13.96907091865297       -4.39296932897533       23.40401292533125
H          -14.72441352766288       -4.43942070101922       24.19814659084337
H          -13.52768150547723       -3.39280377667951       23.40303277626266
H          -13.18620338622406       -5.12324785064420       23.63758992928004
C          -17.09086563876823       -9.27245630091074       17.93591100533181
H          -18.01033621227182       -9.46135669885925       18.50609485446560
H          -16.23735575947333       -9.50958786805266       18.57786362770456
H          -17.07174877363464       -9.94877956340861       17.07681240830273
C          -18.26502617310316       -7.90249686448932       15.17201229490411
H          -18.37700591071022       -7.31338755270427       14.26224864982514
C          -18.79523543796713       -9.12100305322585       15.17731194723373
H          -18.73835254891196       -9.75385340118318       16.05033017826844
H          -19.31134327296388       -9.51671629664366       14.30751606484651
C          -18.58271949800024       -3.01204521943925       13.13031136755776
H          -19.10430321152816       -3.96249348680157       13.27863878159299
H          -17.91934251818203       -3.11685160382376       12.26244368021003
H          -19.33252153689292       -2.24430810008162       12.91231134197152
C          -17.47085812915409       -0.06806296399198       14.07586536867958
H          -17.22889266742255        0.81832971792937       14.66251314908618
C          -17.86195798043203        0.12423341009081       12.81855839714033
H          -18.10956362410760       -0.70667366049438       12.17378663307512
H          -17.93535757656527        1.12285399940619       12.39585076906899
C          -14.91128378021447        1.84621933643265       18.41089039363541
H          -15.83722724235757        2.21815860164383       17.95978813861686
H          -14.10722497670826        1.92795396662898       17.67004652457508
H          -14.66829021623098        2.48386089878302       19.26670232981141
C          -14.19045817160472        0.64178547312262       21.27077765194364
H          -14.99511436950458        1.04295588738240       21.89867487659353
H          -13.57086543052814        1.47761956169530       20.92983116070996
H          -13.57420736121441       -0.02466168301858       21.88150699293653
O          -13.91411489621418       -4.26293088223213       17.50884135007912
H          -13.93677206689097       -5.09091948509936       17.03332511785630
H          -13.10822498109009       -3.80642223518012       17.67344803246075
C          -18.59390587211480       -3.81567795271205       20.57386416985894
H          -19.63685252962145       -4.06457508601775       20.80150827355356
H          -18.29983748563412       -2.94100343351843       21.16187163501166
H          -17.94772663920943       -4.65911138589116       20.83077579948252
S          -18.38300581635287       -3.42411719881500       18.81526257221798
H          -18.63842290780102       -4.66250340162906       18.39263483834652
72
 energy: -105.965070187497 gnorm: 0.026573335103 xtb: 6.7.1 (edcfbbe)
Fe         -16.10617190516933       -3.69275800622176       18.18378220744927
N          -15.51203176075163       -4.47349105136920       19.95166975785846
N          -16.60213160238008       -5.55649370932764       17.53692691790968
N          -16.70086782762520       -2.89556554408919       16.39682746161474
N          -15.58943826748219       -1.84533803242642       18.81045203772371
C          -15.02802602244605       -3.78726047134394       21.02368945332586
C          -14.60906614787569       -4.70901159415807       22.06411999693135
C          -14.86500376933857       -5.96188683027665       21.58860874833080
C          -15.43102843123405       -5.79736473775079       20.26510498890916
C          -16.45563360899233       -6.73379428377949       18.21217795390000
C          -17.03751998323700       -7.82702870722384       17.46134533912100
C          -17.54543329569661       -7.27618045826461       16.30236650037734
C          -17.24683782182647       -5.85076503538926       16.37362287098021
C          -17.36757691933806       -3.55613351006310       15.41016174805629
C          -17.77939952678592       -2.63408903936427       14.36570071475871
C          -17.31587188257853       -1.39192737139561       14.73958685525099
C          -16.64735637016083       -1.59207226848432       16.02341470250710
C          -15.57768888098691       -0.70262595871413       18.06977539296214
C          -15.07386213754736        0.40708446878516       18.86153883421195
C          -14.78145985790250       -0.10168550346666       20.09252238146860
C          -15.11092198765498       -1.51483205450748       20.04042286866745
C          -14.91446513030698       -2.40449691536755       21.08979471326356
H          -14.61048620861824       -1.98212555900213       22.03960793889164
C          -15.85028612856422       -6.84927425309616       19.46169568786093
H          -15.70218466239757       -7.84711856836620       19.85173142913450
C          -17.60285821983992       -4.92603115636554       15.39994242293939
H          -18.11446500187101       -5.32363746251434       14.53710130840355
C          -16.04199570206992       -0.58638607357333       16.76721152839394
H          -15.95628295543409        0.38623010954474       16.30103047903910
C          -14.61236420308397       -7.25510767159460       22.28557060245116
H          -14.49852175489822       -7.09430763307817       23.35302604434287
H          -13.70080597562394       -7.72224682466320       21.91549794313076
H          -15.43299767320440       -7.94978962496377       22.13446394380072
C          -13.98607431183305       -4.38480440693358       23.38119281013784
H          -14.72587630346143       -4.43023553794387       24.18035594189686
H          -13.54084036367566       -3.39677677287092       23.38788816193477
H          -13.20551728903673       -5.10508679024627       23.61712715186360
C          -17.07825664936154       -9.24293162213507       17.92651808363853
H          -17.99216362936029       -9.43934759887705       18.48931687009276
H          -16.23799016660130       -9.47899599382464       18.57194454243582
H          -17.04752431625346       -9.92776054380657       17.08488663658224
C          -18.24595916020336       -7.89948727843383       15.20615621367166
H          -18.34119515571018       -7.30236295546205       14.30774125555680
C          -18.79308934210628       -9.11200655876321       15.19114135150257
H          -18.77187544869919       -9.76050271621081       16.04258740193722
H          -19.29546566442635       -9.49793320535330       14.32072912172101
C          -18.56966000912933       -3.01059980524373       13.15876416091626
H          -19.08832767641228       -3.95361087129884       13.29736818392357
H          -17.92203873630937       -3.11203160464983       12.28721932414089
H          -19.31677730473139       -2.25327115256281       12.93604957619175
C          -17.46341008896349       -0.11156857120957       14.08438922055066
H          -17.22615914409742        0.75801215826162       14.68589599374320
C          -17.85283852386989        0.10424320418003       12.83026018490849
H          -18.09337552515542       -0.69449546526599       12.15869116435781
H          -17.93560374053886        1.09861253637442       12.42315881870051
C          -14.91932454067090        1.81972240041222       18.41017094674180
H          -15.83433474788128        2.19385984764588       17.95911363966200
H          -14.12098635302465        1.91157974690764       17.67582585037869
H          -14.67676644945316        2.46190451725697       19.25153196026690
C          -14.20422052683947        0.62639715772456       21.25880656750350
H          -14.99378886125044        1.03032953497485       21.89115069917077
H          -13.58610531476318        1.45581083759251       20.92735702585322
H          -13.58587701866818       -0.02582678447133       21.86664113170220
O          -13.98743156525646       -4.21580531829295       17.47429288385889
H          -13.93577153437349       -5.07981932000330       17.05153468516962
H          -13.13651437111275       -3.81007702399528       17.68721848335273
C          -18.59303347197677       -3.82420474740344       20.59497511541620
H          -19.63233924852779       -4.06223705039773       20.79411802155641
H          -18.29833491643733       -2.94707194034480       21.15742929049659
H          -17.94610926670857       -4.65543682808372       20.84167716590888
S          -18.39410816874670       -3.41155090755790       18.83165211370394
H          -18.67089347144967       -4.64512123781685       18.39163047488564
72
 energy: -105.968705408984 gnorm: 0.045471987482 xtb: 6.7.1 (edcfbbe)
Fe         -16.08901752706142       -3.69407544752011       18.17582062775010
N          -15.50431934053492       -4.47211384688910       19.94113126451664
N          -16.60585819783108       -5.54974510815164       17.53571254191252
N          -16.68986103771442       -2.90057016384522       16.40035635231845
N          -15.55929619105906       -1.85885594131642       18.80112768640250
C          -15.02456052260060       -3.78937059658748       21.01362952938529
C          -14.61636614107890       -4.70795878895099       22.05552731922276
C          -14.86926050437905       -5.96094909507467       21.58027793196128
C          -15.42913619795326       -5.79331557841445       20.25670099272746
C          -16.45587047419519       -6.72387565972545       18.20995151766513
C          -17.03117671579621       -7.81671398978194       17.46568635180676
C          -17.54318957211944       -7.27147592487849       16.30683250355539
C          -17.24614065232873       -5.84715529691025       16.37443671374397
C          -17.35730054452971       -3.56012797417795       15.41622820008979
C          -17.76537670682359       -2.64591016155415       14.37325120270096
C          -17.30152385169070       -1.40413381944073       14.74428148344210
C          -16.63873772249893       -1.59983590573243       16.02911369173531
C          -15.57346469451713       -0.71325922372347       18.07154023713028
C          -15.07139813403304        0.39503933429420       18.86000219455109
C          -14.78167801313383       -0.11107226152953       20.09158170114490
C          -15.10007145847462       -1.52419803812648       20.03467134944362
C          -14.90120239004051       -2.41031567009187       21.08124041603317
H          -14.57625564120744       -1.99127173692313       22.02417587741656
C          -15.85584320193723       -6.84073007651227       19.45830616209746
H          -15.73086594167855       -7.83698554920943       19.85821392683420
C          -17.59997354746050       -4.92528064501519       15.40244700439813
H          -18.11456898137096       -5.31606379947217       14.53872225214697
C          -16.04860809370405       -0.59151321570905       16.77628426433844
H          -15.98270169219174        0.38826470814157       16.32352809009195
C          -14.61769876088993       -7.25443275248087       22.27429661418176
H          -14.50246119789615       -7.09242505496697       23.34270450145727
H          -13.70661798122773       -7.72405966405780       21.90178121578600
H          -15.44012748146246       -7.94923333428346       22.12240912439382
C          -13.99870744837960       -4.37378105985660       23.36985534666431
H          -14.73973085276134       -4.41494765048506       24.16943132394251
H          -13.55534671197173       -3.38324344585136       23.36777940124032
H          -13.21589215626609       -5.09302206500702       23.60609674765467
C          -17.05657407663664       -9.22992675272589       17.92709506056371
H          -17.97880580425232       -9.43286514513676       18.47623531894224
H          -16.22042312118707       -9.44695650308094       18.58698159708088
H          -17.00174067327875       -9.91545681237211       17.08489333562938
C          -18.23643839539733       -7.89956897042642       15.21430157650456
H          -18.31171892758490       -7.30020966574650       14.31520193161975
C          -18.80085814612752       -9.10661882965979       15.19135952259447
H          -18.82962956711810       -9.75724511241311       16.04723904105902
H          -19.29108276860196       -9.48047446480672       14.30906887207203
C          -18.56365907851941       -3.01676781522541       13.17469097324531
H          -19.07980675693977       -3.96176562120538       13.31834364097476
H          -17.91975241258737       -3.11294617897319       12.29851838012864
H          -19.31092345092383       -2.25444681897224       12.96339929229082
C          -17.45518346032154       -0.13039688542639       14.09260641267898
H          -17.22353531849607        0.73203921575902       14.70598472002828
C          -17.84223115479715        0.09631410261765       12.83776209314074
H          -18.06140701340439       -0.69234691994474       12.14182509854691
H          -17.93355573359075        1.09672352878375       12.44888799780321
C          -14.92336322820067        1.80338485112443       18.40089024560557
H          -15.84407455578777        2.16856616918389       17.95081563203720
H          -14.12773444738992        1.89267099066961       17.66119374739570
H          -14.68060140925215        2.44944621434994       19.24084059014847
C          -14.21318556065844        0.61606531752509       21.26023557153322
H          -15.00444876696601        1.01648529479427       21.89488378263969
H          -13.59732001234113        1.44780224879245       20.92584767524646
H          -13.59140985702200       -0.03796256298995       21.86527322604995
O          -14.04647729337167       -4.13419274091365       17.37827778989247
H          -13.93960001709977       -5.07789111311444       17.09434707978106
H          -13.17455896070943       -3.81495862631658       17.71844529521011
C          -18.58891213506942       -3.82751918220096       20.60817602583291
H          -19.63201159600187       -4.05858448391551       20.79839550988239
H          -18.29039694185020       -2.94885968107283       21.16739516594924
H          -17.94552069697560       -4.66176259431200       20.85688837128044
S          -18.38481827467422       -3.40976870949847       18.84278879112738
H          -18.72503410606476       -4.62929124333289       18.39077697359970
72
 energy: -105.970212357193 gnorm: 0.027055013275 xtb: 6.7.1 (edcfbbe)
Fe         -16.08214044638726       -3.69363423580273       18.16999013264577
N          -15.48985938300697       -4.47019216384449       19.92361586294984
N          -16.60692964498214       -5.53917746529672       17.53488131318501
N          -16.67963124176507       -2.90777709045214       16.40962743643063
N          -15.52732707120560       -1.87689853752065       18.79126807862265
C          -15.01656643696042       -3.79046735959591       21.00004745964151
C          -14.62626274165367       -4.70734825160954       22.04363863593059
C          -14.87726518123814       -5.95851435947169       21.57010795402907
C          -15.42761967737313       -5.79014356265131       20.24602905954374
C          -16.45402435045137       -6.71102876081712       18.20950747613627
C          -17.02258898823309       -7.80151557251599       17.47181117216782
C          -17.53794276401703       -7.26339672087857       16.31610047273987
C          -17.24434087642346       -5.84169520551396       16.37582597445380
C          -17.34352338948328       -3.56813789227426       15.42518104675064
C          -17.74355429372794       -2.66179026495194       14.38387780084194
C          -17.28011115964430       -1.42322864667492       14.75162662585680
C          -16.62502200536935       -1.61016481267477       16.03706575167555
C          -15.56903925478438       -0.72765235125559       18.07174895395611
C          -15.07069504783887        0.37751361292280       18.85871963556262
C          -14.78187408315453       -0.12481035543234       20.08863777505202
C          -15.08354502885738       -1.53775450206580       20.02851617815316
C          -14.87936392366806       -2.41742890865325       21.07172841784368
H          -14.53383066687420       -2.00258068846532       22.00721052205471
C          -15.86382849946709       -6.83250788951405       19.45589326598002
H          -15.76949989994186       -7.82686806007112       19.86828457484700
C          -17.59628714576528       -4.92639814846485       15.40456960205049
H          -18.11429976774471       -5.30799247214924       14.53869067313806
C          -16.05423117741342       -0.59804889332887       16.78561336699127
H          -16.01236446620319        0.39049624900731       16.35018957685036
C          -14.62818201978883       -7.25530904252693       22.26167556874530
H          -14.51070869443656       -7.09171199541247       23.33212242083638
H          -13.71722000333715       -7.72761774793982       21.88454432831502
H          -15.45506007270694       -7.94898770571861       22.10823408931930
C          -14.01626884199137       -4.35926788127357       23.35891991274086
H          -14.76233628171908       -4.39321990161064       24.15652664223997
H          -13.57641948609748       -3.36394772787537       23.34359143922232
H          -13.23052732468725       -5.07688463386377       23.59919973988982
C          -17.03240374420869       -9.21701117110706       17.92650600943783
H          -17.96439631765128       -9.42990723012992       18.45941939219006
H          -16.20004052888657       -9.41287735767602       18.60312889412521
H          -16.95298112974237       -9.89750757789034       17.07826286872339
C          -18.22627420999064       -7.89963206870808       15.22111777883054
H          -18.26916489902189       -7.30486181760617       14.31489380554384
C          -18.81358566099664       -9.09761308857779       15.19744229706936
H          -18.88257688120573       -9.75147092601954       16.05593995139159
H          -19.28394097134134       -9.46156746744329       14.29811788303126
C          -18.55377517387824       -3.02487246684306       13.19102882621426
H          -19.06896319264164       -3.97220040068835       13.34115332621006
H          -17.91454543095628       -3.11585515055926       12.30876284454337
H          -19.30052574855903       -2.25402008993419       12.99593600057040
C          -17.43987256141157       -0.14961998595263       14.10106566751741
H          -17.22238750985850        0.70625002748008       14.72961721341611
C          -17.82036113229864        0.08630311903615       12.84437926289614
H          -18.01823222627659       -0.69251248213962       12.12373347145023
H          -17.92611720821716        1.09551081340806       12.47915308975454
C          -14.92945166290426        1.78415018636480       18.38805629175311
H          -15.85843663068975        2.13718111990493       17.93864707329242
H          -14.13699811844321        1.86663641480884       17.64051834481772
H          -14.68546415000048        2.43666509184866       19.22567530482226
C          -14.22346167103494        0.60333164946665       21.26391372204815
H          -15.02029038053570        0.99633761457158       21.90004301951324
H          -13.61175353522590        1.44053906839971       20.92714218123701
H          -13.59737051208276       -0.05360258118485       21.86637925261931
O          -14.07891864819062       -4.13828164575950       17.43367513143411
H          -13.98258185133178       -5.00045466887532       17.05292977655636
H          -13.22784212881627       -3.78677261227607       17.67257436591617
C          -18.58546289141825       -3.82900494568621       20.62235584084256
H          -19.63267823906793       -4.05449728968083       20.80611038628011
H          -18.28247166415023       -2.95022669792483       21.18292234740013
H          -17.94596473490991       -4.66892295599239       20.87327817325146
S          -18.37840932549479       -3.40068650722564       18.85639918141276
H          -18.78900799016002       -4.60083597317036       18.38990208649592
72
 energy: -105.972000667536 gnorm: 0.011722934883 xtb: 6.7.1 (edcfbbe)
Fe         -16.11365733735467       -3.69136989857816       18.18281617458342
N          -15.48809809592637       -4.46969300001899       19.92018512231720
N          -16.60819159098846       -5.53552096261167       17.53720225758135
N          -16.68231012047266       -2.91207912131865       16.41812465128852
N          -15.53984476039820       -1.87984965803647       18.79605756199510
C          -15.00810401316918       -3.79189470190887       20.99607295742944
C          -14.62342170550831       -4.70866358271132       22.04220719981096
C          -14.87925387329933       -5.95901664644388       21.57056818841726
C          -15.42859021990104       -5.79019332098339       20.24638144635376
C          -16.45488954967687       -6.70919668067595       18.21110449514307
C          -17.02096264930604       -7.80123028360643       17.47150874707764
C          -17.53621089566175       -7.26390389556133       16.31654700469180
C          -17.24525966046511       -5.84249201315321       16.37757932671553
C          -17.34071555967751       -3.57163846386664       15.42802317037714
C          -17.73721545747652       -2.66417487102760       14.38463977628408
C          -17.27336663638661       -1.42629365304210       14.75260213701452
C          -16.62153333617033       -1.61477498996021       16.03924080592132
C          -15.56728953936990       -0.73290818339854       18.07156310853588
C          -15.07345598688507        0.37476297341840       18.85874104514965