78
 energy: -116.057996518189 gnorm: 0.000064900609 xtb: 6.7.1 (edcfbbe)
Fe          34.09769377401544       -2.18721631731435      -23.83302140912071
N           33.92748001641012       -1.95762596907063      -21.86307957319629
N           35.49408757783225       -0.76353315728125      -23.88701484328470
N           34.22509781220445       -2.38024043746648      -25.83687531736290
N           32.65001934315647       -3.58447597271848      -23.79999635784962
C           33.10233188260269       -2.64228477193934      -21.02752119775407
C           33.26989924547771       -2.19368592313645      -19.66112219689422
C           34.21852348609490       -1.22136390647173      -19.69368056145809
C           34.61750649552273       -1.09091117086703      -21.07899395449790
C           35.98238041971896       -0.05921001739210      -22.83323474307216
C           36.99870871681523        0.87481601811329      -23.26689727236420
C           37.11366259800632        0.71490482058316      -24.61184367033558
C           36.16524414378085       -0.31438882580114      -24.98008272037844
C           35.08329955522172       -1.73108779697984      -26.66552529100839
C           34.89151832476036       -2.15763230521376      -28.03672106281951
C           33.89746809179016       -3.10088134634492      -28.00495459351687
C           33.50268685166906       -3.22553283651768      -26.62639194302108
C           32.14403170805240       -4.26801981342861      -24.86164136112179
C           31.13016667633539       -5.20906811253092      -24.42772852954603
C           31.06138116595513       -5.08663093732911      -23.06438344805879
C           32.01321024529236       -4.07056328909243      -22.69926340717792
C           32.21760263170246       -3.63258613229958      -21.40210920948850
H           31.62812531122304       -4.09221992168050      -20.62369092225034
C           35.58019996504376       -0.20180238426619      -21.51892370856768
H           36.04940203964879        0.43177001505994      -20.78156058005800
C           35.98501820165706       -0.75813091058442      -26.27583167187960
H           36.59218387581658       -0.30448777139562      -27.04398972100791
C           32.51863484481117       -4.09212563836856      -26.18043172941239
H           32.01184029139263       -4.68767391977085      -26.92419401998688
C           32.51139570647469       -2.73580297754721      -18.49845757107551
H           32.68816589165135       -3.80627469729595      -18.38983293982711
H           31.44084164869011       -2.58214247752777      -18.63501399885268
H           32.81240554215032       -2.24396737276598      -17.57673012681320
C           34.77895082814917       -0.40852373564454      -18.57714763637614
H           34.59705953412990        0.65233370212401      -18.74935018278135
H           35.85607246398065       -0.55741488889861      -18.49428774557702
H           34.32186733907371       -0.68466539021701      -17.63012449751745
C           30.23617478941006       -5.87211598656176      -22.10605321508203
H           29.34309697554896       -5.31684525988456      -21.81427949516711
H           30.80331903852688       -6.09587710053527      -21.20384554201178
H           29.92363863182452       -6.80892971311413      -22.56301107097455
C           30.39759628270321       -6.09538765692256      -25.30451436885640
H           30.93840057009088       -6.44555392815027      -26.17637275807574
C           29.14160979373027       -6.49223003870557      -25.12648393710885
H           28.53992135023073       -6.14029147797723      -24.30686070006080
H           28.66140280645665       -7.16726771553161      -25.81534089545801
C           33.35691354538478       -3.91330916639118      -29.12964707265736
H           32.41174536098365       -3.50273653986979      -29.48929079459640
H           33.17848653807018       -4.94018133037598      -28.81373146113251
H           34.06411703705447       -3.92202801130030      -29.95647430893687
C           35.64900189554368       -1.66509982182572      -29.16593309210892
H           36.67978363618501       -1.40211082606616      -28.95816492749645
C           35.18034765137135       -1.50807562160684      -30.39964063281556
H           34.15346366943273       -1.70671361094569      -30.65264607196864
H           35.80664240536075       -1.14678192839872      -31.19841829150629
C           38.00689881320119        1.41920240256510      -25.57465102781713
H           37.41996410600085        1.93289976795876      -26.33625443783740
H           38.66508790398415        0.70969668784735      -26.07704642248568
H           38.62307632913723        2.15502081491810      -25.06376928747397
C           37.72988932549115        1.80340375911169      -22.35886562455845
H           37.03194960412817        2.47076057259601      -21.85319921437206
H           38.44039179419100        2.40941516817566      -22.91561604162527
H           38.27691094246285        1.24683905738314      -21.59713697325463
O           32.44211372866655       -0.65227960861003      -24.24477176916547
H           32.65390567693522       -0.40675616477236      -25.15184418979642
H           31.67663994775420       -1.23625623105564      -24.28034752837182
C           37.23660404026072       -6.78226425173752      -24.16952352745260
H           37.27691333044434       -7.44113912948261      -23.30219554907984
H           38.24604617341418       -6.68117802685518      -24.56800105086828
H           36.60828511731496       -7.24134359895405      -24.92623444068962
N           37.26786211997580       -4.64550119078400      -22.86367761835276
H           38.10685377466821       -4.85443592515831      -22.34785924815372
C           36.68057375675704       -5.45628356520331      -23.79933544499476
C           36.51874131784243       -3.52412984093968      -22.76452295233651
H           36.74007478538077       -2.70890765111653      -22.10663730010175
N           35.49351011369461       -3.57598728925588      -23.58008073204430
C           35.58068412446055       -4.77167802015025      -24.23032627921801
H           34.85219694961713       -5.05821543304791      -24.95974498865694
