87
 energy: -128.368727357155 gnorm: 0.240653954459 xtb: 6.7.1 (edcfbbe)
Fe         -35.49100000000000      -26.67400000000000       67.38400000000000
N          -35.32399999999999      -26.00000000000000       65.46299999999999
N          -37.05400000000000      -25.44500000000000       67.75500000000000
N          -35.63100000000000      -27.26599999999999       69.20799999999998
N          -33.91199999999999      -27.96700000000000       66.92900000000000
C          -34.43600000000000      -26.40600000000000       64.48600000000000
C          -34.89100000000000      -25.89900000000000       63.19599999999999
C          -36.02300000000000      -25.20400000000000       63.41200000000000
C          -36.30700000000000      -25.25900000000000       64.83400000000000
C          -37.66200000000000      -24.65600000000000       66.79400000000000
C          -38.63400000000000      -23.79100000000000       67.43600000000001
C          -38.60000000000000      -24.06900000000000       68.74299999999999
C          -37.60899999999999      -25.11000000000000       68.97000000000000
C          -36.41200000000000      -26.78700000000000       70.24800000000000
C          -36.18300000000000      -27.63000000000000       71.42300000000000
C          -35.29399999999999      -28.57500000000000       71.06699999999999
C          -34.94200000000000      -28.35600000000000       69.68899999999999
C          -33.46700000000000      -28.89900000000000       67.82799999999999
C          -32.30000000000000      -29.56800000000000       67.31600000000000
C          -32.05600000000000      -28.93300000000000       65.94799999999999
C          -33.11300000000000      -27.96700000000000       65.79700000000000
C          -33.30900000000000      -27.15900000000000       64.71200000000000
H          -32.51200000000000      -27.10800000000000       63.97100000000000
C          -37.39099999999999      -24.67700000000000       65.44600000000000
H          -38.11099999999999      -24.18000000000000       64.79500000000000
C          -37.24999999999999      -25.69500000000000       70.15700000000000
H          -37.64900000000000      -25.27400000000000       71.08000000000000
C          -34.05200000000000      -29.14800000000000       69.02800000000001
H          -33.78000000000000      -30.08400000000000       69.51599999999999
C          -36.90499999999999      -24.47700000000000       62.37600000000000
H          -36.46699999999999      -24.60300000000000       61.36299999999999
H          -36.95099999999999      -23.39300000000000       62.61699999999999
H          -37.92800000000000      -24.91100000000000       62.38300000000000
C          -34.17600000000000      -26.13500000000000       61.83700000000000
H          -33.50200000000000      -27.01400000000000       61.92000000000000
H          -33.57200000000000      -25.24200000000000       61.57100000000000
H          -34.92999999999999      -26.33299999999999       61.04600000000000
C          -39.53699999999999      -22.75500000000000       66.72000000000000
H          -40.40500000000000      -23.27400000000000       66.26100000000000
H          -38.96000000000000      -22.24300000000000       65.92100000000001
H          -39.91000000000000      -22.01000000000000       67.45500000000000
C          -39.47300000000000      -23.40100000000000       69.82100000000000
H          -39.09300000000000      -22.59400000000000       70.46299999999999
C          -40.72799999999999      -23.83400000000000       69.96100000000000
H          -41.11500000000000      -24.64200000000000       69.32200000000000
H          -41.39100000000000      -23.38900000000000       70.71700000000000
C          -36.83700000000000      -27.47100000000000       72.81399999999999
H          -37.54799999999999      -28.30700000000000       72.98699999999999
H          -37.39200000000000      -26.51000000000000       72.86000000000000
H          -36.05400000000000      -27.49500000000000       73.60200000000000
C          -34.67999999999999      -29.73000000000000       71.89500000000000
H          -33.66600000000000      -30.09500000000000       71.67500000000000
C          -35.36100000000000      -30.30600000000000       72.88700000000000
H          -36.37800000000000      -29.96800000000000       73.13600000000000
H          -34.91399999999999      -31.12600000000000       73.46799999999999
C          -31.47500000000000      -30.68400000000000       68.00000000000000
H          -32.07100000000000      -31.62100000000000       68.02800000000001
H          -31.22700000000000      -30.38300000000000       69.04000000000001
H          -30.54200000000000      -30.86700000000000       67.42500000000000
C          -30.92700000000000      -29.29000000000000       64.95800000000000
H          -30.65300000000000      -30.36000000000000       65.07800000000000
H          -30.03300000000000      -28.66400000000000       65.16700000000000
H          -31.27400000000000      -29.12100000000000       63.91599999999999
C          -33.10400000000000      -22.61100000000000       70.29100000000000
H          -32.57000000000000      -21.73800000000000       69.85899999999999
H          -32.51900000000000      -23.00100000000000       71.15099999999998
H          -34.11000000000000      -22.28500000000000       70.63200000000001
N          -32.16000000000000      -24.26900000000000       68.63300000000000
H          -31.20700000000000      -24.02300000000000       68.80700000000000
C          -33.24400000000000      -23.67899999999999       69.24800000000000
C          -32.58200000000000      -25.19700000000000       67.79100000000000
H          -31.93100000000000      -25.80700000000000       67.16700000000000
N          -33.90100000000000      -25.24200000000000       67.84900000000000
C          -34.33900000000000      -24.30300000000000       68.75300000000000
H          -35.39300000000000      -24.16800000000000       68.95900000000000
C          -38.98400000000000      -31.10800000000000       67.39300000000000
H          -38.87200000000000      -31.90400000000000       66.62600000000000
H          -40.05599999999999      -30.82700000000000       67.46700000000000
H          -38.62500000000000      -31.49600000000000       68.37000000000000
N          -38.38400000000000      -29.22200000000000       65.82100000000000
H          -39.08199999999999      -29.45600000000000       65.14500000000000
C          -38.17299999999999      -29.91100000000000       66.99500000000000
C          -37.52800000000000      -28.22000000000000       65.73800000000000
H          -37.47900000000000      -27.51599999999999       64.90800000000000
N          -36.76700000000000      -28.23300000000000       66.81600000000000
C          -37.14800000000000      -29.28300000000000       67.61700000000000
H          -36.65100000000000      -29.48400000000000       68.55800000000001
87
 energy: -128.425421379238 gnorm: 0.105773423623 xtb: 6.7.1 (edcfbbe)
Fe         -35.47673386052727      -26.67793656422212       67.36544260555360
N          -35.34884594009979      -26.02930097890993       65.44648718813119
N          -37.04446869163799      -25.42979862154048       67.74596488491500
N          -35.61234463672833      -27.26966601474379       69.21522705157487
N          -33.91327327482605      -27.96235805195521       66.92972997095258
C          -34.44172818194193      -26.39656678974814       64.48588077439071
C          -34.87516746689904      -25.88892910337080       63.19057904012630
C          -36.02699162775939      -25.20261623218562       63.40206524182467
C          -36.31025462195723      -25.27644792039417       64.82294667869964
C          -37.66597799377067      -24.65731525893664       66.79977258076340
C          -38.64350466949858      -23.79110750670149       67.43270951452213
C          -38.59424777584701      -24.05509451664250       68.76196340540247
C          -37.59778161817047      -25.09887109975772       68.95788092955027
C          -36.38865805661460      -26.79685697362450       70.25177597106794
C          -36.17851202406622      -27.62827891541646       71.43473219662594
C          -35.28818097567811      -28.59624891874951       71.08069925412802
C          -34.93659049982063      -28.36047428436554       69.69738515198985
C          -33.45475247492185      -28.90587391698507       67.79301055628879
C          -32.29009848892431      -29.56268873373371       67.26411588569421
C          -32.05463003512904      -28.95017966319295       65.99156112967685
C          -33.09590391968541      -27.96528968282258       65.83044709788858
C          -33.30657503219993      -27.15986637835678       64.71860349285456
H          -32.53034089441621      -27.14074589333127       63.95849650448019
C          -37.39215951848044      -24.67832753327148       65.44199115491588
H          -38.09569481413523      -24.16004152548581       64.79820865808034
C          -37.24293831067539      -25.70368182842688       70.15318451259834
H          -37.66727253988321      -25.29837877210236       71.06829279475862
C          -34.03697846347586      -29.15744629031385       69.02321264930389
H          -33.74566646386311      -30.07357955739184       69.52409681463151
C          -36.89374285466833      -24.48748849178224       62.38641679950386
H          -36.47245613374260      -24.60055120029226       61.38263070985973
H          -36.95166885066281      -23.41724674744324       62.61691933725375
H          -37.90955834832148      -24.90114879177267       62.38524822319867
C          -34.18060443248832      -26.13340182570335       61.86024632189920
H          -33.51464763385050      -26.99925463117745       61.92396026706792
H          -33.58526525290661      -25.25728368126238       61.57760028222825
H          -34.91506620415569      -26.32538322817377       61.06935712828525
C          -39.52362923536960      -22.77370224906898       66.72771959201025
H          -40.38799115186843      -23.26937610502382       66.26939896385507
H          -38.96671377094172      -22.25591282206517       65.93919842125683
H          -39.89672335333700      -22.03286859492765       67.44361023932537
C          -39.46631647868668      -23.42896642688036       69.81308458639394
H          -39.07807915672672      -22.62271750336861       70.43583433692955
C          -40.71941992978957      -23.83593805961314       69.95953001486097
H          -41.11716110975934      -24.62945130411974       69.33701213873633
H          -41.38065139965869      -23.39667736254550       70.70133458254530
C          -36.83262380405048      -27.46157617143035       72.79240985247257
H          -37.54212836654186      -28.27772330913252       72.97667248041103
H          -37.38032965340019      -26.51801749523931       72.85779331616735
H          -36.07037145939783      -27.49292773114676       73.58059529374324
C          -34.70402229580881      -29.70817726559818       71.89517928811139
H          -33.69854364215842      -30.05861774204843       71.65851127236958
C          -35.36215389501352      -30.29853763730279       72.88592893521667
H          -36.36644250934663      -29.99298595351904       73.14242302327486
H          -34.92182913469734      -31.11053840783361       73.45691763013873
C          -31.49377875325566      -30.65427240705327       67.96737313716865
H          -32.06522251523867      -31.59236123583389       68.01800774760927
H          -31.24086353904493      -30.37477390865147       69.00018931856926
H          -30.56111452412501      -30.85691237472317       67.43117657890654
C          -30.95566254035988      -29.28705354145396       64.99430432209370
H          -30.66332831414065      -30.33969077322885       65.08303848914252
H          -30.05871824207458      -28.67550235545993       65.16899694563482
H          -31.27817620915731      -29.11909112158101       63.95779902028075
C          -33.09606356527684      -22.60755369125312       70.28948282396034
H          -32.57264743563649      -21.73999652239617       69.87212345595518
H          -32.52695494178138      -22.98593610611913       71.14600096336434
H          -34.08758884957330      -22.29280639710617       70.62691368405072
N          -32.15709694291420      -24.25605412410923       68.64159747249147
H          -31.19648381831167      -24.01318774932912       68.80946423766146
C          -33.23528768398597      -23.67254052177829       69.25965962487618
C          -32.60749871418377      -25.19760587014095       67.79952580929286
H          -31.96605372253407      -25.80289021710074       67.17814232444501
N          -33.92064486679210      -25.25119148781505       67.85620321854590
C          -34.32831344255459      -24.30361646810865       68.75380407768584
H          -35.37238360175765      -24.16295690158599       68.95815108133047
C          -38.98455224396069      -31.10838331229820       67.38668442385655
H          -38.88024169664625      -31.90195432049508       66.63777947106742
H          -40.04403960896060      -30.84009578398974       67.46895270888601
H          -38.63392964226462      -31.48646232533280       68.35091270367469
N          -38.39681417566804      -29.23692497838687       65.81986609151375
H          -39.09593907429294      -29.46987206146690       65.13763045980122
C          -38.18058703217757      -29.91877122415729       66.99064511510792
C          -37.52698890573140      -28.22096694283721       65.75175995124378
H          -37.47430094246201      -27.52508443305137       64.93057236600751
N          -36.76882784836755      -28.21226228308975       66.82512762023255
C          -37.15272242999941      -29.27167215769139       67.60420837276021
H          -36.66176124778755      -29.47811813722460       68.53690965427687
87
 energy: -128.443328084864 gnorm: 0.039382523007 xtb: 6.7.1 (edcfbbe)
Fe         -35.45834385089452      -26.68638844952879       67.34276361532943
N          -35.36518100049729      -26.05432307596185       65.43689762579078
N          -37.02872785811320      -25.41840164491179       67.73323596102732
N          -35.58496358617317      -27.27575195717809       69.22295529735267
N          -33.90960731589468      -27.94594773604224       66.93799741919030
C          -34.45114215260767      -26.40126509573694       64.48905419429917
C          -34.86170272906213      -25.88422231359607       63.19286498845583
C          -36.02863464985963      -25.20704569136015       63.39887179408360
C          -36.31433325321036      -25.29973726508545       64.81673919938521
C          -37.65991091270629      -24.65881833983534       66.80167508139004
C          -38.64545582359186      -23.80158967875315       67.42869837446817
C          -38.58423179671559      -24.05956406785209       68.77070606953988
C          -37.57577911769321      -25.09496311058205       68.94262609859122
C          -36.36166409252084      -26.80376941289363       70.24839816352592
C          -36.17639214504232      -27.62434617731223       71.43432875253534
C          -35.28460666807119      -28.61111820260202       71.08905115570809
C          -34.92096056025085      -28.36217202696938       69.70643953558974
C          -33.44801377415694      -28.90091021274602       67.77708318351824
C          -32.28517640096548      -29.55153827447314       67.22214091307993
C          -32.05849581298470      -28.96640173622563       66.02587352565685
C          -33.09636395521240      -27.96826379495326       65.85018221887570
C          -33.31702050023858      -27.17690286274891       64.72019463765153
H          -32.56193481502022      -27.19183403296469       63.94155634544223
C          -37.38810433925482      -24.67841308918415       65.43804085364515
H          -38.07127050011458      -24.13035965337744       64.80138698590034
C          -37.23094906598131      -25.71648244128566       70.14066956634366
H          -37.69523041911770      -25.33696584684193       71.04584857333488
C          -34.01305627546049      -29.15779438275102       69.02518199057791
H          -33.69208471218609      -30.05468458092032       69.53598971178657
C          -36.88119044731653      -24.49831579553194       62.39762926828323
H          -36.46883819237868      -24.60363308173112       61.39791296219015
H          -36.94566331125525      -23.43489505420338       62.62566366239195
H          -37.89496660896155      -24.89947330285798       62.39375198490385
C          -34.18011097871081      -26.12646152498391       61.88489017358961
H          -33.52193034160614      -26.98851078995623       61.93910274767482
H          -33.58722524903344      -25.26080186921553       61.58783136258986
H          -34.91017111930747      -26.31397899677593       61.09788309639904
C          -39.51076628092298      -22.79722952732796       66.73747908170502
H          -40.37304603035336      -23.27809536292430       66.27394741131742
H          -38.96111199428242      -22.27394712180789       65.95726548496866
H          -39.88391814718469      -22.06084591857393       67.44684621309206
C          -39.44903648221712      -23.46146433937523       69.79852942614508
H          -39.04357601637775      -22.66377752917343       70.41406378973704
C          -40.70783370977399      -23.83974314531691       69.95541140129932
H          -41.12365441873484      -24.62543311919523       69.34838287900223
H          -41.36343949939748      -23.39965890540563       70.68957894421875
C          -36.82825508375524      -27.44866265480291       72.76698644242879
H          -37.54428126129812      -28.24970979108994       72.95492925846824
H          -37.36345430819901      -26.50824306278169       72.84045374555025
H          -36.07877210613905      -27.49077301011645       73.55845763895333
C          -34.73293396035876      -29.68505484057808       71.89009809343196
H          -33.73099316880514      -30.01758740644129       71.63830938134741
C          -35.36781587419747      -30.29362277945981       72.88645984148583
H          -36.36812198032226      -30.01958748245143       73.15787902063241
H          -34.92017211105608      -31.09479513786570       73.45030664471766
C          -31.51030891765548      -30.62728211575676       67.92813651800124
H          -32.07989917392668      -31.55829438866136       67.99147915244441
H          -31.26548978894839      -30.33966083435680       68.95360193252763
H          -30.57599565782828      -30.84083520494101       67.41398104152472
C          -30.97924058100615      -29.28329968028927       65.02930916347526
H          -30.67931389142922      -30.32729546098065       65.10502431134216
H          -30.08718235979549      -28.67140798661917       65.18961030313072
H          -31.30749576130428      -29.11072808175257       64.00383758500649
C          -33.08809951519675      -22.60094498210178       70.29017960960948
H          -32.56969546938974      -21.73650114759405       69.88085092346688
H          -32.52695543406238      -22.97114616504212       71.14618742500362
H          -34.07282761156405      -22.29410473491300       70.62537509652786
N          -32.15832562359127      -24.25017813168741       68.64465719134495
H          -31.19146361744905      -24.01362862909907       68.80157281397810
C          -33.22868550604163      -23.66585822693609       69.26949555258307
C          -32.63782489672244      -25.20166852107365       67.80955621989128
H          -32.00707504478549      -25.80626102107972       67.18833505674532
N          -33.94566472930084      -25.25570181138498       67.87312578642722
C          -34.32446851091571      -24.29988285062250       68.76562434597233
H          -35.36031851522003      -24.14720464797809       68.97570512039559
C          -38.98302767186108      -31.11028362150355       67.38191971149277
H          -38.88493892936417      -31.90377152901796       66.64327031050280
H          -40.03664592010609      -30.84937083487826       67.46838171400549
H          -38.63649568283272      -31.48021607363613       68.34051960556702
N          -38.40690698862385      -29.24729615876141       65.81469377776850
H          -39.10387359488916      -29.47974469605226       65.12678188784349
C          -38.18575197939786      -29.92343573818210       66.98488909080808
C          -37.53467416242309      -28.21674178771280       65.76277457454582
H          -37.47935144342486      -27.52637967271986       64.94748478420988
N          -36.77887043314067      -28.19239800353607       66.83179167058560
C          -37.16315321507314      -29.25742760632131       67.59568618179563
H          -36.67836260718589      -29.47377295019070       68.52365975287671
87
 energy: -128.449169111849 gnorm: 0.019282439109 xtb: 6.7.1 (edcfbbe)
Fe         -35.44656244794695      -26.69393606066090       67.33260998636102
N          -35.37753836413012      -26.07557656728980       65.43329302485459
N          -37.00815858036225      -25.41855610630039       67.71849218622529
N          -35.56053617897628      -27.28085337560534       69.22416215454908
N          -33.91409606184062      -27.94371108987718       66.94260953821316
C          -34.46149997962728      -26.41291179955014       64.48855065297282
C          -34.85970790577527      -25.88627046918014       63.19685812154538
C          -36.02747847563154      -25.21251869944453       63.39969180988285
C          -36.31782697706921      -25.31223888060838       64.81306666517361
C          -37.64707605083839      -24.66190241882396       66.79340516308062
C          -38.63682126037740      -23.81827346313129       67.42390968911243
C          -38.57312205012332      -24.08435726343614       68.76304584312066
C          -37.55660520662942      -25.10746372652005       68.92685001807975
C          -36.34493871960967      -26.80700233626794       70.23837405304438
C          -36.17627347147991      -27.61821200681398       71.42493874987066
C          -35.28552547471995      -28.61041032348719       71.09239432134474
C          -34.90231092832325      -28.36168004198100       69.71586335938633
C          -33.44868302178456      -28.89455151522468       67.78558917252778
C          -32.29456532454176      -29.55339579938558       67.22080119822475
C          -32.06295123980868      -28.95416094172256       66.02016654756322
C          -33.10637138614943      -27.96065234453726       65.85062093791630
C          -33.33212089170098      -27.19114765605106       64.71393461488064
H          -32.59950529101993      -27.24770518066260       63.91284888073298
C          -37.38059885497368      -24.67360622592842       65.43096250930591
H          -38.04392426139755      -24.09413367665171       64.79939166399389
C          -37.22387229154621      -25.73249192310334       70.12291323657318
H          -37.72942652821395      -25.38150113260206       71.01944888055600
C          -33.98805838446874      -29.15214534959280       69.03924021027126
H          -33.62679629564055      -30.02966982199723       69.56194868532354
C          -36.87563167017500      -24.50159748168523       62.40161928487681
H          -36.46193162267992      -24.60581284921395       61.40228761423990
H          -36.93780204753944      -23.43915686180937       62.63508762330603
H          -37.89031146937591      -24.90105208096154       62.39924000383421
C          -34.17168058200765      -26.12117438468255       61.89542050600116
H          -33.51634503977567      -26.98557251251768       61.95013442893487
H          -33.57712715586987      -25.25564526405932       61.60147176725201
H          -34.90442580782420      -26.30335698269233       61.10994279487419
C          -39.50462363530652      -22.81662003073262       66.74111731868717
H          -40.36363384504467      -23.29725943924880       66.27086442561134
H          -38.95159226471564      -22.28572313896942       65.96807823350925
H          -39.87958002768475      -22.09003777220691       67.45931123016202
C          -39.42709954043241      -23.49515703884184       69.79687282238638
H          -39.00004122223913      -22.71091762147064       70.41501650302922
C          -40.69330027573500      -23.84903718658211       69.95729887964421
H          -41.13168409366587      -24.62311369548635       69.34870171387087
H          -41.34006102336343      -23.39411744751875       70.68928242511390
C          -36.83311671808569      -27.42663561559186       72.74872837682518
H          -37.56916622024008      -28.21148656834094       72.93006565783003
H          -37.34504827709225      -26.47191182292440       72.81707843427947
H          -36.08775171947615      -27.48659727333877       73.54350222099191
C          -34.74569897578661      -29.67700028822305       71.90004787278293
H          -33.74511091574990      -30.00089537406706       71.63693814684952
C          -35.36885620969441      -30.29374829236488       72.90016423317307
H          -36.37773686479106      -30.04710747634869       73.17564360196444
H          -34.90686287955001      -31.09158011761361       73.45555828792723
C          -31.51851521154435      -30.62366982916504       67.91207288287744
H          -32.09697509240234      -31.54679788969585       67.97165648060658
H          -31.27688446474177      -30.31830342131847       68.93070927132861
H          -30.58810166358756      -30.83175366924836       67.39070985378329
C          -30.98751545513548      -29.27235676191492       65.03388766369852
H          -30.68980919877096      -30.31564209520622       65.11851903217489
H          -30.10334978136114      -28.65466112216412       65.20210025363768
H          -31.32971042396178      -29.09899733371999       64.01599751503321
C          -33.07382791294031      -22.58827311811557       70.29469114625824
H          -32.55608262354079      -21.72379065239692       69.88364585943124
H          -32.51237622970137      -22.95381880212176       71.15309962412763
H          -34.05830356543238      -22.28119532726077       70.63121832459164
N          -32.16598650307374      -24.25241150604215       68.64413393098779
H          -31.19470367858627      -24.02257576396305       68.78608410469002
C          -33.22504650489309      -23.65751985802299       69.27950176133987
C          -32.66699751522170      -25.20624322085267       67.82060410088133
H          -32.05088535028369      -25.81993334644668       67.19519645425861
N          -33.97325515256387      -25.24968409178172       67.89908727203969
C          -34.33139252102876      -24.28643669644707       68.79248229961576
H          -35.36206046324626      -24.11886154194444       69.01604702554702
C          -38.98329942770741      -31.11388802122878       67.37721875276942
H          -38.88552878820121      -31.91123376671450       66.64200665948360
H          -40.03865192951399      -30.85889987369028       67.46638756857347
H          -38.63367682080561      -31.47847355031177       68.33702785595013
N          -38.41600595613939      -29.24833833782261       65.80774569624083
H          -39.10890336150797      -29.48442611689971       65.11642402701165
C          -38.19216974953537      -29.92325638735868       66.97844295095649
C          -37.55110126726558      -28.20906753535632       65.76382982507070
H          -37.49731316890877      -27.51671500687646       64.95103356618378
N          -36.79585585995780      -28.18058548812657       66.83275939977497
C          -37.17779617613439      -29.24806239058654       67.59306973312162
H          -36.69774617369627      -29.46777666326815       68.52215282530986
87
 energy: -128.453049720627 gnorm: 0.013921614686 xtb: 6.7.1 (edcfbbe)
Fe         -35.43986670697235      -26.69334588360990       67.32472413250619
N          -35.38304968871081      -26.08903939726417       65.43319886766128
N          -36.98792148766716      -25.42316234744539       67.69945237236689
N          -35.53862830976501      -27.29233258589798       69.22433320350918
N          -33.92645220811468      -27.93262045134208       66.95168948150418
C          -34.47341353044600      -26.42948059966568       64.48637800670905
C          -34.85798658209297      -25.89107980844724       63.19951269674576
C          -36.02230304638385      -25.21530683913149       63.40054311389594
C          -36.31553512717227      -25.31797284948352       64.81024040744731
C          -37.63038328431139      -24.66253558192939       66.78194345668710
C          -38.62852423315320      -23.83834163124727       67.41764844217259
C          -38.56488997388243      -24.11834643463580       68.75169261067842
C          -37.54204306419103      -25.13043828722649       68.90618066090349
C          -36.33493571522403      -26.81759553021678       70.22513094168235
C          -36.17873916202453      -27.61521348299825       71.41459834462935
C          -35.28353982924200      -28.60843482326387       71.10003028182028
C          -34.88056796709370      -28.36328240417752       69.72940325800862
C          -33.45031336542646      -28.87855656262515       67.79679369712174
C          -32.30284266137051      -29.54001518198582       67.22247321164859
C          -32.08166406377411      -28.94710431938384       66.01462504716726
C          -33.12886272050099      -27.95916815829255       65.85119388797625
C          -33.35706929239344      -27.22112006476296       64.70279342030192
H          -32.64372514152090      -27.31457735802080       63.89124861583849
C          -37.36626069690255      -24.65955843742583       65.42236295396143
H          -38.01148508879269      -24.05857176984436       64.79524022238745
C          -37.22710316699060      -25.76045000336248       70.09928609357446
H          -37.76366395768806      -25.43156438502421       70.98278469075994
C          -33.95206552749195      -29.13969784400638       69.05912366362584
H          -33.54755192867572      -29.99650878615876       69.58541205109074
C          -36.86855790399082      -24.50014479507511       62.40452893929883
H          -36.45571505625814      -24.60538259295209       61.40444194074760