78
 energy: -116.058077393719 gnorm: 0.000055984083 xtb: 6.7.1 (edcfbbe)
Fe         -39.74517091548968      -74.16212637286669       -1.08711769213690
N          -39.15542501373590      -75.83111802278832       -2.04639363185556
N          -41.43967706570690      -74.15000267352292       -2.18072355514836
N          -40.36626222320516      -72.54480017822247       -0.10090033949925
N          -38.09335027020074      -74.22266008382249        0.02316660495889
C          -37.98596621921623      -76.50221693408351       -1.87125640383990
C          -37.90099338148596      -77.62628514702529       -2.77536402747927
C          -39.04831514341637      -77.61787364951925       -3.50686948719986
C          -39.81720456107686      -76.48579448661921       -3.04178462697139
C          -41.79527987240217      -75.03159995564194       -3.15861635284383
C          -43.05219584652303      -74.65929423251306       -3.75157414162226
C          -43.45203363554068      -73.51087021288254       -3.11820968518965
C          -42.42891210255586      -73.21896771190634       -2.13471268549317
C          -41.50812620313621      -71.83901306182720       -0.32386739257704
C          -41.59993166314599      -70.71386202406494        0.57309439755136
C          -40.47476888362417      -70.75164528199808        1.35183828681575
C          -39.72318127980531      -71.91168213572196        0.91042244691489
C          -37.74801573412150      -73.36033811554270        1.01316757662980
C          -36.46418761577685      -73.71634009227552        1.57986724906193
C          -36.04212844023453      -74.81632502784012        0.90307626065694
C          -37.07464518801658      -75.11667967624167       -0.06638340320038
C          -37.00897804945954      -76.17724056211506       -0.94889577978033
H          -36.13028719619867      -76.80279523088493       -0.91403010343348
C          -41.04781952599424      -76.12814685588366       -3.55788720002537
H          -41.44683297146881      -76.73874650108617       -4.35344628373970
C          -42.46317431775230      -72.13466572059789       -1.27974046083681
H          -43.30221663235398      -71.46149399797980       -1.36547060904154
C          -38.49773433388246      -72.27924234530019        1.43437376490519
H          -38.09147802588206      -71.67339588647741        2.22998492723561
C          -39.49047837376613      -78.55087888306555       -4.58207281774267
H          -38.74708109365551      -79.32600843732905       -4.75060074921989
H          -39.64404240675555      -78.01422762684521       -5.51888122992947
H          -40.43091525736337      -79.03169717141736       -4.31112547712192
C          -36.75044720668728      -78.57138134494510       -2.83524917442150
H          -36.61257763828063      -79.06841285206590       -1.87473235587214
H          -35.82979560282149      -78.03882083746760       -3.07453010902423
H          -36.91311078706755      -79.33278813873376       -3.59420358647646
C          -43.77375661178777      -75.43957133978768       -4.79490376696215
H          -43.65134108936190      -76.50931499568048       -4.63126557068602
H          -43.39447898675436      -75.20543712398906       -5.79126752495179
H          -44.83555663745388      -75.20296667919126       -4.76882418942733
C          -44.65135356624540      -72.72842572940758       -3.31799665350810
H          -45.04954985068415      -72.24797442394849       -2.43183143872989
C          -45.27643897941837      -72.55491001409948       -4.47809807685960
H          -44.90235535477809      -72.96687183332381       -5.39906612744517
H          -46.17667557306270      -71.96739224490366       -4.54988542518223
C          -42.74996255509944      -69.77160762043690        0.65237571663280
H          -43.69213781573475      -70.30158206480054        0.52047046493503
H          -42.68144278288240      -69.00687425598970       -0.12322001632997
H          -42.76167060015076      -69.27824979443385        1.62205556557409
C          -40.07487733446079      -69.87081590006925        2.42694363445305
H          -39.53469233829205      -70.34134641163989        3.24028706513794
C          -40.31043782480826      -68.56387852153566        2.48129062222745
H          -40.80021036282836      -68.03629562321639        1.68139948905393
H          -39.99585271228494      -67.96902058178424        3.32280451399108
C          -35.80105531849573      -72.97578768642987        2.68999726516446
H          -36.42743834434655      -72.98441038552468        3.58213686510150
H          -35.62720200929878      -71.93667874193795        2.40907998601925
H          -34.84416817393875      -73.42767415064557        2.93953348249325
C          -34.79033273209797      -75.60742141034495        1.07087134173268
H          -34.16867400647546      -75.18547034483589        1.85667270864559
H          -34.21465634810187      -75.61590263044876        0.14496543995911
H          -35.02212566268643      -76.63961075978665        1.33443602774577
O          -40.85519648639681      -75.55258577126259        0.36123744619786
H          -40.52480627223364      -76.40146048391409        0.04736833445947
H          -41.75356796670610      -75.45716858697844        0.02672203333628
C          -36.77155741356594      -70.25434587921760       -3.72548802316403
H          -37.31400917697260      -69.52975292417791       -4.33267915674331
H          -35.88489503911250      -70.56586741781881       -4.27755086862051
H          -36.45739701263567      -69.77136985521065       -2.80561660253569
N          -38.17021852044761      -72.22820660799111       -4.37282931181589
H          -38.04768609095451      -72.11804690194892       -5.36600862289824
C          -37.63094977194943      -71.42190293941258       -3.40492196755621
C          -38.89356779453438      -73.18648370066713       -3.75140916108302
H          -39.42966555782539      -73.95941566217243       -4.26204465201641
N          -38.84493959074546      -73.03632483750954       -2.45015662391161
C          -38.06284619631347      -71.94281192174029       -2.21889810892227
H          -37.86551286027738      -71.60632777265116       -1.22203826654445
