87
 energy: -124.476583497913 gnorm: 0.290249068551 xtb: 6.7.1 (edcfbbe)
Fe          55.63600000000000       38.03900000000000        1.28600000000000
N           57.43700000000000       38.32800000000000        2.16000000000000
N           55.43700000000000       40.04500000000000        1.22100000000000
N           53.93300000000000       37.80600000000000        0.16300000000000
N           55.91500000000000       36.05300000000000        1.16300000000000
C           58.28000000000000       37.30900000000000        2.52500000000000
C           59.35200000000000       37.81600000000000        3.32700000000000
C           59.16200000000000       39.12100000000000        3.45100000000000
C           57.95800000000000       39.47200000000000        2.71300000000000
C           56.24600000000000       40.97200000000000        1.85800000000000
C           55.67900000000000       42.28600000000000        1.64400000000000
C           54.58400000000000       42.14500000000000        0.89500000000000
C           54.39800000000000       40.73100000000000        0.61000000000000
C           53.09199999999999       38.82100000000000       -0.25900000000000
C           51.91699999999999       38.19300000000000       -0.84700000000000
C           52.07299999999999       36.86700000000000       -0.75500000000000
C           53.34600000000000       36.58300000000000       -0.12700000000000
C           55.10200000000000       35.06100000000000        0.65200000000000
C           55.78699999999999       33.77900000000000        0.79800000000000
C           56.96300000000000       34.01900000000000        1.35400000000000
C           57.06100000000000       35.43200000000000        1.59500000000000
C           58.14899999999999       36.00400000000000        2.17200000000000
H           58.99999999999999       35.35299999999999        2.37100000000000
C           57.38800000000000       40.71399999999999        2.57700000000000
H           57.87500000000000       41.55300000000000        3.07400000000000
C           53.36600000000000       40.16800000000000       -0.12700000000000
H           52.70600000000000       40.85700000000000       -0.65400000000000
C           53.86600000000000       35.32500000000000        0.13000000000000
H           53.23299999999999       34.46900000000000       -0.10500000000000
C           60.48799999999999       36.94400000000000        3.89600000000000
H           60.81300000000000       36.50300000000000        2.92900000000000
H           59.84099999999999       36.21200000000000        4.42600000000000
H           61.38700000000000       37.16999999999999        4.50900000000000
C           60.07200000000000       40.09100000000000        4.21800000000000
H           59.26900000000000       40.50800000000000        4.86200000000000
H           60.25099999999999       40.78600000000000        3.37000000000000
H           60.99800000000000       39.98200000000000        4.82200000000000
C           58.01600000000000       32.95600000000000        1.70900000000000
H           57.31000000000000       32.40100000000000        2.36300000000000
H           59.04699999999999       32.83000000000000        2.10400000000000
H           57.95100000000000       32.54600000000000        0.67900000000000
C           55.38600000000000       32.32300000000000        0.43200000000000
H           56.27300000000000       31.70000000000000        0.44900000000000
C           54.13100000000000       31.93400000000000        0.34200000000000
H           53.31600000000000       32.67300000000000        0.33500000000000
H           53.88100000000000       30.86500000000000        0.27300000000000
C           51.06300000000000       35.81600000000000       -1.26800000000000
H           50.96600000000000       35.28000000000000       -0.30000000000000
H           51.78200000000000       35.26800000000000       -1.91300000000000
H           50.06699999999999       35.85599999999999       -1.75800000000000
C           50.65500000000000       38.85200000000000       -1.47600000000000
H           49.65300000000000       38.79600000000000       -1.05700000000000
C           50.76200000000000       39.95100000000000       -2.21600000000000
H           51.70600000000000       40.18900000000000       -2.72800000000000
H           49.90799999999999       40.63600000000000       -2.32500000000000
C           53.68200000000000       43.30500000000000        0.43500000000000
H           53.53199999999999       43.69100000000000        1.46600000000000
H           52.74900000000000       43.46100000000000       -0.14800000000000
H           54.52200000000000       43.85700000000000       -0.03800000000000
C           56.25900000000000       43.61500000000000        2.16600000000000
H           55.29200000000000       43.87700000000000        2.64700000000000
H           56.29700000000000       44.08100000000000        1.15800000000000
H           57.09000000000000       44.00100000000000        2.79400000000000
C           57.70600000000000       37.40799999999999       -3.96600000000000
H           58.77500000000000       37.12499999999999       -4.07700000000000
H           57.45000000000000       38.15999999999999       -4.74300000000000
H           57.07800000000000       36.50100000000000       -4.09400000000000
N           58.14100000000000       39.11399999999999       -2.17700000000000
H           58.82699999999999       39.61100000000000       -2.70800000000000
C           57.48300000000000       37.98799999999999       -2.61100000000000
C           57.72200000000000       39.42300000000000       -0.96400000000000
H           58.09800000000000       40.25800000000000       -0.37300000000000
N           56.79200000000000       38.55700000000000       -0.61500000000000
C           56.61599999999999       37.65300000000000       -1.62800000000000
H           55.88900000000000       36.85400000000000       -1.55400000000000
C           53.85699999999999       40.41599999999999        4.12400000000000
H           53.50700000000000       41.05000000000000        4.96600000000000
H           53.02799999999999       40.30800000000000        3.39200000000000
H           54.72099999999999       40.91699999999999        3.63800000000000
C           54.26900000000000       39.06500000000000        4.63200000000000
H           53.54599999999999       38.74300000000000        5.41100000000000
H           55.27100000000000       39.15300000000000        5.10200000000000
S           54.32400000000000       37.84499999999999        3.32400000000000
C           54.77400000000000       36.36200000000000        4.22900000000000
H           54.12100000000000       36.21699999999999        5.11600000000000
H           55.82400000000000       36.43300000000000        4.58300000000000
H           54.67000000000000       35.46900000000000        3.57700000000000
87
 energy: -124.589752971874 gnorm: 0.159337353505 xtb: 6.7.1 (edcfbbe)
Fe          55.65249702036409       38.05404504585491        1.25452714231912
N           57.43287112346395       38.32112947716789        2.19350615332306
N           55.42816647102339       40.03521326080219        1.23536164646816
N           53.91986982547728       37.80505058745844        0.17609024973056
N           55.92135589202589       36.05512390299154        1.15829245081328
C           58.29028939795057       37.31529514755807        2.53099958877953
C           59.37543533220543       37.81648188823676        3.33150231495860
C           59.17918751299098       39.13185779926065        3.45991745440893
C           57.96266251823027       39.46248901646353        2.72796354592048
C           56.23709478237133       40.95718760397271        1.85301671631886
C           55.69187466928800       42.27052380066014        1.64304101457692
C           54.57659277592809       42.12674466317559        0.88142975176648
C           54.40947536922161       40.71682502491429        0.61435692035012
C           53.09385612520086       38.81016217273854       -0.26680586976742
C           51.90324453116997       38.21185960197290       -0.86340874534430
C           52.05262832711013       36.87343343696387       -0.76539159046527
C           53.32796337639813       36.60036339020908       -0.12429372509780
C           55.10528836053241       35.06631467385235        0.65900089047466
C           55.77770377523969       33.77295875255906        0.78662181793476
C           56.97982701355364       34.03033109689816        1.35458144799461
C           57.05969958575399       35.43626810107835        1.58591477874596
C           58.15755121887727       36.00272769834454        2.17268396994446
H           58.99382291017419       35.34629648488921        2.38066569116943
C           57.38857497700671       40.70801746080588        2.57780511654913
H           57.87194089258413       41.55089931322608        3.06403449520550
C           53.37179831665704       40.16082950885098       -0.12424811687497
H           52.70461079452470       40.85265783929613       -0.63373850934674
C           53.85867120100512       35.33689561401641        0.12747620156841
H           53.23578552051927       34.48498251894000       -0.12121121100654
C           60.46490722336042       36.91463558192485        3.87287090645608
H           60.83821504614840       36.46684973013111        2.94425847161347
H           59.87308136981620       36.17952202032556        4.43174545104146
H           61.33193280535154       37.21330879300471        4.48442783869901
C           60.03471386306627       40.13081552622286        4.20357936895873
H           59.28742775177516       40.55855866523906        4.88030578685173
H           60.26660369944273       40.83148208759894        3.39405765377173
H           60.95453489456442       39.93281046519563        4.78113716875878
C           57.97797501193939       32.93319173147783        1.69080599925698
H           57.33797728620493       32.34736439422232        2.36386921994051
H           59.00488963217874       32.90671763193816        2.09293560739138
H           57.98985723541281       32.48417686757252        0.69000424916640
C           55.37854359552978       32.35714319339768        0.45374253102361
H           56.24685160744019       31.70523326455058        0.44260854504996
C           54.12923490352659       31.93892078233263        0.34314793990283
H           53.31259044102838       32.64859052655929        0.34659641335726
H           53.88445452288330       30.88159229990791        0.25817725290862
C           51.10125941735284       35.78809038934071       -1.24531208914857
H           50.94878808232436       35.23358216126319       -0.31212495506148
H           51.75933590051328       35.22497020769487       -1.91755706489106
H           50.11957538639773       35.91295169478381       -1.73483915763816
C           50.68702307534014       38.90194924392880       -1.42413898272720
H           49.67733281086652       38.75450171059994       -1.03734399231112
C           50.77377534468174       39.96443993917316       -2.21744041690720
H           51.70086846321664       40.20502073821584       -2.72499925820067
H           49.91678434747057       40.61942869985861       -2.35976587476233
C           53.72031528296726       43.31574297633596        0.46107868701974
H           53.51654857214879       43.74268448452064        1.45286633135990
H           52.79165258897775       43.38783734306524       -0.13032311946470
H           54.49625211085121       43.90969304933402       -0.04093387923468
C           56.21130372615500       43.61780822605314        2.13956129132765
H           55.29626328493554       43.94268874615179        2.65293131946953
H           56.29767228166485       44.13540126762206        1.17446357338299
H           57.07017222343948       43.91631112004020        2.76747943749511
C           57.71012693811979       37.40832035303561       -3.97031257971732
H           58.76474382650826       37.12571048146949       -4.08439702358906
H           57.45412873148702       38.14545792395331       -4.74221417308018
H           57.08755212932289       36.51603279048599       -4.09533767777656
N           58.14526978100644       39.10852475346765       -2.18679746098944
H           58.83516899234731       39.61169519848335       -2.71563275806163
C           57.48053412572963       37.99159636503402       -2.62436080653346
C           57.70772566792333       39.40882952179221       -0.95758684785867
H           58.08009817683137       40.23857995093946       -0.37373057572447
N           56.78638060850201       38.54306292779303       -0.59701955378635
C           56.62046811529063       37.65891935323295       -1.62351276600521
H           55.89995587344809       36.86334531957335       -1.55240611704229
C           53.85539377096588       40.41945688884729        4.12311906015510
H           53.51095261539997       41.04695002247202        4.95463596525308
H           53.03813066437297       40.31472802504879        3.39890114368715
H           54.70245028552402       40.91542304757706        3.63855290588133
C           54.27743689378750       39.06313049810797        4.64106271418499
H           53.55573771975562       38.73089882324566        5.40343724591742
H           55.27028463394207       39.14297978131582        5.10567041940804
S           54.30643972341863       37.83395233961077        3.30937607996089
C           54.78003915850314       36.35973381184895        4.23908578309985
H           54.12364798875896       36.22265762589430        5.10799285528159
H           55.81991270013775       36.43104066291454        4.57875371676422
H           54.67336747309545       35.48899309111422        3.58115660529675
87
 energy: -124.654133265100 gnorm: 0.064345786288 xtb: 6.7.1 (edcfbbe)
Fe          55.66586806058376       38.07441191778263        1.22847228572172
N           57.43045537655799       38.31521745905843        2.21697827852106
N           55.42379954373642       40.03103992219459        1.24239813028096
N           53.91527443655841       37.80731918394417        0.17837246673399
N           55.93218512747544       36.05590882894639        1.14711884726475
C           58.29555976860399       37.32003715847106        2.53698960399004
C           59.39621048779035       37.81772805589023        3.33485634796690
C           59.19215589559941       39.14178975430199        3.46880893072712
C           57.96173304436059       39.45219189553217        2.74306624250261
C           56.22796371534292       40.94923988425010        1.85027748208763
C           55.70139352836578       42.26528521049779        1.64222498883405
C           54.57065988614814       42.11940159161804        0.86951858424569
C           54.41754130256589       40.71030245864562        0.61976015413957
C           53.09618712975415       38.80032095755100       -0.26988270519864
C           51.88901144740751       38.22391590842449       -0.87252024675091
C           52.03560478293951       36.87391909231555       -0.76644970813417
C           53.31838463708809       36.61829092952629       -0.12120193383901
C           55.10933186366148       35.07384183415380        0.66304902843315
C           55.76518217645557       33.76904676318708        0.78175675524726
C           56.99208247046925       34.03398396070704        1.35177119924002
C           57.06211545460457       35.43548059239567        1.57242044310263
C           58.16549547481431       36.00084380852631        2.17602156895531
H           58.98797549397834       35.33900943695463        2.39284741010028
C           57.38692926678448       40.70100173999028        2.58106676274898
H           57.86990881196767       41.54792595192742        3.05169474806452
C           53.37218689561647       40.15462325339018       -0.11665045655990
H           52.69961139473095       40.84753479226872       -0.60986835519114
C           53.85650618671961       35.35111468919285        0.12330361219670
H           53.24275877468818       34.50192315239572       -0.13948416611126
C           60.44445001547001       36.89149727071590        3.85000633972109
H           60.86537288308790       36.42791182208838        2.95944151737310
H           59.90509335165898       36.14838654269874        4.43618423144773
H           61.27724638176937       37.26766682603283        4.46016820625488
C           59.99769632952940       40.16668702950806        4.18750077382003
H           59.30575581667986       40.61314222795452        4.89690457177953
H           60.28004236434354       40.88297909471972        3.41939317069279
H           60.90834021665226       39.87598832676413        4.73753360380762
C           57.93915769650801       32.91432023157909        1.67087657151490
H           57.36580488044154       32.29609518059049        2.36345116398501
H           58.96027066122514       33.00545567721809        2.08207967686399
H           58.02697485436733       32.42111235491040        0.70136234727350
C           55.36753954998101       32.40401176650241        0.46894915673555
H           56.20905984378388       31.71300892340498        0.43736682042131
C           54.12572041434551       31.94854366176409        0.34052980162531
H           53.29745662916400       32.62927021200613        0.36159819640311
H           53.89414937213093       30.89842407832783        0.24093064852548
C           51.13922193841392       35.76657510248296       -1.22196576301603
H           50.93487705419910       35.18724293103494       -0.32356135221034
H           51.73933686076440       35.18302537739271       -1.91903936222814
H           50.17366644735594       35.98104477136974       -1.70929600788882
C           50.72384005359947       38.93890335114955       -1.38850249881076
H           49.72121398261454       38.71471950562768       -1.00895390680810
C           50.78823456338175       39.97576174674333       -2.21640635648038
H           51.70399251847878       40.22916453415184       -2.71659189390845
H           49.92273147809217       40.59797813973444       -2.39450076506592
C           53.75729348219505       43.32210850248435        0.48381243058989
H           53.50377704487846       43.78510902814590        1.44001418976177
H           52.83353644187137       43.29527356861534       -0.11639258087831
H           54.47321037250378       43.95686871482960       -0.04318766499569
C           56.16617069560014       43.61693177094245        2.11232267669534
H           55.30055343703732       43.99905875183797        2.65663271984314
H           56.29580329502888       44.18462057682110        1.18837497701033
H           57.05411910065222       43.81175796841667        2.74155294565564
C           57.71141642505982       37.40844030929531       -3.97401512904621
H           58.75746780216664       37.12708252667730       -4.08916204628671
H           57.45731469600199       38.13460185579418       -4.74556030290181
H           57.09308418060519       36.52492641604039       -4.09765020515957
N           58.14463167888476       39.10456637112805       -2.18956913496556
H           58.83720457098809       39.61435909371404       -2.71392123846725
C           57.47536289013640       37.99446698844593       -2.63333126040638
C           57.69398586295603       39.39064394736642       -0.94685646076601
H           58.06258271560102       40.21852464583905       -0.37038155102344
N           56.78012120985775       38.52342403112806       -0.58077295434487
C           56.62481923596921       37.65801830872704       -1.61973384172995
H           55.90867264775002       36.86412816005441       -1.55606438102042
C           53.85386852993297       40.42520912673533        4.12420138046274
H           53.51324520490125       41.04650705134629        4.94987075126299
H           53.04435679638356       40.31633171975436        3.40621384373548
H           54.68978649506019       40.91508536957225        3.63775723047967
C           54.28236391281835       39.06571116272416        4.65015496009856
H           53.56373033855114       38.71736141515090        5.39606917403807
H           55.27172938413653       39.13074595237052        5.10194638227903
S           54.28911511237585       37.82408678744351        3.29898028133393
C           54.78613040528742       36.35362385224548        4.24606657184142
H           54.12606061454963       36.22993259541504        5.10155897428901
H           55.81813567025752       36.43504468807112        4.57345394058286
H           54.67803115659319       35.50088187235352        3.58144013088438
87
 energy: -124.682060502313 gnorm: 0.050302567775 xtb: 6.7.1 (edcfbbe)
Fe          55.67801929402609       38.08640232678258        1.21363143299490
N           57.42250239541132       38.30945954707546        2.23200484024622
N           55.42091436225467       40.03041729055180        1.24682508754783
N           53.92398192975866       37.81380512746372        0.18142144869392
N           55.94712914876174       36.05803591684662        1.13293792289583
C           58.29322448846224       37.31866555957823        2.53993374030416
C           59.39976853238485       37.82038980945531        3.33200399262424
C           59.18804273104358       39.14896700869341        3.47041154557356
C           57.95092755613609       39.44638211573968        2.75282811612598
C           56.22322789970855       40.94897386522713        1.85186968324746
C           55.70126140919088       42.26704267107830        1.63844318908839
C           54.57163416727899       42.12048615088310        0.86411972507004
C           54.41866135929956       40.71072144436382        0.62251038135081
C           53.10784474981306       38.79902673718836       -0.26884519639303
C           51.89957812311675       38.22417415189575       -0.86964710203701
C           52.04241913910310       36.87054138836591       -0.75653432913117
C           53.32608609974244       36.63015373970025       -0.11476329390633
C           55.11289393451073       35.08626101029703        0.65903824499858
C           55.75200861378433       33.77752262034085        0.77649654620821
C           56.99157189627133       34.02813937000777        1.33901172296518
C           57.07164280525995       35.43013145394796        1.55825845922207
C           58.17090046006543       35.99762419092610        2.17776931269397
H           58.98389146451859       35.33049551625396        2.41083750572482
C           57.38170917479722       40.69577034860981        2.58418653707951
H           57.87073707401998       41.54598414878820        3.03863999245381
C           53.37134386182593       40.15274723906812       -0.10846250778196
H           52.68505372165292       40.84505805852133       -0.57898833796980
C           53.86170007154899       35.36496800944028        0.11920948837484
H           53.25410011003244       34.51933480417561       -0.16481340037725
C           60.43770876795797       36.88521166703186        3.83759024486257
H           60.89749121047623       36.39513015775191        2.97659414396637
H           59.94008654440520       36.12349132423982        4.44223896614193
H           61.23834765581213       37.32863930881550        4.44358985068307
C           59.97430819592491       40.19046670588507        4.17721567937098
H           59.32438689946932       40.66779596204991        4.91193372279371
H           60.29109132130657       40.93458665699952        3.44469327488569
H           60.87134584947395       39.82801014247015        4.70224303685229
C           57.92225894249302       32.90880247936227        1.65843504023148
H           57.40078843611280       32.25080518710794        2.36095678521488
H           58.92748152760619       33.10881208461736        2.07780318862802
H           58.07128405039109       32.36367662186629        0.71737689598753
C           55.33891334315692       32.43246182596013        0.47437638697943
H           56.16133372167883       31.72039814725560        0.42753927676092
C           54.10434732037100       31.95675187678039        0.34145146680146
H           53.25686361386079       32.61492041811977        0.38555021725948
H           53.89805831877818       30.90699135301674        0.20889694419542
C           51.16395742983843       35.75696478005487       -1.20441043341823
H           50.92172438750104       35.14290459165592       -0.33420277000497
H           51.72067949207847       35.14518413784650       -1.91831945830397
H           50.21701116468438       36.04881747414034       -1.68563762821178
C           50.75120823770077       38.96404635288901       -1.36297013729003
H           49.76466253098070       38.69179812444134       -0.97755254262511
C           50.80170678254025       39.98887259136353       -2.20700786212116
H           51.71712947741852       40.26144690228904       -2.70106860227571
H           49.91832273917986       40.57154180982212       -2.44009025147892
C           53.77295602148261       43.31944014992465        0.48954252273212
H           53.48445590315536       43.81969083532336        1.42032209416348
H           52.85961311728308       43.19744725549815       -0.11485993013868
H           54.44343146862717       43.99760245915051       -0.05050437920301
C           56.14510085157783       43.61253683633269        2.09823310044146
H           55.31249580339446       44.04862230868150        2.66145055904889
H           56.29854334056945       44.22957066847343        1.20620578919426
H           57.05025917101018       43.70906279093401        2.72516570690130
C           57.71082941657560       37.40975657142872       -3.97840338835079
H           58.75654984761002       37.12814191607058       -4.09343307127383
H           57.45873856631157       38.12985503887823       -4.75590824161665
H           57.09386108891477       36.52620639662569       -4.10278202511960
N           58.13718339201198       39.10115342268671       -2.18325786031702
H           58.83091938549735       39.61726452979293       -2.70131051343370
C           57.46912010759239       37.99397193629957       -2.63725197332206
C           57.68301636759681       39.37023318981841       -0.93430009524333
H           58.04462396955061       40.19754218578212       -0.35606076618340
N           56.77544111138647       38.49619391499758       -0.57289195885090
C           56.62529674295456       37.64440824617721       -1.62249396764626
H           55.91334687174950       36.84776268153892       -1.56747210863146
C           53.85290029082702       40.42492671172363        4.12887936298677
H           53.51476984924052       41.04777388606992        4.95346768627441
H           53.04195569165642       40.31505068258529        3.41388376734141
H           54.68242511312494       40.91696108314190        3.63487054958852
C           54.28408045569797       39.06361867827708        4.65018899786298
H           53.57078077516650       38.70075453110977        5.39123971863198
H           55.27788894070495       39.11361588535102        5.09177765302361
S           54.27383370087321       37.81885731056835        3.28805802938233
C           54.79001510305869       36.35416414522582        4.24458213680197
H           54.12836824401236       36.23669760661743        5.09814007939773
H           55.82214186879278       36.44639428468572        4.56590661914634
H           54.68478288701458       35.50551155512841        3.57745572263799
87
 energy: -124.695060379336 gnorm: 0.039352639487 xtb: 6.7.1 (edcfbbe)
Fe          55.68878625357846       38.09223924942980        1.20520628538172
N           57.41074708830448       38.30286163948012        2.24096027338518
N           55.42070603347506       40.03358005190066        1.24635362859630
N           53.94287880642354       37.82329934166687        0.18493287912840
N           55.96590195248397       36.06073888202740        1.12153000490048
C           58.28770384676027       37.31521069851907        2.54293634072920
C           59.39579214395859       37.82466194669296        3.32836801254542
C           59.17609934093642       39.15656004133204        3.46917837931288
C           57.93607879987935       39.44186705260297        2.75808482110835
C           56.22126428229357       40.95398711252037        1.85191263612665
C           55.69859941311287       42.27403477931497        1.63285507293498
C           54.57384825195815       42.12673669811589        0.86127233947825
C           54.41740476373112       40.71578402363295        0.62478757937394
C           53.12259292898595       38.80276323347943       -0.26230998274854
C           51.91951705613391       38.22482536828719       -0.86014846553982
C           52.06030966711930       36.87023017071779       -0.74347188317963
C           53.34414193863091       36.64128720768861       -0.11021754743478
C           55.12050446089899       35.09944603075845        0.65260820345352
C           55.73868225708006       33.78760375448734        0.77401839040511
C           56.98620200853981       34.01552747310457        1.32594191056577
C           57.08505047710225       35.42084667220786        1.54650947100249
C           58.17518253943880       35.99255955872903        2.18066557269979
H           58.98181463709116       35.32404936198037        2.43403500510327
C           57.37505857405853       40.69289118219323        2.58444795530103
H           57.87334490243776       41.54332829080882        3.02686610658324
C           53.36827004331866       40.15577930759355       -0.09546305705113
H           52.66242040251201       40.84500666164273       -0.53994955307074
C           53.87469017927987       35.37789708411184        0.11072879001919
H           53.27180522162136       34.53715079001813       -0.19543078281943
C           60.44207617541414       36.89746950926072        3.83494445948783
H           60.92942990295881       36.39319369496610        2.99558968761620