87
 energy: -128.331664743788 gnorm: 0.247876247302 xtb: 6.7.1 (edcfbbe)
Fe         -24.13000000000000       14.41900000000000       11.89000000000000
N          -22.64600000000000       14.79000000000000       13.26600000000000
N          -25.54300000000000       15.21300000000000       13.21200000000000
N          -25.64500000000000       14.02500000000000       10.56800000000000
N          -22.73100000000000       13.57800000000000       10.61200000000000
C          -21.30700000000000       14.49100000000000       13.12300000000000
C          -20.60300000000000       14.88100000000000       14.33200000000000
C          -21.52400000000000       15.39800000000000       15.17200000000000
C          -22.81700000000000       15.34200000000000       14.51700000000000
C          -25.25400000000000       15.73500000000000       14.45800000000000
C          -26.49400000000000       16.21200000000000       15.03700000000000
C          -27.48300000000000       15.98900000000000       14.16900000000000
C          -26.90200000000000       15.35200000000000       12.99400000000000
C          -26.98000000000000       14.33400000000000       10.75000000000000
C          -27.69400000000000       13.90900000000000        9.56900000000000
C          -26.82500000000000       13.36500000000000        8.71700000000000
C          -25.50200000000000       13.42600000000000        9.32800000000000
C          -23.05099999999999       13.03600000000000        9.37000000000000
C          -21.83800000000000       12.54000000000000        8.75700000000000
C          -20.71800000000000       12.83300000000000        9.76300000000000
C          -21.36799999999999       13.47700000000000       10.88100000000000
C          -20.72500000000000       13.92000000000000       12.01500000000000
H          -19.64100000000000       13.80600000000000       12.03700000000000
C          -24.01000000000000       15.78300000000000       15.05200000000000
H          -23.96500000000000       16.21600000000000       16.05100000000000
C          -27.55000000000000       14.93900000000000       11.85000000000000
H          -28.62600000000000       15.10800000000000       11.81100000000000
C          -24.30700000000000       12.97600000000000        8.80000000000000
H          -24.36300000000000       12.51800000000000        7.81300000000000
C          -21.36000000000000       15.95900000000000       16.60100000000000
H          -20.29400000000000       15.88900000000000       16.90700000000000
H          -21.97800000000000       15.36700000000000       17.31000000000000
H          -21.67200000000000       17.02500000000000       16.62400000000000
C          -19.06800000000000       14.66100000000000       14.48000000000000
H          -18.53500000000000       15.22100000000000       13.68200000000000
H          -18.83200000000000       13.58000000000000       14.38100000000000
H          -18.72900000000000       15.03400000000000       15.47000000000000
C          -26.65200000000000       16.87300000000000       16.42400000000000
H          -25.66800000000000       17.25900000000000       16.76500000000000
H          -27.01900000000000       16.12300000000000       17.15700000000000
H          -27.36700000000000       17.72000000000000       16.35700000000000
C          -28.96000000000000       16.37000000000000       14.44000000000000
H          -29.22400000000000       16.87600000000000       15.38000000000000
C          -29.94900000000000       16.11400000000000       13.57900000000000
H          -29.82700000000000       15.34700000000000       12.80000000000000
H          -30.89800000000000       16.66700000000000       13.63800000000000
C          -29.21200000000000       14.05400000000000        9.33500000000000
H          -29.40500000000000       14.93700000000000        8.68900000000000
H          -29.72900000000000       14.19900000000000       10.30700000000000
H          -29.60200000000000       13.14500000000000        8.82900000000000
C          -27.23900000000000       12.79400000000000        7.33900000000000
H          -28.26700000000000       12.94600000000000        6.97800000000000
C          -26.40300000000000       12.11500000000000        6.54900000000000
H          -25.49600000000000       11.65100000000000        6.96400000000000
H          -26.61100000000000       12.01100000000000        5.47400000000000
C          -21.70300000000000       11.85200000000000        7.38200000000000
H          -22.05400000000000       12.54300000000000        6.58600000000000
H          -22.32500000000000       10.93200000000000        7.36000000000000
H          -20.63900000000000       11.59600000000000        7.19300000000000
C          -19.21400000000000       12.51300000000000        9.62200000000000
H          -18.66700000000000       13.42900000000000        9.31200000000000
H          -19.06800000000000       11.72800000000000        8.85000000000000
H          -18.81100000000000       12.16600000000000       10.59700000000000
C          -23.05000000000000       18.61300000000000        8.17500000000000
H          -22.28900000000000       19.33800000000000        8.53400000000000
H          -23.88000000000000       19.17100000000000        7.69200000000000
H          -22.57600000000000       17.92700000000000        7.44100000000000
N          -24.21099999999999       18.41300000000000       10.41100000000000
H          -24.36700000000000       19.39600000000000       10.50900000000000
C          -23.57800000000000       17.82500000000000        9.33700000000000
C          -24.57100000000000       17.47900000000000       11.27300000000000
H          -25.08900000000000       17.67100000000000       12.21200000000000
N          -24.19600000000000       16.30500000000000       10.79700000000000
C          -23.57800000000000       16.49300000000000        9.58500000000000
H          -23.19500000000000       15.65800000000000        9.01200000000000
C          -22.50500000000000       10.16700000000000       11.72100000000000
H          -23.32000000000000       10.85500000000000       11.41000000000000
H          -22.94400000000000        9.17600000000000       11.96600000000000
H          -21.78100000000000       10.06500000000000       10.88500000000000
N          -22.45800000000000       11.51200000000000       13.85400000000000
H          -23.42000000000000       11.78000000000000       13.80100000000000
C          -21.81300000000000       10.72500000000000       12.92400000000000
C          -21.60800000000000       11.84700000000000       14.80900000000000
H          -21.85800000000000       12.46500000000000       15.67000000000000
N          -20.43500000000000       11.30800000000000       14.53000000000000
C          -20.53700000000000       10.59700000000000       13.36000000000000
H          -19.68900000000000       10.06500000000000       12.94700000000000
87
 energy: -128.396130961904 gnorm: 0.111673345648 xtb: 6.7.1 (edcfbbe)
Fe         -24.14789716719606       14.42975410933014       11.88526097435428
N          -22.65446535910113       14.78486133229658       13.25629700223873
N          -25.54719854842181       15.20090096043145       13.22095292764084
N          -25.64568369741105       13.98979494458387       10.57537041910889
N          -22.74590518254805       13.57453957295932       10.63197231101833
C          -21.31793931114314       14.49617228244700       13.11646921723361
C          -20.59675298014451       14.87924183868938       14.32436081947862
C          -21.52098548163865       15.39776038257615       15.17593232974951
C          -22.81034359699498       15.33957516260614       14.50232864587397
C          -25.26544815676438       15.73242603276301       14.45446797312007
C          -26.49637155188624       16.21505482837388       15.05287736735151
C          -27.50977806532612       15.96811440537138       14.17825207375230
C          -26.89692639391101       15.34502817160303       13.00516021829269
C          -26.96669830276813       14.32280753264196       10.73780496695892
C          -27.70620029784090       13.90164350602135        9.56649439777605
C          -26.82508550587141       13.32965384763976        8.70353210618457
C          -25.50393444901644       13.41346300109539        9.33423679631456
C          -23.02107902512170       13.04012171942390        9.39261766357642
C          -21.80210227436651       12.54780924362813        8.78814581465639
C          -20.75275801328792       12.82359797843822        9.72932970308286
C          -21.38964219262338       13.47095180712305       10.85238391044506
C          -20.73751511919707       13.91841395648493       12.00023739388875
H          -19.65883340655290       13.79706597067268       12.03071260323548
C          -24.00890779421708       15.78204309283963       15.04293714568762
H          -23.96135238538455       16.21017859388012       16.03949859755978
C          -27.53167035132268       14.93699217807332       11.84391206553262
H          -28.59592022864788       15.10941317996763       11.78973189085992
C          -24.29057088786103       12.98118217076468        8.81309958727089
H          -24.33467410294142       12.53804298051181        7.82781307121236
C          -21.35496867948257       15.94928829990449       16.58046635009864
H          -20.30957622479512       15.88783942664585       16.89897475509022
H          -21.96550015937344       15.37869950621168       17.29170138889044
H          -21.66641449352164       17.00087323181895       16.62004232517257
C          -19.09622462390266       14.66875541685739       14.48060655791253
H          -18.55371807507751       15.21391263229982       13.69746477832602
H          -18.85316064951054       13.60298195770039       14.38874444935208
H          -18.74360359662109       15.02663422914394       15.45341190431333
C          -26.64064474459796       16.86737702182264       16.41238514201728
H          -25.67985636182889       17.25524705068099       16.76272433345900
H          -27.01062136486077       16.13778903450872       17.14307713702787
H          -27.35099719090073       17.69997012449003       16.35829201137081
C          -28.93782157205470       16.35771997786791       14.41751066346096
H          -29.16901524985011       16.89891837779151       15.33851164915618
C          -29.94964565956262       16.11294019234370       13.58606934689767
H          -29.85555913655439       15.38493095124971       12.79480824541614
H          -30.90134675244581       16.62844540874033       13.67481142400969
C          -29.19717668402839       14.05467353101938        9.34195242283217
H          -29.39888642525150       14.92296169729261        8.70184314551906
H          -29.72435793928422       14.19398339328097       10.28956304010920
H          -29.59565755056256       13.16313515248718        8.84596900113408
C          -27.21084648024631       12.80046935601078        7.35701262588969
H          -28.22469166597494       13.00235325464976        7.00146943575791
C          -26.40589791914730       12.10998756983305        6.55147814691994
H          -25.49430194021166       11.66610232888855        6.92543766362685
H          -26.63652921064661       11.97041473054683        5.49919968143844
C          -21.69782801231085       11.87363718103111        7.42493250763825
H          -22.04582293617800       12.53590369800578        6.61812409831971
H          -22.30764874232327       10.95928982368661        7.37653228298502
H          -20.65957544290545       11.60276557184336        7.20525327272492
C          -19.26332333232580       12.51914321332080        9.61532510334065
H          -18.69401345073843       13.41239560885600        9.31692391510875
H          -19.07937653289031       11.74274218499612        8.86425631417161
H          -18.84362128296754       12.17440740297947       10.57108083361519
C          -23.05196162851531       18.61614616294736        8.17801704960740
H          -22.29803113351714       19.33393527374885        8.52216051694835
H          -23.86447424639984       19.16669447828260        7.69046852391239
H          -22.58786554482400       17.94041217005230        7.45415395004463
N          -24.20716306327109       18.42477975534128       10.39850078721613
H          -24.36874301066063       19.41129188988020       10.49891531100164
C          -23.57828299559014       17.83347324655903        9.33100205617216
C          -24.55544240391101       17.47021704668072       11.27000382356039
H          -25.07565349440044       17.65834702072584       12.19583742375361
N          -24.16526682468628       16.29574836453592       10.82282965384124
C          -23.57942136978141       16.49817736166920        9.60089632943202
H          -23.20141159905831       15.67062885224668        9.02767944482447
C          -22.50954340407256       10.17085633669518       11.72153225221824
H          -23.31396167305398       10.84640685433967       11.40635869820409
H          -22.94059894881216        9.18793896337187       11.95329033832499
H          -21.79649428557376       10.06385482340740       10.89800498283477
N          -22.46787534313456       11.50857034303100       13.84060530447940
H          -23.43439203431647       11.78682334731243       13.78707795322257
C          -21.82100944276001       10.72840889554826       12.91753077189904
C          -21.59017052448466       11.83844352786696       14.80055361908395
H          -21.83865944174492       12.45013114853561       15.65302750472057
N          -20.41593893148614       11.31018238464415       14.54614209052396
C          -20.54143866635318       10.61263112784295       13.37543668877555
H          -19.70233007714996       10.08060730269008       12.96182897884001
87
 energy: -128.419762331580 gnorm: 0.040824177126 xtb: 6.7.1 (edcfbbe)
Fe         -24.15829911767522       14.44349757107755       11.87615670983593
N          -22.66529198328992       14.78575673742323       13.24435199977199
N          -25.54647939476971       15.18834427249272       13.22227781049341
N          -25.63833846197808       13.96440347185648       10.58195463981085
N          -22.75974689884312       13.57579154535152       10.64634737107497
C          -21.33448599414571       14.50084910180880       13.10589388490709
C          -20.60181035745012       14.88004052267635       14.30973739760390
C          -21.52605002225356       15.39865025648113       15.17010341957953
C          -22.81187648959625       15.33696116962011       14.48648603276708
C          -25.27429040540131       15.72350966663702       14.44758579540535
C          -26.49470019494740       16.21261220961430       15.05573881316299
C          -27.52214579131225       15.95407910056100       14.17334713620875
C          -26.88865012459609       15.32697309097667       13.01155957246291
C          -26.95001858124693       14.30236812924688       10.73243500715189
C          -27.70394090596561       13.89436738724736        9.56678617976943
C          -26.81338363163970       13.30772928008861        8.69630476298761
C          -25.50072467732733       13.39066111670773        9.34972465516134
C          -23.00851032970130       13.04207266682087        9.41559772307762
C          -21.77561208505399       12.55888722380921        8.81761753617059
C          -20.78832420334938       12.81887684183146        9.70402838716445
C          -21.41313396284104       13.46737313776488       10.84103538402060
C          -20.75380178455811       13.91497555383083       11.98954284529572
H          -19.68006468139331       13.78606522296073       12.02421312458165
C          -24.01031138903907       15.77748302425943       15.03305826177866
H          -23.95854025494642       16.20518253863154       16.02576162499570
C          -27.51347168840235       14.92467679725744       11.83987606476701
H          -28.56787262239382       15.11431742446969       11.76459508381578
C          -24.27740024893706       12.97721742205882        8.82876480843450
H          -24.30285653635079       12.55963834828151        7.83683548670791
C          -21.35255874795032       15.93844427269122       16.55566943456576
H          -20.31659754417499       15.87934616935511       16.87717317186240
H          -21.95872178045670       15.37907202266335       17.26945687351593
H          -21.66316456807684       16.98319089930535       16.60573580883053
C          -19.13024742228727       14.67512842917700       14.47719890277125
H          -18.57710551131650       15.21064074719202       13.70383265405133
H          -18.88405821781822       13.61596680917762       14.39402780832816
H          -18.77780018343898       15.02632768190997       15.44381530323324
C          -26.62922475340716       16.85784634709000       16.39628278845176
H          -25.68051905250274       17.24648650164826       16.75330151657372
H          -27.00222258898118       16.14273029301297       17.13070720951673
H          -27.33692164176746       17.68499029728721       16.35301261417799
C          -28.90229075227751       16.34649753497821       14.38715987264466
H          -29.09474274870360       16.92704423620656       15.28994730793102
C          -29.94933510580474       16.10707040854995       13.59587702357194
H          -29.88974423255319       15.42049741937632       12.77522359758338
H          -30.90760461159397       16.58512206963262       13.73595939091371
C          -29.17560780500980       14.05243473930412        9.34946897581687
H          -29.38325479359604       14.91555269052289        8.71438919772765
H          -29.71062533138615       14.18969413254896       10.28410464471293
H          -29.58472524117662       13.17233202585015        8.85711876142114
C          -27.17265592323393       12.81472258755308        7.38218641495037
H          -28.17305570615353       13.07368663589968        7.03427902512598
C          -26.40739397596523       12.10172269456595        6.55543196086521
H          -25.47935844589798       11.67451398691419        6.88112751990255
H          -26.68148207610698       11.91799232802826        5.52666806812955
C          -21.69120384304031       11.89469464456255        7.46829184615060
H          -22.04287222778419       12.55072627990409        6.66710712380607
H          -22.29972608160543       10.98717381011322        7.41969987267326
H          -20.66598463319139       11.61567712167090        7.23303529067178
C          -19.31431397685423       12.52424084794066        9.60746068985642
H          -18.74263580176641       13.41177953191056        9.31934531056516
H          -19.11120192321917       11.75259743726517        8.86646668532773
H          -18.90232196335941       12.18150771487359       10.55906126713368
C          -23.05708637846991       18.61562341018563        8.17806771418960
H          -22.30792483240386       19.33072478123923        8.51530902529920
H          -23.85817950840573       19.16404367056234        7.68616785627584
H          -22.59627274531013       17.94544293164973        7.46083560843991
N          -24.20726097259093       18.43196248420811       10.39104549898430
H          -24.37751886843245       19.41927551170484       10.49224648170372
C          -23.58137922979809       17.83737666552012        9.32761697611499
C          -24.53024869107420       17.46453638000700       11.27607409988242
H          -25.05353610154278       17.65000614050215       12.19222409325921
N          -24.13245524599210       16.29042200457111       10.84736572430081
C          -23.56237568537960       16.50335293803894        9.62287090787027
H          -23.19171636170158       15.68322230113125        9.04228698919544
C          -22.51035611163127       10.17507880564039       11.71993131889613
H          -23.30935755401028       10.84380718027461       11.40328169781576
H          -22.93915442782427        9.19743533210479       11.94487754202678
H          -21.80358173738048       10.06187717861956       10.90323597914746
N          -22.47594417582416       11.51091477146852       13.83168208333103
H          -23.44123295695778       11.80386252034082       13.77507895022201
C          -21.82577708760426       10.73366549681689       12.91247946759337
C          -21.57938683612187       11.83390510121464       14.79363624490405
H          -21.82516655588806       12.44127551688322       15.64144223002715
N          -20.40921989540922       11.31327551667165       14.55263928321185
C          -20.54629103949569       10.62438757948255       13.38489925627715
H          -19.71416496888780       10.09171360063600       12.96736351870618
87
 energy: -128.428206296524 gnorm: 0.024074269327 xtb: 6.7.1 (edcfbbe)
Fe         -24.16000166446867       14.44099686586070       11.87525255279359
N          -22.67740552961223       14.78974731313760       13.23404243862956
N          -25.54033540192838       15.16438934483010       13.22034982978679
N          -25.62765539766302       13.93011738761341       10.59809347083793
N          -22.77116391910972       13.57172021849473       10.65890643410873
C          -21.34977992122099       14.50796435394350       13.09716720347706
C          -20.61843941940634       14.88503211041652       14.29611566678451
C          -21.53879072799788       15.40155395846368       15.15645047185996
C          -22.82128361290785       15.33908998728417       14.47482000091410
C          -25.27432171690674       15.70835535396837       14.44135823345788
C          -26.48899406577339       16.19977877538173       15.04418499205503
C          -27.51289907341133       15.94369951523464       14.15469626084729
C          -26.87847869459036       15.30580331069662       13.00520201942425
C          -26.93627934666635       14.27713521973781       10.73760346496598
C          -27.68713585596227       13.87983049236512        9.57285139369497
C          -26.79247557385005       13.29657593449082        8.70293461091531
C          -25.49113962314051       13.36786873836883        9.36486004491215
C          -23.01931299481445       13.04273737482140        9.42894078566956
C          -21.78946678903818       12.56337985985216        8.82463653278126
C          -20.79588016764239       12.82629771283952        9.71935841159583
C          -21.42670579398132       13.47293893150568       10.85409092407499
C          -20.76475730954663       13.91870294211031       11.98988625152082
H          -19.69397455754070       13.77856500287159       12.02568515987084
C          -24.01355224045553       15.77383753594226       15.02656596600907
H          -23.95903661519833       16.20337229692706       16.01689551905572
C          -27.50094686839939       14.91047793835040       11.83415107818916
H          -28.54957930633579       15.12388196306669       11.74069604758035
C          -24.27199053677088       12.97168317980780        8.83448527974135
H          -24.28026828753668       12.57795097999796        7.83251751671418
C          -21.35452287582828       15.93306169084029       16.53842148623078
H          -20.31563741497421       15.86764032323829       16.85010050303756
H          -21.95836747210035       15.37168788314950       17.25221827041999
H          -21.66185864140636       16.97837250823743       16.59188508778343
C          -19.15434289009538       14.67789251024892       14.47327579872549
H          -18.59479495850609       15.20969212447200       13.70210767419637
H          -18.91668151886788       13.61629831514216       14.39825954173000
H          -18.81589440073422       15.03219029156847       15.44367146683940
C          -26.61785201093828       16.84832166216146       16.38206574886575
H          -25.66727226004340       17.23535723286948       16.73822493885027
H          -26.99189997965390       16.13661547907072       17.12007532937058
H          -27.32379145612942       17.67747146207830       16.34095701629229
C          -28.88127744271791       16.35407110554906       14.35948859012799
H          -29.03477326645426       16.96599526634686       15.25001925370425
C          -29.95939078188871       16.10960615919257       13.60823949622138
H          -29.93384432031314       15.44867872392081       12.75934090349934
H          -30.93221481842129       16.54430514553339       13.82776538416598
C          -29.15544305985955       14.04815465539226        9.35586928411153
H          -29.35846603467138       14.91546623765419        8.72418431391039
H          -29.69106769074484       14.18501098636691       10.29109388123099
H          -29.57139563478196       13.17167664662547        8.86188978468251
C          -27.14125228626416       12.83097201244513        7.38326168938724
H          -28.13050649637882       13.14396053623962        7.04378107515624
C          -26.41273094547183       12.08829400105733        6.54578843020437
H          -25.46544883633047       11.66741211584671        6.83331536595862
H          -26.74977588978556       11.85108738754543        5.53989023496246
C          -21.69737566117636       11.90489482531055        7.48602156735098
H          -22.04983574366852       12.57140304978223        6.69752775790352
H          -22.30650399127733       11.00022368300679        7.45411371001464
H          -20.67005517147387       11.62974339696999        7.25979057010723
C          -19.33547453472887       12.52951371968646        9.61273176864369
H          -18.77782718048680       13.42330214028732        9.32574256982530
H          -19.14462611872992       11.76092529503290        8.86685350022069
H          -18.94195481596029       12.18183760091100       10.56685949523309
C          -23.06384446221176       18.61395065657553        8.17607578806453
H          -22.31544863188926       19.33376504776754        8.50703824810346
H          -23.86544054301795       19.15959517985924        7.68098070219779
H          -22.60289658933322       17.94202575276021        7.46017926240632
N          -24.20489905901271       18.43326426677390       10.39448088407197
H          -24.39133380664409       19.41896454598335       10.48831383383225
C          -23.57803618884604       17.83796291313049        9.33210445061551
C          -24.49904707079915       17.46603336789325       11.29331489003518
H          -25.02218742113705       17.64954360299108       12.20897978443691
N          -24.08582470471212       16.29357759546646       10.87446541312337
C          -23.53320889147755       16.50734522835725        9.64206225607353
H          -23.15989382301881       15.69101962128490        9.05910619104706
C          -22.51153090027249       10.18211173542300       11.71517343572414
H          -23.30961681545986       10.85010578592669       11.39334135294726
H          -22.94314790755435        9.20530034380297       11.93966475817021
H          -21.80362621783283       10.06234540695312       10.90003554002526
N          -22.47867900108332       11.52369406513221       13.82475888771843
H          -23.43993807977096       11.82952417864767       13.76134603611026
C          -21.82779252816367       10.74318824187763       12.90739241785053
C          -21.57961368883891       11.84047795085430       14.78878066014804
H          -21.82209918201989       12.44619622800729       15.63764133054429
N          -20.41234927164468       11.31604217654416       14.55077130055974
C          -20.54982577936831       10.63088831849438       13.38262208049860
H          -19.72051182315045       10.09645701733160       12.96374044446363
87
 energy: -128.432395549480 gnorm: 0.019783945474 xtb: 6.7.1 (edcfbbe)
Fe         -24.15935589582923       14.43011773812755       11.88191409674364
N          -22.69279861218354       14.78837827143738       13.22474362092643
N          -25.53080734158235       15.14563947577403       13.21116894489938
N          -25.61108430648136       13.91636672718894       10.60834872286005
N          -22.78956652224814       13.57130860183151       10.67491329358982
C          -21.36691045245457       14.51342799468652       13.08830869294194
C          -20.63725785232669       14.89128194228896       14.28103349684953
C          -21.55415546799688       15.40606457522537       15.14142021646217
C          -22.83354152140639       15.33990869532082       14.46362626730562
C          -25.27449793902164       15.69222745690826       14.43262613679056
C          -26.48261767569459       16.19393267827260       15.02511681179463
C          -27.50104935606280       15.94814351779439       14.12583254370890
C          -26.86614666205200       15.29528059535735       12.99158601630889
C          -26.92235789886450       14.25629147070642       10.74178274123740
C          -27.66649933318999       13.87169433696133        9.57436269220579
C          -26.76671622438601       13.30033383826707        8.70196245509289
C          -25.47862886688811       13.35955566770197        9.37367085982359
C          -23.03228624503510       13.04614634698988        9.44425073659090
C          -21.80468250761255       12.57192417556094        8.83979511208328
C          -20.81300283756091       12.83331493502678        9.73597628867915
C          -21.44655654431844       13.47608041596827       10.86850511858850
C          -20.77668592182240       13.91912969535990       11.99058426833929
H          -19.70832218518316       13.77177196646825       12.02485141676393
C          -24.01920273690796       15.76795567916913       15.02165687377749
H          -23.96223985573291       16.20070667107385       16.00915872602206
C          -27.49147609648078       14.90069251999827       11.82669330015760
H          -28.53513499322247       15.13352431360026       11.72267836482591
C          -24.26705257418887       12.97094291143206        8.83373491334988
H          -24.26241588995950       12.59244634784474        7.82667311758925
C          -21.35956422492169       15.93005570200596       16.52154999832220
H          -20.31703752041970       15.85632763047730       16.81994910916551