87
 energy: -128.467837745994 gnorm: 0.000055356683 xtb: 6.7.1 (edcfbbe)
Fe           2.16283052724631       -4.88383983426163       35.21599483133409
N            0.36780541489987       -5.67917721858603       35.62073893115640
N            3.05437927243974       -6.37609699543346       36.21767372225489
N            3.95620670415679       -4.07512520476570       34.81656891164635
N            1.26953177209222       -3.40000634448255       34.20569661397109
C           -0.84554143929808       -5.19972992420375       35.24392794741609
C           -1.90791874400824       -6.05046661080659       35.73469423441404
C           -1.30298689816412       -7.05759906805987       36.41899505207855
C            0.12015098691130       -6.80821478623337       36.33479524910880
C            2.44384443340977       -7.41867471350384       36.84102902185627
C            3.41365541311177       -8.28840159894012       37.45537477275370
C            4.64287294697342       -7.74264046110485       37.19219646168249
C            4.38735248018496       -6.54930647140870       36.40746431558762
C            5.16995085296230       -4.54740227991565       35.21223842112711
C            6.23060383867255       -3.69415934594372       34.74203383352133
C            5.62699278585171       -2.68405043653103       34.03940564824219
C            4.20174300873140       -2.94388343237707       34.11139908904049
C            1.87916638170055       -2.36856693002471       33.56720951298337
C            0.90138508691084       -1.50581440610838       32.93997671697866
C           -0.31633159872415       -2.04299717084195       33.21891720435507
C           -0.06395283038501       -3.22749125678943       34.00992179889354
C           -1.06034618136004       -4.05861065045627       34.49058633952951
H           -2.08283500393577       -3.79616716486255       34.26237976912205
C            1.07595279026993       -7.62480348989396       36.90445173169999
H            0.72782964238020       -8.49007916068642       37.44820856468505
C            5.37902373610616       -5.69850036823225       35.95499395347139
H            6.40078093105285       -5.95485976134875       36.19268875323391
C            3.24202516919406       -2.14860985181224       33.51271675834753
H            3.58170428030574       -1.28630476489813       32.95917517944755
C           -1.91492124383800       -8.21443616723807       37.13268886735457
H           -2.99966025282382       -8.18434014062899       37.06172016368442
H           -1.63985108561821       -8.20262229814686       38.18761928449705
H           -1.56934451420404       -9.15589134508939       36.70449356060663
C           -3.35971897342224       -5.80698649798121       35.49701127762806
H           -3.57934669581822       -5.79889939122565       34.42876214925930
H           -3.66040098224982       -4.84353754992008       35.90978509966214
H           -3.96354336805878       -6.58164414588697       35.96346068318382
C            3.10035244270933       -9.56100663943962       38.16276055325062
H            2.28011735531021      -10.08231505062696       37.67149224099105
H            2.80777084156129       -9.37113885042307       39.19705421612448
H            3.97318446908853      -10.21102208482851       38.16691986158667
C            5.95546822222924       -8.22022043686634       37.56413071920424
H            6.74812298989124       -8.01361891767974       36.85369139502460
C            6.25504432034762       -8.86713512775317       38.68653598244293
H            5.52222538951176       -9.05908260696528       39.45066826830297
H            7.25702883523960       -9.20707868343692       38.89076423336135
C            7.67790737703373       -3.87346954792661       35.04611647808120
H            8.13613549921447       -4.58692735629996       34.35874586602684
H            7.81755037643569       -4.24665366590176       36.05992831768705
H            8.19962308428408       -2.92315996683885       34.95055007810674
C            6.22647761402168       -1.55024597288187       33.37270591520221
H            5.63566635272077       -0.64127302047446       33.37429304691486
C            7.41048941631559       -1.54407473350918       32.76795306474975
H            8.01979181924618       -2.42751758849091       32.69098079247432
H            7.80049177206632       -0.65415910447725       32.30182239689753
C            1.23620908568476       -0.28136552874037       32.15867028798453
H            1.88378095241760       -0.52867186966807       31.31709346561860
H            1.75912518808046        0.44166122016813       32.78537466918746
H            0.33602177095512        0.19017175050135       31.77138517533487
C           -1.67340903971709       -1.56518566005055       32.82690423864176
H           -2.19407457285447       -2.32197648396180       32.23900424502905
H           -1.60709771971888       -0.65714406956864       32.23249787109295
H           -2.27570638145815       -1.35228582829478       33.71069892538638
C            0.56224132794324       -1.58395008505281       39.44526084606132
H            1.05729548333976       -0.61871988911216       39.55276589176786
H            0.46384908487707       -2.02849076261401       40.43571540471982
H           -0.43022004173019       -1.42216601043960       39.03635012974522
N            2.62385025712791       -2.85333958542755       38.80425917914127
H            3.16599813225030       -2.57925536501127       39.60707259388117
C            1.33308003048197       -2.47451614520599       38.54082713469522
C            3.02903107848067       -3.65488733971299       37.79357870191530
H            4.00052560940165       -4.10091357348268       37.73567746777342
N            2.07556118850514       -3.80645574591018       36.90809769630350
C            1.01437779731248       -3.07879643200044       37.35880469782425
H            0.09917021755407       -3.03921897479000       36.80583367899695
C            3.80163464838326       -8.11419135087463       30.94948675909335
H            3.89016095845932       -7.65038030334093       29.96694265894542
H            3.32487702243791       -9.08664701441388       30.82570320022270
H            4.79767639186397       -8.26403112992100       31.35415180159415
N            1.71378084550355       -6.90488475644203       31.62148181056093
H            1.17322186711130       -7.18248070055806       30.81882605355903
C            3.01581632164394       -7.25414061525086       31.87029197977734
C            1.29742952066951       -6.12433491109275       32.64417432705055
H            0.31594091379663       -5.70328045173701       32.71657693905029
N            2.25415422734592       -5.95851230794042       33.52337454642393
C            3.32913229648276       -6.65502411131428       33.05630419789375
H            4.25002871648746       -6.67854937531570       33.60070557249104
