78
 energy: -115.987117426481 gnorm: 0.237281942832 xtb: 6.7.1 (edcfbbe)
Fe          12.06300000000000      -71.45500000000000      105.30199999999999
N           12.61100000000000      -73.27300000000000      104.50800000000000
N           10.34000000000000      -71.58100000000000      104.25100000000000
N           11.44900000000000      -69.75200000000000      106.20099999999999
N           13.72300000000000      -71.46700000000000      106.51700000000000
C           13.79900000000000      -73.93000000000001      104.81399999999999
C           13.78100000000000      -75.18200000000000      104.10999999999999
C           12.64700000000000      -75.25900000000000      103.38600000000000
C           11.87400000000000      -74.07899999999999      103.65700000000000
C            9.97700000000000      -72.58100000000000      103.36199999999998
C            8.79500000000000      -72.16200000000001      102.65300000000001
C            8.43700000000000      -70.96400000000000      103.12400000000000
C            9.39000000000000      -70.57299999999999      104.13100000000000
C           10.22500000000000      -69.12100000000000      105.91600000000000
C           10.08300000000000      -68.01800000000000      106.84999999999999
C           11.15500000000000      -68.04100000000000      107.72600000000000
C           12.02000000000000      -69.11700000000000      107.30699999999999
C           14.06000000000000      -70.46899999999999      107.41600000000000
C           15.42400000000000      -70.70899999999999      107.82700000000000
C           15.85700000000000      -71.81999999999999      107.20399999999999
C           14.79000000000000      -72.32500000000000      106.39799999999998
C           14.82300000000000      -73.46899999999998      105.62800000000000
H           15.73600000000000      -74.06399999999998      105.66200000000001
C           10.63900000000000      -73.74999999999999      103.10499999999999
H           10.17200000000000      -74.46599999999999      102.42800000000000
C            9.33300000000000      -69.41000000000000      104.88900000000000
H            8.54900000000000      -68.68700000000000      104.66700000000000
C           13.24600000000000      -69.43300000000001      107.84399999999998
H           13.60500000000000      -68.81999999999999      108.67100000000001
C           12.18700000000000      -76.43500000000000      102.49400000000000
H           11.31500000000000      -76.93800000000000      102.96400000000000
H           13.01300000000000      -77.17000000000000      102.38699999999999
H           11.88600000000000      -76.05300000000000      101.49500000000000
C           14.92600000000000      -76.22299999999998      104.16800000000001
H           15.43700000000000      -76.15799999999999      105.15300000000001
H           15.66400000000000      -76.01400000000000      103.36499999999998
H           14.51000000000000      -77.24600000000000      104.04499999999999
C            8.10700000000000      -73.01900000000001      101.58799999999999
H            8.26300000000000      -74.09399999999998      101.81900000000000
H            8.54200000000000      -72.79800000000000      100.59000000000000
H            7.01700000000000      -72.80699999999999      101.58199999999999
C            7.26300000000000      -70.05800000000001      102.75400000000000
H            6.90500000000000      -69.30800000000001      103.47499999999999
C            6.63100000000000      -70.13500000000001      101.56000000000000
H            6.95100000000000      -70.86799999999998      100.80500000000001
H            5.78900000000000      -69.46500000000000      101.33000000000000
C            8.84800000000000      -67.12700000000000      106.83000000000000
H            7.94400000000000      -67.74900000000000      106.65600000000001
H            8.93600000000000      -66.38200000000001      106.01100000000000
H            8.74400000000000      -66.60700000000000      107.80599999999998
C           11.46800000000000      -67.09999999999999      108.89800000000000
H           12.01000000000000      -67.51000000000001      109.76300000000001
C           11.13800000000000      -65.80700000000000      108.96699999999998
H           10.59500000000000      -65.32500000000000      108.14100000000001
H           11.40500000000000      -65.20900000000000      109.85099999999998
C           16.21800000000000      -69.76599999999999      108.78800000000000
H           15.79800000000000      -69.84200000000000      109.81399999999998
H           16.13000000000000      -68.71500000000000      108.43999999999998
H           17.28600000000000      -70.06900000000000      108.81299999999999
C           17.26700000000000      -72.46599999999998      107.35200000000000
H           17.66500000000000      -72.25900000000000      108.36799999999999
H           17.95900000000000      -72.03300000000000      106.59900000000000
H           17.19300000000000      -73.56600000000000      107.21199999999999
O           10.97600000000000      -72.74100000000000      106.79900000000001
H           11.14900000000000      -73.64700000000001      106.54300000000001
H           10.48400000000000      -72.47400000000000      107.48999999999999
C           15.35500000000000      -67.92500000000000      102.35200000000000
H           14.88200000000000      -66.99500000000000      101.97000000000000
H           15.99300000000000      -68.35899999999998      101.55300000000000
H           15.97500000000000      -67.67500000000000      103.23899999999999
N           13.36600000000000      -69.38800000000001      101.84399999999999
H           13.32300000000000      -69.13900000000000      100.87700000000000
C           14.29700000000000      -68.89900000000000      102.73599999999999
C           12.55500000000000      -70.22499999999999      102.46700000000000
H           11.70700000000000      -70.72799999999999      102.00500000000000
N           12.96500000000000      -70.32999999999998      103.73099999999999
C           14.02900000000000      -69.48599999999999      103.93400000000000
H           14.49400000000000      -69.38200000000001      104.90600000000001
78
 energy: -116.032842212763 gnorm: 0.093421066759 xtb: 6.7.1 (edcfbbe)
Fe          12.04631618272345      -71.46593840507343      105.31152102359172
N           12.61349440360709      -73.26738846110305      104.51664804075340
N           10.34442827976591      -71.56355282400409      104.23470277205850
N           11.43195481549470      -69.77030996963654      106.21843796102419
N           13.72338486783469      -71.44896448750782      106.49481093599424
C           13.78830836932486      -73.92656172837265      104.80381851981804
C           13.79721783258502      -75.19072831523371      104.10541171970027
C           12.64392318208257      -75.27445296217772      103.39160788371987
C           11.89585449243229      -74.06899574419701      103.66229840200684
C            9.98020624763657      -72.55558245374631      103.35616051356740
C            8.77805666989402      -72.16420774507517      102.65183779626744
C            8.41907759929047      -70.93881665781022      103.12230463384630
C            9.39787027377097      -70.57280847870602      104.13099167859947
C           10.25566570090472      -69.10824682776988      105.92574571453250
C           10.08207795395348      -68.01269487715591      106.85922836561610
C           11.15320400127866      -68.02495214716396      107.72395610273095
C           12.00207744143727      -69.12223485938634      107.29542216108891
C           14.06719212124911      -70.47498099459904      107.40020865899058
C           15.43115074784101      -70.69868114176826      107.83899335038309
C           15.87082525199168      -71.82280246649017      107.21626140519493
C           14.78807678354901      -72.30296591949117      106.38948390139721
C           14.80970869722216      -73.45711363813260      105.62060629967348
H           15.71505853869062      -74.05524301011934      105.66247228277543
C           10.65933288557566      -73.73681169421531      103.11685911598587
H           10.19999737157062      -74.45277420660059      102.44181692597577
C            9.36409407824548      -69.41655359582934      104.89901262347382
H            8.56901102854647      -68.70761215798635      104.69127830042584
C           13.24093732102662      -69.44235256236689      107.82884369613441
H           13.60377661048996      -68.82701091249238      108.64740443173439
C           12.18821615308677      -76.41881716884511      102.50791892134474
H           11.32677127136474      -76.92646638630650      102.95725153339053
H           12.99417067048773      -77.14847816889454      102.38690410028771
H           11.89405353985186      -76.05540837621106      101.51741173604682
C           14.91576713616666      -76.21152349498578      104.16958793651605
H           15.42650180027385      -76.15970185218691      105.13566976577926
H           15.64919841425954      -76.01918489189319      103.37861598417471
H           14.51926481810348      -77.22390969656455      104.04569541828035
C            8.10824522103294      -73.01514811513186      101.60206521482712
H            8.25626453769134      -74.07808695823776      101.81437800989572
H            8.52946550130068      -72.80325861143899      100.61092020969733
H            7.03357296856972      -72.81511721331952      101.58320761167525
C            7.27268856012622      -70.07606235594132      102.74248292224725
H            6.93340868033657      -69.33838328000316      103.46775988917624
C            6.63981127745003      -70.13914272104067      101.57003099555442
H            6.94545823652838      -70.83959638170683      100.80512747943249
H            5.80847303685218      -69.48015059184968      101.33992430757394
C            8.86086275518147      -67.13290960056857      106.83971207680085
H            7.96303152898199      -67.73647238672372      106.66342693794316
H            8.93558515698690      -66.39324542902739      106.03268679938911
H            8.74522820247878      -66.61051629612354      107.79312408944642
C           11.45380539526905      -67.11520107484264      108.86952129182681
H           11.99954899422097      -67.53724255733356      109.71567723998677
C           11.12995138364224      -65.82660779551259      108.95160668831403
H           10.60717513574439      -65.32345435948399      108.14804507286090
H           11.39533497789019      -65.23192109594943      109.82239619298166
C           16.20267977970757      -69.78137868582978      108.77722049288390
H           15.79846716390051      -69.84393443219173      109.79386446005518
H           16.12819466114587      -68.74175416297483      108.44154288830464
H           17.25878620374144      -70.06426612724805      108.80755856527414
C           17.24598599003953      -72.45892301316987      107.35249180063470
H           17.65353779053506      -72.26332609503633      108.34901367189363
H           17.93790598549502      -72.04309949691810      106.61081197646551
H           17.19097187103591      -73.54227828921213      107.21202014185990
O           10.99464246310607      -72.74258822776930      106.79406167907938
H           11.13806207260020      -73.65718515147429      106.55697840433335
H           10.46170491596856      -72.48034121550761      107.52220834543584
C           15.35240151849043      -67.92249746331792      102.34755125200061
H           14.89768379335990      -66.99923168866583      101.97030457222107
H           15.99219832196724      -68.34244176865855      101.56323625958481
H           15.96577430300568      -67.68029491115540      103.21875773651736
N           13.37433154072640      -69.37797503247407      101.84498735836657
H           13.32647851571719      -69.12822176200136      100.87180628035033
C           14.30040537945818      -68.89723055656604      102.73419057056520
C           12.56790112149864      -70.23297236866996      102.48946105347441
H           11.73080885666486      -70.73248544421917      102.03120370634925
N           12.94296543419179      -70.33424273081445      103.75275192279791
C           14.01599284054029      -69.50164624218868      103.92452133665179
H           14.48098437320985      -69.39533902960220      104.88716188238949
78
 energy: -116.045666099636 gnorm: 0.023080463352 xtb: 6.7.1 (edcfbbe)
Fe          12.04038557435656      -71.46837014745508      105.31306254373087
N           12.62088631530215      -73.25503347003308      104.52177192949624
N           10.35286128585462      -71.55274191916908      104.22375208421663
N           11.41743010355824      -69.78335840332620      106.22748829902562
N           13.72287914466355      -71.43307736739774      106.47017594391244
C           13.78181942616346      -73.91486805466376      104.79626708016748
C           13.80737301121610      -75.18833843212529      104.10546725506244
C           12.64194529315398      -75.27460853272775      103.40025252669021
C           11.91236472989264      -74.05280140663768      103.67235208708105
C            9.98903859662437      -72.53479162882540      103.35191665221070
C            8.77789271688539      -72.16393072689281      102.65088412166122
C            8.41828391588211      -70.92305180509651      103.12022050624373
C            9.41248030303843      -70.57524666846533      104.12932377742877
C           10.26999540643840      -69.11364153460779      105.93884341096188
C           10.08379258723384      -68.01035573733796      106.85480567938609
C           11.15532111434487      -68.02015467927735      107.71244213772654
C           11.98790459451499      -69.13770158781095      107.28404332828784
C           14.06840550382481      -70.47683762402424      107.37653617470140
C           15.42760010462768      -70.69203980897994      107.83947810476616
C           15.87288023718339      -71.82254720830082      107.21837948429963
C           14.78383324380398      -72.28167072183183      106.37410247818606
C           14.80097899022844      -73.44210488553900      105.61236792697308
H           15.69754637132295      -74.04571015303127      105.66587193869407
C           10.68024217269690      -73.72068173900446      103.12808541655794
H           10.23167643927036      -74.43557380186517      102.45147916685443
C            9.38438347927153      -69.43157740347856      104.91169710894835
H            8.58145985830384      -68.73210338883898      104.72004118860910
C           13.23615049557623      -69.45056504168440      107.80895561079979
H           13.60498588408655      -68.82861755773550      108.61511374708790
C           12.18710016711753      -76.39615936973679      102.52442271095413
H           11.32826937521148      -76.90701224454367      102.95983421216849
H           12.98336477996587      -77.12413884599381      102.39454905035697
H           11.89781705281072      -76.03663700903134      101.53891020694499
C           14.90653117489217      -76.19579831732379      104.17198734824635
H           15.41733856294452      -76.15351146899587      105.12934574673184
H           15.64083978947833      -76.01492840900842      103.38709606695615
H           14.51675825046577      -77.20241498589210      104.04320007762664
C            8.10957292090222      -73.01016586213896      101.62001498357353
H            8.25768893636645      -74.06699658791037      101.82471582076687
H            8.52014261543076      -72.80299310634847      100.63005047775957
H            7.04128492640583      -72.81544998457224      101.59585526201398
C            7.29491701250247      -70.09479079328470      102.74032747661823
H            6.97025315733132      -69.36793941622066      103.47511763043971
C            6.65439139556850      -70.14014114207586      101.57632443109965
H            6.94552608842078      -70.81274107891500      100.79176023861365
H            5.82157660436262      -69.49271846237582      101.35842121801066
C            8.87449197349075      -67.13634714632292      106.84596566082925
H            7.97961586102554      -67.73179545784093      106.67206669920454
H            8.94164459878225      -66.39618769091783      106.04761281123908
H            8.76116995447028      -66.61632716825150      107.79179501935913
C           11.44993988382458      -67.13912090980314      108.83027629298587
H           11.99308237945976      -67.57986825304384      109.66096754035495
C           11.12786026951185      -65.85168215532873      108.92575519922622
H           10.61455710076219      -65.32684401736826      108.14054831370474
H           11.38048512803420      -65.26676007538197      109.79658854371037
C           16.17986831757778      -69.79669227352146      108.76606218704057
H           15.78327564120972      -69.85155024858263      109.77914771580060
H           16.11388845423108      -68.76118365558899      108.43693552953185
H           17.23056537598749      -70.07205804208857      108.79817257144069
C           17.22015644565169      -72.45321363571432      107.35077201118308
H           17.63584763223819      -72.26255743538987      108.33741668360811
H           17.91149161712608      -72.04678727192530      106.61174932963156
H           17.17261257570123      -73.52871452601563      107.20806864141122
O           11.03442232558407      -72.73695057037801      106.81722259342004
H           11.10287474191150      -73.66722155331531      106.58727341592123
H           10.44090079299395      -72.49523112305864      107.53052026770341
C           15.35117232856044      -67.92183756204219      102.34789620307349
H           14.90389613637649      -67.00372688068791      101.97119312734685
H           15.99091330926704      -68.33452410482190      101.56965197610350
H           15.96203647246699      -67.68248642034182      103.21053900069344
N           13.37665288555029      -69.37436776899790      101.84880272037115
H           13.32189216410140      -69.12612623168701      100.87321850330775
C           14.30138538431017      -68.89661002465242      102.73709360574773
C           12.57623991380531      -70.23912476768862      102.51077130968247
H           11.75012313883004      -70.74451990345554      102.05531865197874
N           12.93788172646377      -70.34189804907182      103.76682652042308
C           14.00678763182984      -69.50868891428442      103.92272585381029
H           14.47909812936632      -69.40335764189852      104.87693483150548
78
 energy: -116.048908649881 gnorm: 0.040025393416 xtb: 6.7.1 (edcfbbe)
Fe          12.04089365173239      -71.47437187541831      105.31563104097992
N           12.63127046891127      -73.24193424485468      104.52190761335245
N           10.36326840024533      -71.55017580358707      104.21956655082938
N           11.40775506728012      -69.79923074342808      106.22629395919132
N           13.72486246183325      -71.42104965723057      106.44477311963507
C           13.78733723607982      -73.90173236181845      104.79133590416653
C           13.81275788381413      -75.17813400602704      104.10755833736505
C           12.64531409993790      -75.26311729831328      103.40710711543935
C           11.92319785146753      -74.03780086400397      103.67613198172674
C           10.00175253590637      -72.52730668137454      103.34619963051439
C            8.79114602414149      -72.16412280372971      102.64811603141025
C            8.43064063955105      -70.92150654186065      103.11640893811064
C            9.42283564225833      -70.57763933469076      104.12651106098693
C           10.26899746137842      -69.12342480626184      105.93622878823713
C           10.08425514428923      -68.01556456978426      106.84175023511220
C           11.15906675830110      -68.02699425130463      107.69260868854393
C           11.98601445052287      -69.14877230037335      107.26817880966838
C           14.06630477068801      -70.47142268425156      107.35325405127858
C           15.41838810338293      -70.68787082833039      107.82863243342230
C           15.86668854465489      -71.81703623783889      107.20953861211532
C           14.78328713446369      -72.26830669626271      106.35606275581509
C           14.80581269156838      -73.43078430565323      105.60376843547475
H           15.69692503535297      -74.03865333325712      105.66777191697639
C           10.69717900514142      -73.71003127180738      103.12659671892179
H           10.25795664179508      -74.42490535375883      102.44670175127450
C            9.38500059192593      -69.44166485768822      104.91394846177032
H            8.57305273795085      -68.75027250788671      104.73919973239839
C           13.23680725368269      -69.44828360307707      107.78730610829587
H           13.61010692754746      -68.81841173883988      108.58306175271304
C           12.18158854624838      -76.37644613498114      102.53328041625737
H           11.31896719434234      -76.88323243965965      102.96657364600364
H           12.97402055742935      -77.10803463353500      102.39977862906741
H           11.89432913077951      -76.00905660532038      101.54992651224384
C           14.90736576861402      -76.18497752798450      104.17542574214109
H           15.41613429994380      -76.14725415338458      105.13428587438571
H           15.64507265957512      -76.00564251881080      103.39255287665915
H           14.51411917823037      -77.18989122237052      104.04115259823949
C            8.11064600217874      -73.01258560656858      101.63267885805195
H            8.26050132461923      -74.06875746478454      101.84055256051894
H            8.50844951887958      -72.80888536023527      100.63657819406606
H            7.04230235111855      -72.81491799508132      101.61994813224707
C            7.30889816529933      -70.10143296164567      102.74238420580106
H            6.98738788858204      -69.38398575177584      103.48755105058291
C            6.66083725040403      -70.13502963471196      101.58056842714184
H            6.95665150284209      -70.78053042747514      100.77256974752888
H            5.82218484798900      -69.49065787059560      101.38063456158127
C            8.88213108383740      -67.13705390524294      106.84836951349685
H            7.98324618352887      -67.72716314324549      106.67883598086850
H            8.94603671742550      -66.38956889787137      106.05686395526003
H            8.78230484593695      -66.62348482667186      107.79975221856934
C           11.45261841100627      -67.15867727900709      108.80611040479364
H           12.00221661543056      -67.61228321783240      109.62396849142647
C           11.12373750507536      -65.87371855813630      108.91023992578913
H           10.62786152935690      -65.33569208861448      108.12170639324762
H           11.37443831548928      -65.29558776356956      109.78381961981023
C           16.15976892806794      -69.79972637193072      108.76372568805677
H           15.75597345709808      -69.85806111801281      109.77398095210323
H           16.09610397418394      -68.76290721183408      108.43708952145394
H           17.20994036397114      -70.07724780631804      108.79965708351249
C           17.20539015307203      -72.45338481556760      107.34517164744406
H           17.62286585452321      -72.26280923841711      108.33122961976011
H           17.89735046647758      -72.05202176414288      106.60319968286390
H           17.15160684705917      -73.52876955008993      107.20306647150119
O           11.11655783547152      -72.73785440443153      106.89421432252148
H           11.03128895646645      -73.67587279400698      106.60232810876904
H           10.39452933590998      -72.50429967972501      107.52001548884868
C           15.34708133847822      -67.92324170840560      102.35185656036869
H           14.90037499161950      -67.00533743574015      101.97378348051667
H           15.98725081740303      -68.33462142970957      101.57307255473329
H           15.96041758567172      -67.68254078432398      103.21240336500337
N           13.37377384692718      -69.38096159995790      101.85817159901322
H           13.31293546947466      -69.13386415658958      100.88279040498355
C           14.29943574505415      -68.89966870896463      102.74522199225289
C           12.57992783167124      -70.25021214002579      102.52706738306028
H           11.76178328602573      -70.76827663239320      102.07268032933355
N           12.93931639605895      -70.34578702050581      103.78202174953101
C           14.00792874728039      -69.51223021263455      103.93127072338149
H           14.48847516206676      -69.40623386444729      104.88072219948096
78
 energy: -116.050661713667 gnorm: 0.017247605989 xtb: 6.7.1 (edcfbbe)
Fe          12.04307135158226      -71.48064843159550      105.31842951976340
N           12.64109408452213      -73.22798917244577      104.52226736037568
N           10.37113811841547      -71.55224653930718      104.22066699363219
N           11.39983435270775      -69.81539785675714      106.21963712625076
N           13.72568464846882      -71.41076488000418      106.41802344740543
C           13.79522439017576      -73.88874330426295      104.78765370265724
C           13.81689137427027      -75.16579832642856      104.10926126725379
C           12.65007208648650      -75.24840586806337      103.41266569906621
C           11.93220057355189      -74.02295540171501      103.67811989626294
C           10.01388376210726      -72.52407125548190      103.33946594308341
C            8.80772463424680      -72.16360145940662      102.64241601325567
C            8.44584134091351      -70.92344260079675      103.11064484959208
C            9.42958845339930      -70.58116058206197      104.12397041493330
C           10.26207045639000      -69.13540769853253      105.93012355541114
C           10.08471322230885      -68.02225671328632      106.82604462052073
C           11.16451703536968      -68.03564054300470      107.66900731467402
C           11.98623976022546      -69.15908509027150      107.25016171735861
C           14.06221909189322      -70.46471565996549      107.32941057407311
C           15.40678248772867      -70.68445438865839      107.81488082298358
C           15.85756535488359      -71.81045195245122      107.19834603056434
C           14.78296734875401      -72.25728237629119      106.33722312214667
C           14.81443872249055      -73.42095058652389      105.59485069325052
H           15.70175699560073      -74.03148872079994      105.66746227402746
C           10.71267983891799      -73.70097246657352      103.11991409351357
H           10.28435274596483      -74.41515293843331      102.43383790265031
C            9.37732501573251      -69.45140018308689      104.91456325147846
H            8.55889886349893      -68.76602771217780      104.75400647284299
C           13.23816779088978      -69.44304969301525      107.76404427664201
H           13.61592709557145      -68.80396286629970      108.54885700042864
C           12.17403898959116      -76.35656344401170      102.53883911119796
H           11.30568437571858      -76.85514237756534      102.97341960494678
H           12.96150041969764      -77.09476042583869      102.40260892915346
H           11.88847203776318      -75.97867694840744      101.55735981099838
C           14.91055959387245      -76.17514810529984      104.17923473131091
H           15.41425081420786      -76.14155104080110      105.14273062058631
H           15.65354452513012      -75.99372586027449      103.39978006099508
H           14.51259074313952      -77.17896754970724      104.03821044332851
C            8.11137055756041      -73.01573819534899      101.64122738869311
H            8.26199788239009      -74.07212078115300      101.85566459496576
H            8.49435165679686      -72.81791164954460      100.63679617688291
H            7.04217503593978      -72.81155702344512      101.64543874131598
C            7.32125803481903      -70.10343027019736      102.74319431303255
H            6.99497997860558      -69.40036132851850      103.50119950289996
C            6.67187446699010      -70.12239824935241      101.57989980444168
H            6.96920083368285      -70.74933029207321      100.75493416898397
H            5.82327118313899      -69.48278046690037      101.40101762987183
C            8.88882463622763      -67.13631248081124      106.84943275669690
H            7.98326499745411      -67.71947175350516      106.68423096181927
H            8.95069038859553      -66.37889170284028      106.06581548099136
H            8.80601413100693      -66.63206995443073      107.81000191338309
C           11.46270220564450      -67.17422321349706      108.78353879056968
H           12.01043832283817      -67.64209155250970      109.59408190238356
C           11.12949522655607      -65.89110196549441      108.89264306119561
H           10.63704081815641      -65.34861248288840      108.10341329765666
H           11.36838286800045      -65.32223144348207      109.77558070480342
C           16.13736393144455      -69.80033029900670      108.76528228149476
H           15.71960784058145      -69.86662245598171      109.77083052771380
H           16.07516024931254      -68.76101638963867      108.44180738145759
H           17.18769805883827      -70.08116090977383      108.80923848687539
C           17.19216060187508      -72.45617655402903      107.33980166985589
H           17.60958495417599      -72.26381264880921      108.32674706170299
H           17.88589533265350      -72.06180809561843      106.59360569792257
H           17.12723012829134      -73.53292197183688      107.20139737578728
O           11.08043696973866      -72.74084269175367      106.89531769329422
H           11.05077857877592      -73.66725995343798      106.66774783245826
H           10.39799328238957      -72.52115977911650      107.53705822681395
C           15.34281628349272      -67.92660286457264      102.35881929053269