78
 energy: -115.931427057060 gnorm: 0.352490280152 xtb: 6.7.1 (edcfbbe)
Fe          14.40900000000000       54.70399999999999       19.21200000000000
N           13.07900000000000       56.16700000000000       18.36200000000000
N           14.07500000000000       53.70900000000000       17.36100000000000
N           15.92100000000000       53.38799999999999       19.71600000000000
N           15.00400000000000       55.99099999999999       20.72100000000000
C           12.80200000000000       57.22599999999999       19.18000000000000
C           11.79400000000000       57.98600000000000       18.46300000000000
C           11.51400000000000       57.30399999999999       17.35700000000000
C           12.32700000000000       56.11599999999999       17.27000000000000
C           13.12800000000000       54.02400000000000       16.42600000000000
C           12.99100000000000       52.85900000000000       15.61000000000000
C           13.82900000000000       51.91000000000000       16.04400000000000
C           14.54100000000000       52.45300000000000       17.21500000000000
C           16.24500000000000       52.36500000000000       18.89300000000000
C           17.46600000000000       51.75600000000000       19.47200000000000
C           17.80200000000000       52.49499999999999       20.51500000000000
C           16.79700000000000       53.56600000000000       20.65800000000000
C           15.84300000000000       55.54000000000000       21.67299999999999
C           15.67200000000000       56.39399999999999       22.80700000000000
C           14.61600000000000       57.36100000000000       22.45600000000000
C           14.23900000000000       57.01100000000000       21.09900000000000
C           13.33000000000000       57.63800000000000       20.33900000000000
H           12.97800000000000       58.60000000000000       20.71000000000000
C           12.37500000000000       55.17299999999999       16.26200000000000
H           11.82100000000000       55.33400000000000       15.33900000000000
C           15.53700000000000       51.84700000000000       17.88700000000000
H           15.79100000000000       50.83299999999999       17.57900000000000
C           16.76400000000000       54.54599999999999       21.60700000000000
H           17.53900000000000       54.52900000000000       22.37300000000000
C           10.50200000000000       57.59500000000000       16.24100000000000
H            9.96100000000000       58.53800000000000       16.46800000000000
H            9.76700000000000       56.76500000000000       16.17500000000000
H           11.03400000000000       57.70900000000000       15.27200000000000
C           11.20100000000000       59.27799999999999       19.09000000000000
H           12.01600000000000       60.01299999999999       19.26500000000000
H           10.71900000000000       59.03700000000000       20.06100000000000
H           10.45600000000000       59.72400000000000       18.39700000000000
C           11.98000000000000       52.79000000000000       14.47600000000000
H           12.30000000000000       53.46300000000000       13.65200000000000
H           10.98300000000000       53.11700000000000       14.84200000000000
H           11.92000000000000       51.75000000000000       14.08900000000000
C           13.93000000000000       50.50000000000000       15.45000000000000
H           13.73900000000000       50.31500000000000       14.38300000000000
C           14.24800000000000       49.50200000000000       16.22200000000000
H           14.44300000000000       49.66400000000000       17.29200000000000
H           14.32500000000000       48.48299999999999       15.81400000000000
C           18.14800000000000       50.52000000000000       18.85600000000000
H           18.29900000000000       50.68400000000000       17.76800000000000
H           17.50500000000000       49.62599999999999       19.00000000000000
H           19.13600000000000       50.35800000000000       19.33700000000000
C           19.01900000000000       52.36600000000000       21.46300000000000
H           19.66400000000000       53.24000000000000       21.63700000000000
C           19.32400000000000       51.27000000000000       22.07100000000000
H           18.71300000000000       50.36599999999999       21.93200000000000
H           20.19900000000000       51.22499999999999       22.73600000000000
C           16.41600000000000       56.32300000000000       24.11600000000000
H           17.41200000000000       56.80299999999999       24.00300000000000
H           16.55900000000000       55.26100000000000       24.40900000000000
H           15.84400000000000       56.86100000000000       24.90200000000000
C           14.10200000000000       58.41400000000000       23.47900000000000
H           14.94400000000000       59.06500000000000       23.79600000000000
H           13.68900000000000       57.89899999999999       24.37300000000000
H           13.31700000000000       59.04399999999999       23.00700000000000
O           15.97300000000000       55.89100000000000       18.00200000000000
H           15.49100000000000       56.59200000000000       17.56400000000000
H           16.84700000000000       55.73899999999999       17.94500000000000
C           11.80400000000000       52.13699999999999       23.39600000000000
H           11.94500000000000       51.03599999999999       23.45200000000000
H           10.73900000000000       52.37500000000000       23.60500000000000
H           12.45700000000000       52.62299999999999       24.15200000000000
N           11.57300000000000       52.21700000000000       20.85700000000000
H           10.82100000000000       51.56000000000000       20.81100000000000
C           12.17100000000000       52.61899999999999       22.02700000000000
C           12.13000000000000       52.81700000000000       19.82100000000000
H           11.83000000000000       52.67000000000000       18.78400000000000
N           13.09500000000000       53.60899999999999       20.27300000000000
C           13.13000000000000       53.47900000000000       21.63700000000000
H           13.85800000000000       54.02900000000000       22.22000000000000
78
 energy: -116.011579072662 gnorm: 0.146714986745 xtb: 6.7.1 (edcfbbe)
Fe          14.43872506022888       54.71421674330714       19.16248658453314
N           13.08813722069949       56.13688718352611       18.40935957205170
N           14.05407247594567       53.70296618110268       17.38702294623271
N           15.91590969983758       53.41170822562857       19.69043945168888
N           14.97370249120739       55.94229545150769       20.72220615721762
C           12.79800230582381       57.23514853335300       19.16308584795385
C           11.77497276726682       58.00053117394349       18.46459579783112
C           11.49566326410048       57.31753836226376       17.33557612652781
C           12.34173922242939       56.13463586884637       17.29048052515184
C           13.13157336181285       54.00920878856351       16.43263157192964
C           12.98246827490283       52.85706430237202       15.58201427658116
C           13.82007400329571       51.88773583241897       16.02339273068698
C           14.51784728672802       52.44885273530832       17.18712012019046
C           16.24822718962822       52.35038209092300       18.92148151569178
C           17.47438940539395       51.74702063892097       19.47325009049082
C           17.82767749302347       52.50358086042628       20.53254255626998
C           16.81402227361386       53.56505658350635       20.65699076786884
C           15.83796502111216       55.56094424116534       21.68757865923431
C           15.65815302841690       56.42474726571005       22.82029556031793
C           14.64835446075247       57.34743197370277       22.48629695491150
C           14.25785329857492       57.00267284128081       21.13165019151195
C           13.32860790995793       57.65114134658675       20.35177333771016
H           12.96798275613151       58.60049035218675       20.72388459414137
C           12.38964680475291       55.17606281425707       16.28689369367245
H           11.82293953895477       55.32672422156325       15.37186861382619
C           15.53507528939010       51.83345449065699       17.87706425741614
H           15.81667102322801       50.84179395294215       17.55584857518226
C           16.77594059649932       54.54823073942418       21.61957473086862
H           17.53918738996522       54.52407933917687       22.38519800431076
C           10.49878200848020       57.60535794857449       16.24330582982581
H            9.95952351011680       58.53191701697423       16.45931512171819
H            9.77862376127999       56.78075051921751       16.17248365031063
H           11.02078026567931       57.70895883584419       15.28425273703960
C           11.19942879801600       59.26848352970217       19.07207996787656
H           11.99988218173083       59.99844656378840       19.25407230039720
H           10.72440048899678       59.03840973064414       20.03505938876040
H           10.46057265080639       59.71981728793377       18.40410160465366
C           11.98167802758099       52.78807605970854       14.46816783867748
H           12.29090337969139       53.45485845812036       13.65458456985216
H           10.99698111246804       53.10807847838822       14.83096774909374
H           11.91357465976435       51.76443133862844       14.08771910868171
C           13.93644158888364       50.51588160156674       15.46028085862232
H           13.73877555807781       50.34789471110416       14.40114345862235
C           14.24718516519708       49.48762382815526       16.22827928216263
H           14.42349690304639       49.62789241935377       17.28626803160948
H           14.32700773603535       48.48408524624531       15.82356763920286
C           18.14495447706069       50.53445644851597       18.86288923890003
H           18.29453201007000       50.68353454015030       17.78596825017346
H           17.51792573055591       49.64344912829548       19.00066846980847
H           19.11967259935208       50.36128462413894       19.33238462884646
C           19.00717239315177       52.37387529658145       21.44769572187413
H           19.63486340137837       53.24915230911814       21.61682469228622
C           19.32284736816998       51.25773976502962       22.07048907641962
H           18.72443300939323       50.36261129121191       21.94344007336916
H           20.18539977962558       51.21100047251414       22.73007657374064
C           16.40796670078314       56.33095204624192       24.11189476310741
H           17.39817430716101       56.79733946080150       24.00926356165715
H           16.55450408790425       55.28244935743415       24.40592799228151
H           15.85615948840523       56.85295141747464       24.89953720052468
C           14.11384610481040       58.39716760285984       23.45601805012724
H           14.93088243757755       59.05226925034848       23.78613963775678
H           13.69676355532143       57.90726959420088       24.34770861777655
H           13.33238120829204       59.02435965470173       23.00808205770172
O           15.95098129480153       55.88793809924786       18.00600330603133
H           15.49931543381797       56.59820474930528       17.55679334003919
H           16.87514774532875       55.74445021013533       17.93558284683459
C           11.80229268410034       52.13352017049483       23.38746270134961
H           11.93980264004263       51.04696874563339       23.45667512718483
H           10.75325398872643       52.36901140198476       23.60755726899961
H           12.44251770234407       52.61481984864427       24.13468329273525
N           11.56466755755566       52.21060599134963       20.86746921931886
H           10.80957374678176       51.55019286116079       20.81702422662250
C           12.17390819284395       52.61653524635701       22.02660499237410
C           12.14027088523151       52.82965327369693       19.82716958820228
H           11.84317015205799       52.68085911870011       18.80062505569978
N           13.10542730756219       53.62677845791720       20.25824363233221
C           13.13573071009686       53.48948468482378       21.62242073782778
H           13.85484259016972       54.03154817240863       22.20842310898800
78
 energy: -116.036989141609 gnorm: 0.039245572492 xtb: 6.7.1 (edcfbbe)
Fe          14.45706188292074       54.73062112868378       19.12204922577951
N           13.10446282119443       56.11679029254426       18.46105972111763
N           14.03588505289880       53.68863153025467       17.42784377688724
N           15.91432668451608       53.44523963328863       19.65450844488818
N           14.93657283389201       55.88937632514957       20.72534040552253
C           12.79607122228446       57.23863252905278       19.16453893997370
C           11.77479052401349       58.00645886843305       18.46970247383173
C           11.49975862353902       57.32389554020713       17.32499530500227
C           12.36029721173113       56.14571054723878       17.32368593969030
C           13.13441405742060       53.99045931456178       16.45478380035531
C           12.98229398639766       52.85952233578486       15.56742650474131
C           13.81772668865746       51.87273419629372       16.01820914123197
C           14.50125265955574       52.43875969825099       17.17829602175299
C           16.25128808952016       52.34462686732717       18.93804532511392
C           17.46375040728369       51.74148679694961       19.47901524833255
C           17.83346665013634       52.51352944920050       20.54454203976069
C           16.82828350074558       53.57529740141266       20.64213876569508
C           15.82858890905191       55.56715387373453       21.69762632980597
C           15.65275148025890       56.44773728343294       22.82642967793804
C           14.67675586099204       57.33258191544014       22.50373274515419
C           14.26043327692755       56.98426897936874       21.15809435156073
C           13.32220162554139       57.64978464675706       20.37608279662440
H           12.95862753611992       58.59234718819919       20.75193319888198
C           12.40310707005393       55.17185781102269       16.33223018825447
H           11.82398948355564       55.31576894922146       15.42636644888161
C           15.54009676255643       51.82837882390245       17.86738613628296
H           15.85848449044028       50.85973816010470       17.52130883996429
C           16.77966658487752       54.55018883661768       21.62371680909967
H           17.53233281796656       54.51650994143633       22.39593211824225
C           10.50689313805552       57.61025419307078       16.25051409018914
H            9.96375201214970       58.52726989806968       16.45629688439100
H            9.78861984747210       56.79401495550227       16.17142734588141
H           11.00962014132763       57.71078877219443       15.28944673328629
C           11.19800688525125       59.25548059815139       19.04996486382647
H           11.98637437089353       59.98666378946861       19.23557556460366
H           10.72287667852303       59.03702329139143       20.00819948349599
H           10.46081036904711       59.70853262775525       18.39538915218071
C           11.98802689292269       52.79033671090431       14.46192366596317
H           12.28040303349292       53.45199645403089       13.64791177871717
H           11.00672566827273       53.10170175886576       14.81804556842772
H           11.91105971413245       51.77663596559554       14.08178486681010
C           13.94225077053941       50.53365203561160       15.48386302274433
H           13.74308328621363       50.39016121955840       14.42667994787184
C           14.24032441648812       49.47400311229737       16.23255173910288
H           14.39436003906108       49.58055521427507       17.28901908492584
H           14.32591551049967       48.48511404966545       15.81867767577691
C           18.13767383999714       50.55151147782648       18.87652535040223
H           18.28773389731323       50.69232111114754       17.80554585170921
H           17.52482328726401       49.65801250847066       19.00687068262442
H           19.10571975465195       50.37357455924145       19.33913397104654
C           18.98204787560254       52.37730904192214       21.43181113498606
H           19.59285492714534       53.25874660569407       21.59740428373863
C           19.31481567055504       51.25436622495209       22.05902484618797
H           18.72985945342807       50.35952193297730       21.94736310169950
H           20.17041769651141       51.20657020478424       22.71349824962795
C           16.40517382886520       56.33987334499901       24.10952130476521
H           17.39202097630403       56.79616735915933       24.01333063981273
H           16.54702175265832       55.29849633669224       24.39886361064983
H           15.86704199974129       56.85114251652319       24.90220797917151
C           14.12916668545195       58.38022465756947       23.43004444557537
H           14.92717001090202       59.04345615664273       23.76905640302448
H           13.70495776035632       57.90662861203271       24.31976567294951
H           13.35015146852215       58.99317088552220       22.98227901354927
O           15.93761574827551       55.87870140855445       18.00042404614579
H           15.53133476724962       56.61298092472797       17.54027298046567
H           16.88285915662365       55.76089567069135       17.92332877130823
C           11.80461538161365       52.13304000582646       23.37704007187719
H           11.93697184637114       51.05446714054018       23.45415438860456
H           10.76428707290054       52.36626276233688       23.60192158917619
H           12.43517339786418       52.61123957015963       24.12037701381666
N           11.55996277550325       52.20744186865623       20.87223988676840
H           10.80310105342374       51.54544549843271       20.81805062113914
C           12.18097647027660       52.61770619936576       22.02228969576934
C           12.14757444949869       52.84091432006582       19.83164521094760
H           11.85326705724533       52.69341623085644       18.81232943724729
N           13.11005013870310       53.63495961345313       20.24709654479816
C           13.14042879451723       53.49913688354085       21.60880474585732
H           13.85228943527190       54.03602485635516       22.19948626599568
78
 energy: -116.043963161410 gnorm: 0.025199459111 xtb: 6.7.1 (edcfbbe)
Fe          14.46756067029017       54.74403336966937       19.11174346582643
N           13.11289456103958       56.11215148249633       18.49886627915568
N           14.02182698846241       53.67206710188243       17.46321445555854
N           15.91783444347566       53.46582219964001       19.62878516887137
N           14.91821928858591       55.86353600065830       20.73686109562920
C           12.79138560559561       57.23736601383433       19.18664574970244
C           11.78066788949872       58.00204939585401       18.47934786582682
C           11.51289572203053       57.31746211494094       17.33344587439360
C           12.36832713405494       56.13966796116372       17.35812296237958
C           13.12537456120175       53.97434319180422       16.48653027185668
C           12.97967929117361       52.86061238885875       15.57772521707394
C           13.81133486248406       51.86800162930076       16.03380793015641
C           14.49212144635861       52.42740900978531       17.19133041217654
C           16.25616760117682       52.35138835662215       18.93127592002176
C           17.45108020126577       51.74560933274591       19.47955421864372
C           17.82288215101951       52.52314985923319       20.54267536516296
C           16.83337084433330       53.58930382778539       20.62386669838131
C           15.82321880357587       55.55487155008700       21.70443539969000
C           15.66468692736340       56.44159537754463       22.83291088969223
C           14.68235203592970       57.32300063922221       22.50897150459446
C           14.24676687600454       56.96273019723885       21.17581085858222
C           13.30841975256895       57.63935776781865       20.40740423677561
H           12.93807551510417       58.57501393357963       20.79789294484243
C           12.40144092401636       55.15884546407916       16.37933296465765
H           11.80816324846096       55.29974583565547       15.48560335327189
C           15.55210316684449       51.82986699852069       17.85687496742068
H           15.91602013276736       50.88575232082636       17.47206852616675
C           16.77870204747210       54.54744026552679       21.62173849896652
H           17.52265046401706       54.50058223174582       22.40396115964541
C           10.52279483367833       57.61013982178931       16.25779709497093
H            9.97924650358088       58.52810971616319       16.46353499912863
H            9.79969863165141       56.79850635242996       16.17633852845773
H           11.01596695411971       57.71230911010000       15.29154771711782
C           11.19198952613114       59.25391689565220       19.03060925769636
H           11.97396490567860       59.99202518137272       19.21183135335069
H           10.70763009738464       59.04378897294210       19.98539041480262
H           10.45668266471617       59.69080033599144       18.36275172315788
C           11.99622707990421       52.79646352860619       14.45970573126207
H           12.28303959597329       53.45985129221682       13.64420361511065
H           11.00982209638996       53.10093597206193       14.80737487029255
H           11.91994231271922       51.78475970289343       14.07243622688705
C           13.94590479114172       50.53520977466234       15.50160757261741
H           13.76000245615343       50.42120807526411       14.43872431947908
C           14.22405769857559       49.45205347038866       16.22939876978695
H           14.33401714487621       49.51443058857342       17.30027567178874
H           14.31618817693241       48.47399231962294       15.79156848726556
C           18.13152202074296       50.55902719051790       18.89081937513746
H           18.28537313357715       50.70133453887815       17.82106878691432
H           17.52508500058084       49.66169742865952       19.02027681142627
H           19.09701321162534       50.39200400356644       19.36126239767439
C           18.96167533632963       52.38144301523723       21.42962820392932
H           19.55448893844517       53.27443074967169       21.59894354341708
C           19.30751772970558       51.25527031892857       22.04625546477192
H           18.73049433992235       50.35396643807306       21.93764646823589
H           20.16603224782019       51.20392447782318       22.69440496606433
C           16.41784442436747       56.34128923763510       24.11431665181246
H           17.40374753715687       56.79633889273433       24.01792132500174
H           16.55190032801014       55.30040848692757       24.40141816324642
H           15.88128009149534       56.85387629273055       24.90798207760517
C           14.13354470539270       58.37965090690402       23.41003035883464
H           14.92755839205056       59.04845412115606       23.74360203344949
H           13.70427866584159       57.91227430679111       24.29919678508567
H           13.35731818736422       58.97256069396487       22.93583904838679
O           15.93844248675685       55.87515247249000       17.95926348857245
H           15.57722056209729       56.64881562358868       17.51569362164929
H           16.89306880402524       55.78574178496271       17.91305561280149
C           11.80848664037556       52.13475667571512       23.36547248260372
H           11.93814492615642       51.05617176115075       23.44319598360457
H           10.76826840338823       52.36796234046827       23.58896728864865
H           12.43645890475478       52.61237117040526       24.11006428495994
N           11.56103844554966       52.21194033640943       20.86675415478723
H           10.80398720365191       51.54938751411381       20.81213998317596
C           12.18765473820106       52.62237083312623       22.01389325801158
C           12.14970096626345       52.85131879575522       19.82780564948735
H           11.85669418094414       52.70820356772661       18.80897789406068
N           13.11005764194506       53.64240193358945       20.24080202466885
C           13.14435083348681       53.50654051098405       21.60014767483800
H           13.85335234619690       54.04363665046408       22.19325352884081
78
 energy: -116.047855284003 gnorm: 0.031978396295 xtb: 6.7.1 (edcfbbe)
Fe          14.47087981061037       54.75170400968171       19.10846127487401
N           13.12164388043969       56.11045422519461       18.53706378472990
N           14.01508410939667       53.66022908998220       17.49263068462666
N           15.92049015976289       53.48310587510153       19.59804263996573
N           14.91156180337757       55.84661657071425       20.73791629493783
C           12.78624442939565       57.23681124694528       19.21475991107240
C           11.78561692703924       57.99474132124828       18.49341971091869
C           11.52755512971586       57.30567510268281       17.34883777885424
C           12.37615716064295       56.12984594353510       17.39475994490398
C           13.11425510974794       53.95949383220269       16.51919285651269
C           12.97084340791184       52.86069061264766       15.59718804278281
C           13.80095741002361       51.86595927329536       16.05378029155425
C           14.48213055399648       52.41693158147144       17.20759669381855
C           16.25826261806242       52.35538181459952       18.91647161209587
C           17.43628828968427       51.74785873135261       19.47806084792020
C           17.80627245473327       52.53100879809481       20.53766558519249
C           16.83317651940332       53.60208086801970       20.60100140196224
C           15.82117018401822       55.54227971548998       21.70289056538808
C           15.67784249880222       56.43080643155409       22.83224273993009
C           14.68817548540065       57.30900363162992       22.50836334922796
C           14.23674007782856       56.94104023227535       21.18647748281075
C           13.29183125986565       57.62731421464888       20.44327022792764
H           12.90731715301698       58.54967991239204       20.85682378906218
C           12.39356397130398       55.14258364442706       16.42934392727130
H           11.77737322085495       55.27945230766711       15.55246814645029
C           15.56238699429320       51.82806505981297       17.84068473329927
H           15.93677128026772       50.89892787618640       17.43458022335722
C           16.77484194551315       54.54185836363388       21.61498722962660
H           17.50913802320810       54.47833155106539       22.40696362559901
C           10.54453480003778       57.60629556264619       16.26810596113823
H           10.00584679578229       58.52794214596172       16.47716809547891
H            9.81502243538395       56.79986510704208       16.18326103247746
H           11.03696507146099       57.71130742984776       15.30118273021517
C           11.18452997418584       59.25565093660425       19.01133272270261
H           11.95753536063448       60.00498844483796       19.18399719180669
H           10.68546017263043       59.06340554201803       19.96254124958212
H           10.45469219383080       59.66723597336441       18.31908583489018
C           12.00291234898772       52.80412095335108       14.46311040261720
H           12.29692697740200       53.47349922977630       13.65371080228831
H           11.00885025216300       53.10207578007167       14.79735376710722
H           11.93576591375852       51.79442672830962       14.06495856674892
C           13.94376413675605       50.53401477902808       15.52027990377850
H           13.78930796590922       50.44426724470738       14.44928203089805
C           14.20104857529109       49.43742504943001       16.23250243526904
H           14.32479522044602       49.47354457673127       17.30082669314269
H           14.30418854296763       48.46881915043161       15.77207920059216
C           18.12721625168066       50.56070790872030       18.90753357380061
H           18.28924769622599       50.69961866126252       17.83829599349407
H           17.52762027537263       49.65946504221304       19.03901409134935
H           19.08934929609521       50.41011412701745       19.39111923061130
C           18.93887311208904       52.38687875690263       21.43096824762206
H           19.50992561634962       53.29287842939950       21.61108687562790
C           19.30007943765875       51.25630579515370       22.02844205193510
H           18.73627446144405       50.34594391999810       21.91097338024024
H           20.15969820411743       51.20233390632791       22.67496944797221
C           16.43347148489021       56.34136334910373       24.11308737847518
H           17.41976456146960       56.79554437478683       24.01818644074087
H           16.56437165847247       55.30190399954166       24.40542123773402
H           15.89778846147024       56.85859637243948       24.90613835900098
C           14.13683122800705       58.37844039261984       23.38744092124283
H           14.92531064674189       59.05670580224486       23.71267302288578
H           13.69776660936118       57.92976229376244       24.28128000812906
H           13.36614049559341       58.95496750598442       22.88537727350142
O           15.93364493671720       55.84678900374844       17.86891252368648
H           15.63619633499732       56.70634686219528       17.50810320399961
H           16.90838103118741       55.84018225053487       17.92488447303010
C           11.81039222171365       52.13511171737028       23.35405797324042