77
 energy: -118.779278616552 gnorm: 0.308647002393 xtb: 6.7.1 (edcfbbe)
Fe          35.31900000000000        4.15000000000000       10.35900000000000
N           37.16100000000000        3.85400000000000        9.77500000000000
N           35.05000000000000        5.37700000000000        8.78500000000000
N           33.43400000000000        4.48800000000000       10.95900000000000
N           35.64800000000000        2.93200000000000       11.83200000000000
C           38.15000000000000        3.02300000000000       10.33200000000000
C           39.42300000000000        3.05900000000000        9.53900000000000
C           39.16600000000000        3.87900000000000        8.47800000000000
C           37.76899999999999        4.34900000000000        8.61800000000000
C           35.93700000000000        5.72100000000000        7.80000000000000
C           35.38900000000000        6.73100000000000        6.79000000000000
C           34.10400000000000        6.95000000000000        7.24300000000000
C           33.93500000000000        6.12600000000000        8.45800000000000
C           32.57200000000000        5.44300000000000       10.47100000000000
C           31.38600000000000        5.59100000000000       11.31900000000000
C           31.52200000000000        4.68900000000000       12.36700000000000
C           32.80600000000000        3.99100000000000       12.09600000000000
C           34.69900000000000        2.61000000000000       12.86900000000000
C           35.24600000000000        1.65400000000000       13.80300000000000
C           36.54699999999999        1.52100000000000       13.37700000000000
C           36.75600000000000        2.23100000000000       12.17700000000000
C           37.94800000000000        2.22800000000000       11.46500000000000
H           38.75800000000000        1.58100000000000       11.80200000000000
C           37.21999999999999        5.19400000000000        7.73500000000000
H           37.83700000000000        5.49500000000000        6.88800000000000
C           32.78300000000000        6.16900000000000        9.27200000000000
H           31.97600000000000        6.82500000000000        8.94700000000000
C           33.43700000000000        3.14800000000000       12.98900000000000
H           32.87700000000000        2.88000000000000       13.88400000000000
C           40.07200000000000        4.32300000000000        7.32800000000000
H           41.07600000000000        3.86400000000000        7.44900000000000
H           40.17800000000000        5.42900000000000        7.33900000000000
H           39.63900000000000        3.99300000000000        6.36000000000000
C           40.71200000000000        2.23600000000000        9.74300000000000
H           40.72899999999999        1.38900000000000        9.02400000000000
H           40.73900000000000        1.83100000000000       10.77700000000000
H           41.60000000000000        2.87900000000000        9.56300000000000
C           36.01800000000000        7.25400000000000        5.48300000000000
H           36.80300000000000        6.54600000000000        5.14000000000000
H           36.48199999999999        8.24800000000000        5.66100000000000
H           35.23700000000000        7.33500000000000        4.69700000000000
C           33.13600000000000        7.87700000000000        6.72900000000000
H           32.08600000000000        7.55400000000000        6.73400000000000
C           33.37200000000000        9.24400000000000        6.18000000000000
H           34.39000000000000        9.65800000000000        6.13200000000000
H           32.53100000000000        9.85300000000000        5.81700000000000
C           30.24900000000000        6.57400000000000       10.97300000000000
H           29.93700000000000        6.42300000000000        9.91700000000000
H           30.60500000000000        7.61900000000000       11.09800000000000
H           29.37700000000000        6.38800000000000       11.63600000000000
C           30.75200000000000        4.44900000000000       13.52900000000000
H           30.96200000000000        3.52700000000000       14.08800000000000
C           29.71400000000000        5.27200000000000       14.07900000000000
H           29.43200000000000        6.21600000000000       13.59000000000000
H           29.18800000000000        4.96900000000000       14.99600000000000
C           34.60099999999999        1.08600000000000       15.05000000000000
H           33.58300000000000        0.71500000000000       14.80500000000000
H           34.51900000000000        1.87800000000000       15.82400000000000
H           35.20900000000000        0.24000000000000       15.43500000000000
C           37.64299999999999        0.84700000000000       14.17400000000000
H           37.79400000000000       -0.18700000000000       13.79600000000000
H           37.35400000000000        0.80100000000000       15.24600000000000
H           38.59200000000000        1.41400000000000       14.06100000000000
C           32.37500000000000        0.04000000000000        7.55100000000000
H           32.22200000000000       -0.71400000000000        8.35200000000000
H           32.60200000000000       -0.48600000000000        6.60000000000000
H           31.44700000000000        0.64100000000000        7.44000000000000
N           34.93600000000000        0.80200000000000        7.63300000000000
H           35.32200000000000        0.10800000000000        7.02500000000000
C           33.55700000000000        0.96700000000000        7.93200000000000
C           35.59900000000000        1.73600000000000        8.30900000000000
H           36.68100000000000        1.85900000000000        8.30500000000000
N           34.73100000000000        2.44600000000000        8.95100000000000
C           33.37300000000000        2.03200000000000        8.76800000000000
H           32.51600000000000        2.50800000000000        9.21900000000000
O           36.03100000000000        5.57900000000000       11.22900000000000
O           35.47400000000000        5.75900000000000       12.29400000000000
77
 energy: -118.862770367114 gnorm: 0.146218383285 xtb: 6.7.1 (edcfbbe)
Fe          35.33204707967620        4.17149394160022       10.36184901039151
N           37.19586509004083        3.82965478856362        9.75845686115831
N           35.03551814176836        5.40660689376841        8.74923416830358
N           33.41082533660406        4.49403223346428       10.95840214491782
N           35.62578166177671        2.91605744663181       11.84511242117151
C           38.16264761706756        3.01668743057111       10.32450806227359
C           39.40885347162393        3.04908212627739        9.53240519109433
C           39.16105236187489        3.87965460608046        8.47888430433564
C           37.78710856971733        4.35187418420381        8.61996589971220
C           35.93220697822798        5.73186961568132        7.77335386090367
C           35.38488199505006        6.71354455601004        6.80555417404482
C           34.10375688411587        6.97626084513927        7.25783982894766
C           33.91192978641652        6.14264528930239        8.45898807588709
C           32.56112868551008        5.44593917345298       10.46030648860056
C           31.39153866401619        5.59850876170325       11.30367763625408
C           31.52684478032655        4.70361312030951       12.36077401791004
C           32.80943529028377        4.01737591480638       12.10448256316578
C           34.69319367353928        2.59943604391354       12.85531344854272
C           35.25845534393600        1.67554412476118       13.80203073690210
C           36.56110625514158        1.51524889513728       13.39303577732235
C           36.75620313483127        2.23563222985158       12.18167612192503
C           37.95021726897468        2.23830728838297       11.45763585224190
H           38.75265172465985        1.59357556714676       11.79733807259083
C           37.22032516335964        5.20521143199718        7.71708216283308
H           37.83674782765582        5.50573460055087        6.88113878377961
C           32.77578471282936        6.16935593712241        9.26888510627641
H           31.97745635786957        6.82672561786135        8.95197546007516
C           33.42698248372289        3.14604984163117       12.98102450790892
H           32.87930781455062        2.87784853123245       13.87742455481555
C           40.06325822339936        4.31326799342372        7.34518807005585
H           41.05881634557443        3.86788739510169        7.44996713455809
H           40.17373727903804        5.40596213541664        7.34024177869478
H           39.64621061732212        3.99984237533358        6.37861476561766
C           40.68402924029481        2.24753677420549        9.74799309743320
H           40.72307263971984        1.40705024184557        9.03935963124117
H           40.73716214020660        1.84077816657978       10.76310933068992
H           41.57179938557513        2.87006883038722        9.57119079755193
C           36.01354266932706        7.23347696671114        5.51914153696193
H           36.79157769181948        6.55294196978803        5.15126104122155
H           36.47227064368281        8.22195164616886        5.66632026697819
H           35.25027527161934        7.33304860059284        4.73248895336238
C           33.14278750435870        7.91277789105952        6.71916236143219
H           32.10166644694587        7.58281361362038        6.73942775695450
C           33.37177893726270        9.17814548351731        6.19472203322782
H           34.36412165442216        9.62018757179999        6.14736966110343
H           32.55205510357632        9.80247649516144        5.83896269841352
C           30.26522507888811        6.55969502033400       10.97544548302074
H           29.94508044492541        6.42463289559006        9.93407881247389
H           30.60094788949717        7.59795419062713       11.09830146836116
H           29.39714160593395        6.38800533083595       11.62046118834233
C           30.73102898568798        4.46447311411345       13.52560478477905
H           30.95396126448553        3.55106656214781       14.08133879059943
C           29.73758680613267        5.25064750691246       14.05490683844543
H           29.44978753729244        6.19309244017676       13.60194012153683
H           29.21437332488047        4.96485676933706       14.96469598022983
C           34.60524471488765        1.09846530120287       15.03027120356851
H           33.59824637023853        0.72379636867977       14.80543128329977
H           34.51949006477603        1.86575370257867       15.81117260439451
H           35.19684849953977        0.26185532367099       15.42400354182270
C           37.64647536772508        0.83725238795891       14.17089400433857
H           37.80206143523839       -0.18463484221700       13.80427763274591
H           37.36715592241882        0.79832941568622       15.22920218345478
H           38.58102569729999        1.39977033958237       14.06802360680818
C           32.39526975951206        0.03789669706417        7.54114758334748
H           32.23098848039043       -0.70247603560391        8.33486800889659
H           32.59716938345569       -0.48595432580220        6.60333724869146
H           31.47785566846775        0.63027259963570        7.43987102591428
N           34.89545563381216        0.78873465798722        7.63791355360922
H           35.29298294050955        0.09561341743206        7.02542069014291
C           33.54109960371128        0.95081020753444        7.93073968624712
C           35.56483714981336        1.74348738053887        8.31548382528578
H           36.64199628481452        1.85804134471500        8.30340309345883
N           34.72823112103391        2.48318989149729        8.98152223672098
C           33.42261491055308        2.02417250637405        8.76199926242163
H           32.56597482398907        2.49921094234929        9.20906290078939
O           36.05255885098649        5.60361702976035       11.21753924580862
O           35.46526842979040        5.76458667143197       12.32476590066009
77
 energy: -118.888399524845 gnorm: 0.061844295482 xtb: 6.7.1 (edcfbbe)
Fe          35.34223925259577        4.19977730076162       10.37511924329141
N           37.22869725981928        3.81845169504962        9.73736616805534
N           35.02463276750696        5.43661071920777        8.71816392135251
N           33.38601923063974        4.50440759617739       10.95791930517822
N           35.60266102675571        2.89458239412269       11.85950097528247
C           38.17040699790621        3.01134341930739       10.30617697580381
C           39.39508218251005        3.04064779612833        9.52617435360450
C           39.15536739258552        3.88606108330661        8.47618442559794
C           37.80132558532357        4.35873886453702        8.61528039539006
C           35.92564629432899        5.74354549555884        7.74719791464832
C           35.38085855410900        6.69621570760609        6.81834674276526
C           34.10520900119855        6.98978057817995        7.27070053720916
C           33.90083472620262        6.16749257003685        8.46330577447511
C           32.54758846649057        5.44848472155477       10.44788880643511
C           31.39252860809551        5.60233352601837       11.28769339815635
C           31.53969099917544        4.71944085945593       12.35154024242903
C           32.81247026081013        4.04362817877843       12.11008062994152
C           34.69171813870795        2.59192079479708       12.84116530381080
C           35.27044858198527        1.69520814805527       13.79978832121641
C           36.57536759878762        1.51309994400483       13.40762754401444
C           36.75642292632413        2.23897112897382       12.18532632668351
C           37.94557053002058        2.24934379252001       11.44884303990269
H           38.74567247959313        1.61293782290657       11.79803255151439
C           37.21705286684904        5.21490310913664        7.69915101184222
H           37.83681487712349        5.52033886251074        6.87369108918756
C           32.76826130545632        6.17389039295597        9.26436928256242
H           31.97414403431646        6.83467895474948        8.95546201793804
C           33.41674502082243        3.14235004399332       12.96942662678812
H           32.87924453614116        2.87193465670734       13.86677725568250
C           40.05891875294479        4.30351373940034        7.35967272936087
H           41.04645376102598        3.86255653057369        7.46138032720034
H           40.16942363701816        5.38834234033618        7.34749637451199
H           39.64859813825777        3.99924416292782        6.39531605320237
C           40.65506726922858        2.25662649355697        9.75234864114251
H           40.70938340135961        1.41915992454916        9.05085553053778
H           40.71908880897750        1.85489528041562       10.75874593167179
H           41.53730492224756        2.87471976038573        9.57931300092437
C           36.00785678202479        7.21529597759922        5.55444023455919
H           36.77967264912972        6.54672567888568        5.17743376618751
H           36.46350401094836        8.19814529804876        5.69402264425142
H           35.25031536929814        7.32629396429535        4.77362251957667
C           33.14447254203329        7.93529498015394        6.71617640542108
H           32.11169647788257        7.59293570112892        6.75276137315817
C           33.37352825130004        9.12256173598880        6.22660973448910
H           34.35148754183043        9.57572755243744        6.16047496394999
H           32.57401331790019        9.75032099293214        5.85072060197829
C           30.27748272270976        6.54640792861451       10.97509878253087
H           29.95466057006378        6.42356831966562        9.94088362561315
H           30.60312637832217        7.57999042683183       11.10179709766035
H           29.41667885525012        6.37709369363114       11.61331754871705
C           30.72286622716527        4.48035210266489       13.52129702689287
H           30.95364737349782        3.56497384937164       14.06057129172619
C           29.76460887887589        5.23953470064203       14.03249154769233
H           29.46398392422894        6.18091930899448       13.60717953605523
H           29.23590565423532        4.95689797300147       14.93095644748547
C           34.60897244745672        1.11409441283695       15.01194817812288
H           33.61037905913847        0.73966338573896       14.79006592952172
H           34.51938074512211        1.86550880790091       15.79812008543527
H           35.19308946029930        0.28330019550626       15.40627230762203
C           37.65245688667749        0.82707693101770       14.16941002480743
H           37.81154930290231       -0.18740035310801       13.80828924893164
H           37.38201026729789        0.78739713851526       15.22056399865279
H           38.58044139279436        1.38403479947695       14.07367884613679
C           32.41331704554510        0.04189739679453        7.53602207802376
H           32.24226207393446       -0.69883676915240        8.31839547415052
H           32.60878373972018       -0.47768595824405        6.60477032625099
H           31.49951134706292        0.62334813567274        7.43490631931032
N           34.85786407636918        0.77761795625844        7.64891190401838
H           35.26405287072286        0.08730097619441        7.03519313781248
C           33.52579277384014        0.94233239309896        7.93773489992174
C           35.53555768214237        1.74238280804762        8.31582401672622
H           36.60537638974228        1.85037113862485        8.29197614772472
N           34.72351427032110        2.50508180284429        8.99874799193609
C           33.46521689788542        2.02483316466124        8.76733397251857
H           32.60732791927218        2.49532705379417        9.20954332479375
O           36.08238319823213        5.63722797746947       11.20420611487828
O           35.46029243358328        5.75190803191869       12.33480175544738
77
 energy: -118.894165495027 gnorm: 0.022535687894 xtb: 6.7.1 (edcfbbe)
Fe          35.35241797871177        4.22738920313339       10.38866013184844
N           37.23159354227628        3.82107406404474        9.71958700062753
N           35.02142076057323        5.44612757456805        8.72018745288660
N           33.38576617638633        4.51570849519019       10.95127577229463
N           35.60135429129510        2.89143614638965       11.85826340824536
C           38.16471638879536        3.01163304898300       10.29037642506107
C           39.38114016699475        3.03550092097007        9.51566560477056
C           39.15056144575609        3.88633337288598        8.46675233205496
C           37.80302172911809        4.36660524560041        8.60389486146125
C           35.91894925965369        5.74595317072327        7.74607268172329
C           35.36638818204033        6.69228274628556        6.82887618994520
C           34.09499340609758        6.98219868204707        7.28571889688353
C           33.89800546995186        6.17576786570818        8.47350388981424
C           32.54391553246636        5.45119875931035       10.43972260981234
C           31.39345933607238        5.60253563099541       11.27815596053586
C           31.55180676489900        4.72499587112585       12.33939337331751
C           32.82065509694201        4.05600226631754       12.10473672483398
C           34.69515357346654        2.59147525950182       12.83014462817290
C           35.28242362831313        1.70951256245817       13.79750743236564
C           36.58706832728394        1.52088239662416       13.41083069618596
C           36.76210188771119        2.24559504961346       12.18461853305483
C           37.94241178908975        2.26129385938774       11.44457186127301
H           38.74926437607703        1.64002477807795       11.80320248345003
C           37.21337375071218        5.22385193047174        7.69063290333205
H           37.83242849537255        5.54091000504041        6.86659052977409
C           32.76109519144080        6.18127471050213        9.26332480055448
H           31.96881910984949        6.84864838179678        8.95998444626321
C           33.41560210707320        3.13950931399895       12.95499818386424
H           32.87526524688777        2.86132099195549       13.84744051580565
C           40.06447949581968        4.29454403955022        7.36299434542695
H           41.04588918944216        3.84530118800735        7.47745043860052
H           40.17814657045491        5.37799316912583        7.35273268039916
H           39.65710074521647        3.99151992892413        6.39813083193830
C           40.63343256404428        2.25966501943840        9.75995499593745
H           40.69537608285707        1.41890814235896        9.06480558631066
H           40.68613138208597        1.87010818756060       10.77096581196178
H           41.50719689207620        2.88784522069881        9.59180564252054
C           36.00154133275539        7.20650228743042        5.57969853460518
H           36.76682781312224        6.52888893577559        5.20864827135953
H           36.46401237547571        8.18083969476771        5.73786714846760
H           35.24121031221028        7.32664572840500        4.80692487745272
C           33.12254754025299        7.91066334017938        6.73588100737472
H           32.09086631624630        7.57278291140052        6.78930711444809
C           33.38290620920450        9.10606575623529        6.20421237248671
H           34.36584476327602        9.54475413978929        6.16885901955601
H           32.58877044158254        9.74202644752739        5.84133890563091
C           30.27883196220765        6.53988209222640       10.96956730152837
H           29.96110970763958        6.42515385115274        9.93342585412552
H           30.60277198417971        7.57172712365099       11.10951289663129
H           29.42116368679542        6.35687689775840       11.60604179196228
C           30.73133064894659        4.47641949102373       13.50257663970995
H           30.96419041606849        3.55823023419966       14.03132767828061
C           29.76845091235396        5.23837143431458       14.01588907179421
H           29.48294763613172        6.19355801486412       13.61209045597338
H           29.23914372927026        4.94264680161864       14.90693952644921
C           34.61104470672262        1.13375558355989       15.00027278083316
H           33.61564616401108        0.76323691398150       14.76245009863077
H           34.51527154818687        1.88319316981262       15.78647298751039
H           35.19323825014833        0.30307010070506       15.39291769966742
C           37.66174034604812        0.81585445897167       14.16407733975637
H           37.81920548681671       -0.19798990148860       13.79812776345699
H           37.39978022573666        0.76513410283740       15.21709867658609
H           38.59590942713000        1.36371797727913       14.07554631366978
C           32.41730028753960        0.04267465687004        7.53263228142907
H           32.24564314763251       -0.71257378512795        8.30051805516647
H           32.63388652987678       -0.46240433940052        6.59648726368537
H           31.50217204880918        0.61769698813180        7.42384035413831
N           34.83839402051734        0.77066832145108        7.66645787514176
H           35.23453339225647        0.07504162603627        7.05378314102743
C           33.51366410845954        0.94594180902201        7.96058130378675
C           35.52720784069585        1.73695641967303        8.31677576911926
H           36.59247418342534        1.84199930408037        8.27393177469131
N           34.72669939479326        2.50844290407013        9.00794747095807
C           33.47173290323757        2.03112994382871        8.79220606267184
H           32.62035316827556        2.50356296750081        9.23596202391865
O           36.11203370401011        5.66762861941331       11.19820462318954
O           35.47667539464714        5.74829977710075       12.33006920982103
77
 energy: -118.897129728982 gnorm: 0.019357177784 xtb: 6.7.1 (edcfbbe)
Fe          35.36187672386597        4.25580172097968       10.39894700672139
N           37.22991472210187        3.83004288820965        9.70396686268840
N           35.01935353875037        5.45397744822477        8.73082465035162
N           33.39148922307989        4.52977016603023       10.94674216876644
N           35.60723024914868        2.89576254208996       11.85665030213628
C           38.15726622351576        3.01762917020972       10.27535424340537
C           39.36839426889209        3.03275522058634        9.50464553976260
C           39.14760865700098        3.88748912503115        8.45545008758214
C           37.80404382157578        4.37653472945196        8.59271855914942
C           35.91320344238149        5.75347104932716        7.75527783626788
C           35.35467345145742        6.69570247538243        6.83895950789069
C           34.08579870755923        6.98222283859826        7.30039920260610
C           33.89483598685496        6.17997552504059        8.48187660077222
C           32.54319601355345        5.45599376427917       10.43563851432840
C           31.39244955858479        5.60031075761185       11.27135155096149
C           31.56279185367460        4.72790737636918       12.33134327899091
C           32.83147471065986        4.06642120591089       12.10026942417787
C           34.70626825864530        2.59964882317761       12.82391806841875
C           35.29717499364612        1.72381047731254       13.79637406759830
C           36.60064584405431        1.53250102495518       13.41426823785061
C           36.77289714558775        2.25627261310356       12.18476865613057
C           37.94141475389721        2.27789802712326       11.44187112986864
H           38.75864055812583        1.67508737225734       11.80920117198432
C           37.21043205310845        5.23679825650116        7.68717364100985
H           37.82543933688915        5.56463035123182        6.86207800828729
C           32.75493181570101        6.18987250031230        9.26330115251765
H           31.96458672826940        6.86266536587514        8.96457315247557
C           33.41939661163363        3.13911242721808       12.94197676282698
H           32.87229782161541        2.84649804462540       13.82524162669465
C           40.07537714648583        4.28373347359890        7.36134604628156
H           41.05014630936999        3.82298546864646        7.49201883387958
H           40.19890570928837        5.36639188969687        7.35023935413595
H           39.67555608410059        3.98095720150685        6.39293502334757
C           40.61574525221394        2.26141231561173        9.76900030396997
H           40.68842511177112        1.41182648484537        9.08601903222993
H           40.64986800403405        1.88663755786590       10.78727985186667
H           41.48676403085511        2.89460463494059        9.60792857689068
C           35.99640634439854        7.20685063693300        5.59861261142428
H           36.74908021129566        6.51328158687660        5.23074321480571
H           36.47814589738027        8.16825945017653        5.77658961842605
H           35.23764705106599        7.34748853382499        4.82909020982570
C           33.10556948132122        7.89581615839200        6.75853277790277
H           32.07392540602039        7.57081433008753        6.82296971980775
C           33.37756359481529        9.08812161087303        6.22458283643211
H           34.37761072259678        9.47578736520665        6.15287070194390
H           32.59427248645712        9.70803132331736        5.81988067485615
C           30.27332242765627        6.53152983725548       10.96455612820076
H           29.96638340848095        6.43018443816834        9.92318763363967
H           30.58976748471087        7.56392312239970       11.12400927471645
H           29.41360704122904        6.32836343780057       11.59331499840570
C           30.74027582462218        4.47146130229611       13.48693266370922
H           30.95881664095005        3.54093211459726       13.99637414259225
C           29.77986721789766        5.24157615146617       14.00604022921940
H           29.50735223831492        6.20418419463044       13.61282280601959
H           29.23514230393309        4.92327192121249       14.87987560034976
C           34.61186576266167        1.15436116613789       14.99062982932126
H           33.61820737615277        0.79058277622844       14.73341671113321
H           34.50759256472978        1.90557266677187       15.77417421339515
H           35.18783027002604        0.32206743130592       15.38829162780912
C           37.67183976352848        0.80479248493975       14.15556521544972
H           37.81872918246884       -0.20621590117852       13.77228651938427
H           37.41550865822162        0.73601392958847       15.21069137536500
H           38.61516350226321        1.34143318462319       14.07418102575661
C           32.41457004081897        0.04221513289763        7.53210505448831
H           32.23994456670873       -0.73660517738377        8.27731030620366
H           32.66639736790250       -0.43717604312130        6.58744336800753
H           31.49313865110652        0.60509712973565        7.41164389330015
N           34.81900948278189        0.76653037779039        7.68578566501862
H           35.20291792678676        0.06360111673817        7.07493718405704
C           33.49780134175180        0.94826671098252        7.99044117565219
C           35.52016415605234        1.72908891731824        8.32256648012418