 Entering Gaussian System, Link 0=g16
 Input=1ltw05.com
 Output=1ltw05.log
 Initial command:
 /sw/chem/gaussian/g16_C02/a100.el9/g16/l1.exe "/local/bebjones_9027007/Gau-1607375.inp" -scrdir="/local/bebjones_9027007/"
 Entering Link 1 = /sw/chem/gaussian/g16_C02/a100.el9/g16/l1.exe PID=   1607376.
  
 Copyright (c) 1988-2021, Gaussian, Inc.  All Rights Reserved.
  
 This is part of the Gaussian(R) 16 program.  It is based on
 the Gaussian(R) 09 system (copyright 2009, Gaussian, Inc.),
 the Gaussian(R) 03 system (copyright 2003, Gaussian, Inc.),
 the Gaussian(R) 98 system (copyright 1998, Gaussian, Inc.),
 the Gaussian(R) 94 system (copyright 1995, Gaussian, Inc.),
 the Gaussian 92(TM) system (copyright 1992, Gaussian, Inc.),
 the Gaussian 90(TM) system (copyright 1990, Gaussian, Inc.),
 the Gaussian 88(TM) system (copyright 1988, Gaussian, Inc.),
 the Gaussian 86(TM) system (copyright 1986, Carnegie Mellon
 University), and the Gaussian 82(TM) system (copyright 1983,
 Carnegie Mellon University). Gaussian is a federally registered
 trademark of Gaussian, Inc.
  
 This software contains proprietary and confidential information,
 including trade secrets, belonging to Gaussian, Inc.
  
 This software is provided under written license and may be
 used, copied, transmitted, or stored only in accord with that
 written license.
  
 The following legend is applicable only to US Government
 contracts under FAR:
  
                    RESTRICTED RIGHTS LEGEND
  
 Use, reproduction and disclosure by the US Government is
 subject to restrictions as set forth in subparagraphs (a)
 and (c) of the Commercial Computer Software - Restricted
 Rights clause in FAR 52.227-19.
  
 Gaussian, Inc.
 340 Quinnipiac St., Bldg. 40, Wallingford CT 06492
  
  
 ---------------------------------------------------------------
 Warning -- This program may not be used in any manner that
 competes with the business of Gaussian, Inc. or will provide
 assistance to any competitor of Gaussian, Inc.  The licensee
 of this program is prohibited from giving any competitor of
 Gaussian, Inc. access to this program.  By using this program,
 the user acknowledges that Gaussian, Inc. is engaged in the
 business of creating and licensing software in the field of
 computational chemistry and represents and warrants to the
 licensee that it is not a competitor of Gaussian, Inc. and that
 it will not use this program in any manner prohibited above.
 ---------------------------------------------------------------
  

 Cite this work as:
 Gaussian 16, Revision C.02,
 M. J. Frisch, G. W. Trucks, H. B. Schlegel, G. E. Scuseria, 
 M. A. Robb, J. R. Cheeseman, G. Scalmani, V. Barone, 
 G. A. Petersson, H. Nakatsuji, X. Li, M. Caricato, A. V. Marenich, 
 J. Bloino, B. G. Janesko, R. Gomperts, B. Mennucci, H. P. Hratchian, 
 J. V. Ortiz, A. F. Izmaylov, J. L. Sonnenberg, D. Williams-Young, 
 F. Ding, F. Lipparini, F. Egidi, J. Goings, B. Peng, A. Petrone, 
 T. Henderson, D. Ranasinghe, V. G. Zakrzewski, J. Gao, N. Rega, 
 G. Zheng, W. Liang, M. Hada, M. Ehara, K. Toyota, R. Fukuda, 
 J. Hasegawa, M. Ishida, T. Nakajima, Y. Honda, O. Kitao, H. Nakai, 
 T. Vreven, K. Throssell, J. A. Montgomery, Jr., J. E. Peralta, 
 F. Ogliaro, M. J. Bearpark, J. J. Heyd, E. N. Brothers, K. N. Kudin, 
 V. N. Staroverov, T. A. Keith, R. Kobayashi, J. Normand, 
 K. Raghavachari, A. P. Rendell, J. C. Burant, S. S. Iyengar, 
 J. Tomasi, M. Cossi, J. M. Millam, M. Klene, C. Adamo, R. Cammi, 
 J. W. Ochterski, R. L. Martin, K. Morokuma, O. Farkas, 
 J. B. Foresman, and D. J. Fox, Gaussian, Inc., Wallingford CT, 2019.
 
 ******************************************
 Gaussian 16:  ES64L-G16RevC.02  7-Dec-2021
                22-Jan-2026 
 ******************************************
 %mem=16GB
 %CPU=0-71
 SetSPE:  set environment variable "OMP_PROC_BIND" = "true"
 SetSPE:  set environment variable "OMP_PLACES" = "{0},{1},{2},{3},{4},{5},{6},{7},{8},{9},{10},{11},{12},{13},{14},{15},{16},{17},{18},{19},{20},{21},{22},{23},{24},{25},{26},{27},{28},{29},{30},{31},{32},{33},{34},{35},{36},{37},{38},{39},{40},{41},{42},{43},{44},{45},{46},{47},{48},{49},{50},{51},{52},{53},{54},{55},{56},{57},{58},{59},{60},{61},{62},{63},{64},{65},{66},{67},{68},{69},{70},{71}"
 Will use up to   72 processors via shared memory.
 %gpucpu=0,1,2,3=0,1,2,3
 Will use    4 GPUs:
 Thread  CPU   GPU
      0    0     0
      1    1     1
      2    2     2
      3    3     3
      4    4    -1
      5    5    -1
      6    6    -1
      7    7    -1
      8    8    -1
      9    9    -1
     10   10    -1
     11   11    -1
     12   12    -1
     13   13    -1
     14   14    -1
     15   15    -1
     16   16    -1
     17   17    -1
     18   18    -1
     19   19    -1
     20   20    -1
     21   21    -1
     22   22    -1
     23   23    -1
     24   24    -1
     25   25    -1
     26   26    -1
     27   27    -1
     28   28    -1
     29   29    -1
     30   30    -1
     31   31    -1
     32   32    -1
     33   33    -1
     34   34    -1
     35   35    -1
     36   36    -1
     37   37    -1
     38   38    -1
     39   39    -1
     40   40    -1
     41   41    -1
     42   42    -1
     43   43    -1
     44   44    -1
     45   45    -1
     46   46    -1
     47   47    -1
     48   48    -1
     49   49    -1
     50   50    -1
     51   51    -1
     52   52    -1
     53   53    -1
     54   54    -1
     55   55    -1
     56   56    -1
     57   57    -1
     58   58    -1
     59   59    -1
     60   60    -1
     61   61    -1
     62   62    -1
     63   63    -1
     64   64    -1
     65   65    -1
     66   66    -1
     67   67    -1
     68   68    -1
     69   69    -1
     70   70    -1
     71   71    -1
 SetGPE:  set environment variable "OMP_PROC_BIND" = "true"
 SetGPE:  set environment variable "OMP_PLACES" = "{0},{1},{2},{3},{4},{5},{6},{7},{8},{9},{10},{11},{12},{13},{14},{15},{16},{17},{18},{19},{20},{21},{22},{23},{24},{25},{26},{27},{28},{29},{30},{31},{32},{33},{34},{35},{36},{37},{38},{39},{40},{41},{42},{43},{44},{45},{46},{47},{48},{49},{50},{51},{52},{53},{54},{55},{56},{57},{58},{59},{60},{61},{62},{63},{64},{65},{66},{67},{68},{69},{70},{71}"
 %oldchk=1ltw_05_opt.chk
 %chk=1ltw_05_nbo.chk
 Properties for Device   0
 Minimum vector length:                              32
 Maximum vector length:                            1024
 Number of SMPs:                                    108
 Maximum number of threads per SMP:                2048
 Number of ASync Engines:                             5
 Memory:                                           9206849536
 Properties for Device   1
 Minimum vector length:                              32
 Maximum vector length:                            1024
 Number of SMPs:                                    108
 Maximum number of threads per SMP:                2048
 Number of ASync Engines:                             5
 Memory:                                           9206849536
 Properties for Device   2
 Minimum vector length:                              32
 Maximum vector length:                            1024
 Number of SMPs:                                    108
 Maximum number of threads per SMP:                2048
 Number of ASync Engines:                             5
 Memory:                                           9206849536
 Properties for Device   3
 Minimum vector length:                              32
 Maximum vector length:                            1024
 Number of SMPs:                                    108
 Maximum number of threads per SMP:                2048
 Number of ASync Engines:                             5
 Memory:                                           9206849536
   8286164582 words of memory will be used on each GPU.
 Copying data from "1ltw_05_opt.chk" to current chk file "1ltw_05_nbo.chk"
 IOpt=  2 FromEx=T IUOpen= 4 IOptOp= 5 NList=   0 IFRang= 0 IUIn= 4 IUOut= 2.
 ------------------------------------------------------------------
 # opt apfd/def2TZVP guess=read scf=maxcycle=999 geom=check pop=nbo
 ------------------------------------------------------------------
 1/18=20,19=15,26=3,29=2,38=1/1,3;
 2/9=110,12=2,40=1/2;
 3/5=44,7=101,11=2,14=-4,25=1,30=1,71=1,74=-44,116=-2/1,2,3;
 4/5=1/1;
 5/5=2,7=999,38=6/2;
 6/7=2,8=2,9=2,10=2,28=1,40=1/1,7;
 7//1,2,3,16;
 1/18=20,19=15,26=3/3(2);
 2/9=110/2;
 99//99;
 2/9=110/2;
 3/5=44,7=101,11=2,14=-2,25=1,30=1,71=1,74=-44/1,2,3;
 4/5=5,16=3,69=1/1;
 5/5=2,7=999,38=5/2;
 7//1,2,3,16;
 1/18=20,19=15,26=3/3(-5);
 2/9=110/2;
 6/7=2,8=2,9=2,10=2,19=2,28=1,40=1/1,7;
 99/9=1/99;
 -----------
 1ltw_05_nbo
 -----------
 Structure from the checkpoint file:  "1ltw_05_nbo.chk"
 Charge =  0 Multiplicity = 5
 Redundant internal coordinates found in file.  (old form).
 Fe,0,35.4739341736,4.2898455241,10.459381731
 N,0,37.2460380346,3.8239570577,9.7278698478
 N,0,35.1183147622,5.5344018695,8.8456563465
 N,0,33.4950248011,4.5815619328,11.0229914157
 N,0,35.7369427326,3.0806908025,11.9821052295
 C,0,38.1822256673,3.0328035591,10.3114984645
 C,0,39.3847225993,2.9773250527,9.5050110078
 C,0,39.1527063367,3.7731858568,8.4230708877
 C,0,37.8132923067,4.3065985784,8.5875842474
 C,0,35.9882821696,5.7913827934,7.8371436078
 C,0,35.4200626045,6.7235324213,6.898616337
 C,0,34.1614103798,7.0205213952,7.3721936363
 C,0,33.9925078756,6.2422088405,8.583276652
 C,0,32.5941898026,5.4252030681,10.453581392
 C,0,31.3454517745,5.4042832029,11.184561379
 C,0,31.5318900018,4.5362332371,12.2312173016
 C,0,32.8945909597,4.0456208806,12.1063266908
 C,0,34.8298731592,2.7721737425,12.9526306905
 C,0,35.4208405677,1.8859230681,13.9286518213
 C,0,36.7032996421,1.6540550682,13.5148568408
 C,0,36.8736357146,2.399424378,12.2915601211
 C,0,38.0209663145,2.3704509973,11.5160351929
 H,0,38.8553404727,1.7780821703,11.8789305216
 C,0,37.2434122278,5.2101237041,7.7126954226
 H,0,37.8430837821,5.5063702958,6.8579094026
 C,0,32.825172074,6.2063265539,9.3332316803
 H,0,32.0167622687,6.856513166,9.015912293
 C,0,33.5160958216,3.2025596914,13.0132560152
 H,0,32.9320692541,2.8688510559,13.864926334
 C,0,40.054684034,4.0903608658,7.2771341016
 H,0,41.0019058555,3.5478506378,7.3484511151
 H,0,40.2929178441,5.1610726535,7.2367467408
 H,0,39.5956915064,3.8260630626,6.3158280298
 C,0,40.6040647545,2.193782585,9.8607247782
 H,0,40.3801431012,1.1255932731,9.979435485
 H,0,41.0401411145,2.537224188,10.807710306
 H,0,41.3785845827,2.2825075997,9.0933816128
 C,0,36.0689236247,7.1995657957,5.6430916773
 H,0,36.7054322127,6.4266225633,5.1985438909
 H,0,36.7003678448,8.0821813382,5.813451579
 H,0,35.3121384135,7.4799554483,4.9024199858
 C,0,33.145461103,7.8823145831,6.788957178
 H,0,32.1092866846,7.5830968564,6.9523596642
 C,0,33.3714026565,8.996585272,6.0787482756
 H,0,34.3727101299,9.3853563529,5.9166967961
 H,0,32.5502866837,9.5729516587,5.6610981455
 C,0,30.1100929635,6.1503881379,10.8095247314
 H,0,29.9994908466,6.2288710745,9.7221068109
 H,0,30.1073390018,7.1732020672,11.2102619492
 H,0,29.2220865756,5.6440975658,11.2031792229
 C,0,30.5958790811,4.1188563128,13.2625364422
 H,0,30.7111097372,3.0966265217,13.6264331587
 C,0,29.6208612516,4.8697453906,13.7942566358
 H,0,29.4792261363,5.9111324882,13.5193907187
 H,0,28.949189367,4.467777979,14.5480785899
 C,0,34.717080305,1.3564079992,15.1337317425
 H,0,33.8296643322,0.7714506639,14.8599491014
 H,0,34.3789432871,2.1673846547,15.7910344164
 H,0,35.3688727415,0.7058548356,15.7242625608
 C,0,37.7575504997,0.8093608043,14.1495556805
 H,0,38.0854055451,0.0006254421,13.4835033844
 H,0,37.3982031728,0.3466102618,15.0733758083
 H,0,38.6476660241,1.3994268834,14.4019527002
 C,0,32.3002354096,0.708299899,7.0702309873
 H,0,31.8480145232,-0.1829334598,7.5244425484
 H,0,32.6794614338,0.4219986737,6.0806075032
 H,0,31.503049784,1.4409057893,6.9182978879
 N,0,34.5014380354,0.611282516,8.3013090985
 H,0,34.7293076554,-0.336435351,8.0412557707
 C,0,33.3619399837,1.2979769497,7.9290283875
 C,0,35.2563257745,1.4306482589,9.0746148614
 H,0,36.2068474439,1.1562176127,9.509060964
 N,0,34.6661175391,2.5899558505,9.2159321633
 C,0,33.4939490235,2.5285525227,8.5167978864
 H,0,32.8226577296,3.374727871,8.4830005241
 O,0,36.7877581033,5.8617571639,11.4448711229
 O,0,35.5999562655,6.115931922,11.779954768
 Recover connectivity data from disk.

 GradGradGradGradGradGradGradGradGradGradGradGradGradGradGradGradGradGrad
 Berny optimization.
 Initialization pass.
                           ----------------------------
                           !    Initial Parameters    !
                           ! (Angstroms and Degrees)  !
 --------------------------                            --------------------------
 ! Name  Definition              Value          Derivative Info.                !
 --------------------------------------------------------------------------------
 ! R1    R(1,2)                  1.9729         estimate D2E/DX2                !
 ! R2    R(1,3)                  2.0687         estimate D2E/DX2                !
 ! R3    R(1,4)                  2.0782         estimate D2E/DX2                !
 ! R4    R(1,5)                  1.9621         estimate D2E/DX2                !
 ! R5    R(1,73)                 2.2557         estimate D2E/DX2                !
 ! R6    R(1,76)                 2.2734         estimate D2E/DX2                !
 ! R7    R(2,6)                  1.3576         estimate D2E/DX2                !
 ! R8    R(2,9)                  1.362          estimate D2E/DX2                !
 ! R9    R(3,10)                 1.3565         estimate D2E/DX2                !
 ! R10   R(3,13)                 1.3555         estimate D2E/DX2                !
 ! R11   R(4,14)                 1.3592         estimate D2E/DX2                !
 ! R12   R(4,17)                 1.3496         estimate D2E/DX2                !
 ! R13   R(5,18)                 1.3638         estimate D2E/DX2                !
 ! R14   R(5,21)                 1.3609         estimate D2E/DX2                !
 ! R15   R(6,7)                  1.449          estimate D2E/DX2                !
 ! R16   R(6,22)                 1.3841         estimate D2E/DX2                !
 ! R17   R(7,8)                  1.363          estimate D2E/DX2                !
 ! R18   R(7,34)                 1.4924         estimate D2E/DX2                !
 ! R19   R(8,9)                  1.4511         estimate D2E/DX2                !
 ! R20   R(8,30)                 1.4924         estimate D2E/DX2                !
 ! R21   R(9,24)                 1.3808         estimate D2E/DX2                !
 ! R22   R(10,11)                1.4397         estimate D2E/DX2                !
 ! R23   R(10,24)                1.3888         estimate D2E/DX2                !
 ! R24   R(11,12)                1.3772         estimate D2E/DX2                !
 ! R25   R(11,38)                1.4913         estimate D2E/DX2                !
 ! R26   R(12,13)                1.4495         estimate D2E/DX2                !
 ! R27   R(12,42)                1.4543         estimate D2E/DX2                !
 ! R28   R(13,26)                1.3879         estimate D2E/DX2                !
 ! R29   R(14,15)                1.4471         estimate D2E/DX2                !
 ! R30   R(14,26)                1.3852         estimate D2E/DX2                !
 ! R31   R(15,16)                1.3725         estimate D2E/DX2                !
 ! R32   R(15,47)                1.4911         estimate D2E/DX2                !
 ! R33   R(16,17)                1.4537         estimate D2E/DX2                !
 ! R34   R(16,51)                1.4539         estimate D2E/DX2                !
 ! R35   R(17,28)                1.3855         estimate D2E/DX2                !
 ! R36   R(18,19)                1.4447         estimate D2E/DX2                !
 ! R37   R(18,28)                1.3838         estimate D2E/DX2                !
 ! R38   R(19,20)                1.3674         estimate D2E/DX2                !
 ! R39   R(19,56)                1.4926         estimate D2E/DX2                !
 ! R40   R(20,21)                1.4426         estimate D2E/DX2                !
 ! R41   R(20,60)                1.4926         estimate D2E/DX2                !
 ! R42   R(21,22)                1.3852         estimate D2E/DX2                !
 ! R43   R(22,23)                1.0857         estimate D2E/DX2                !
 ! R44   R(24,25)                1.0854         estimate D2E/DX2                !
 ! R45   R(26,27)                1.0849         estimate D2E/DX2                !
 ! R46   R(28,29)                1.0853         estimate D2E/DX2                !
 ! R47   R(30,31)                1.0939         estimate D2E/DX2                !
 ! R48   R(30,32)                1.0976         estimate D2E/DX2                !
 ! R49   R(30,33)                1.0976         estimate D2E/DX2                !
 ! R50   R(34,35)                1.0978         estimate D2E/DX2                !
 ! R51   R(34,36)                1.0977         estimate D2E/DX2                !
 ! R52   R(34,37)                1.0939         estimate D2E/DX2                !
 ! R53   R(38,39)                1.0955         estimate D2E/DX2                !
 ! R54   R(38,40)                1.0985         estimate D2E/DX2                !
 ! R55   R(38,41)                1.0954         estimate D2E/DX2                !
 ! R56   R(42,43)                1.0908         estimate D2E/DX2                !
 ! R57   R(42,44)                1.3405         estimate D2E/DX2                !
 ! R58   R(44,45)                1.0863         estimate D2E/DX2                !
 ! R59   R(44,46)                1.0867         estimate D2E/DX2                !
 ! R60   R(47,48)                1.0958         estimate D2E/DX2                !
 ! R61   R(47,49)                1.0985         estimate D2E/DX2                !
 ! R62   R(47,50)                1.0954         estimate D2E/DX2                !
 ! R63   R(51,52)                1.0912         estimate D2E/DX2                !
 ! R64   R(51,53)                1.3406         estimate D2E/DX2                !
 ! R65   R(53,54)                1.0863         estimate D2E/DX2                !
 ! R66   R(53,55)                1.0867         estimate D2E/DX2                !
 ! R67   R(56,57)                1.0976         estimate D2E/DX2                !
 ! R68   R(56,58)                1.0973         estimate D2E/DX2                !
 ! R69   R(56,59)                1.094          estimate D2E/DX2                !
 ! R70   R(60,61)                1.0978         estimate D2E/DX2                !
 ! R71   R(60,62)                1.0939         estimate D2E/DX2                !
 ! R72   R(60,63)                1.0974         estimate D2E/DX2                !
 ! R73   R(64,65)                1.0978         estimate D2E/DX2                !
 ! R74   R(64,66)                1.0978         estimate D2E/DX2                !
 ! R75   R(64,67)                1.0933         estimate D2E/DX2                !
 ! R76   R(64,70)                1.4874         estimate D2E/DX2                !
 ! R77   R(68,69)                1.0088         estimate D2E/DX2                !
 ! R78   R(68,70)                1.3815         estimate D2E/DX2                !
 ! R79   R(68,71)                1.3562         estimate D2E/DX2                !
 ! R80   R(70,74)                1.3701         estimate D2E/DX2                !
 ! R81   R(71,72)                1.0805         estimate D2E/DX2                !
 ! R82   R(71,73)                1.3086         estimate D2E/DX2                !
 ! R83   R(73,74)                1.3662         estimate D2E/DX2                !
 ! R84   R(74,75)                1.0806         estimate D2E/DX2                !
 ! R85   R(76,77)                1.2601         estimate D2E/DX2                !
 ! A1    A(2,1,3)               90.415          estimate D2E/DX2                !
 ! A2    A(2,1,4)              171.493          estimate D2E/DX2                !
 ! A3    A(2,1,5)               91.2505         estimate D2E/DX2                !
 ! A4    A(2,1,73)              86.5216         estimate D2E/DX2                !
 ! A5    A(2,1,76)              78.7504         estimate D2E/DX2                !
 ! A6    A(3,1,4)               87.9033         estimate D2E/DX2                !
 ! A7    A(3,1,73)              87.8108         estimate D2E/DX2                !
 ! A8    A(3,1,76)              91.233          estimate D2E/DX2                !
 ! A9    A(4,1,5)               90.2105         estimate D2E/DX2                !
 ! A10   A(4,1,73)              85.082          estimate D2E/DX2                !
 ! A11   A(4,1,76)             109.6144         estimate D2E/DX2                !
 ! A12   A(5,1,73)              90.6533         estimate D2E/DX2                !
 ! A13   A(5,1,76)              90.7002         estimate D2E/DX2                !
 ! A14   A(1,2,6)              126.6999         estimate D2E/DX2                !
 ! A15   A(1,2,9)              126.9299         estimate D2E/DX2                !
 ! A16   A(6,2,9)              106.2143         estimate D2E/DX2                !
 ! A17   A(1,3,10)             125.711          estimate D2E/DX2                !
 ! A18   A(1,3,13)             127.4404         estimate D2E/DX2                !
 ! A19   A(10,3,13)            106.8484         estimate D2E/DX2                !
 ! A20   A(1,4,14)             127.2011         estimate D2E/DX2                !
 ! A21   A(1,4,17)             125.846          estimate D2E/DX2                !
 ! A22   A(14,4,17)            106.7322         estimate D2E/DX2                !
 ! A23   A(1,5,18)             127.0518         estimate D2E/DX2                !
 ! A24   A(1,5,21)             126.6508         estimate D2E/DX2                !
 ! A25   A(18,5,21)            106.2888         estimate D2E/DX2                !
 ! A26   A(2,6,7)              110.8139         estimate D2E/DX2                !
 ! A27   A(2,6,22)             124.9378         estimate D2E/DX2                !
 ! A28   A(7,6,22)             124.2476         estimate D2E/DX2                !
 ! A29   A(6,7,8)              106.1523         estimate D2E/DX2                !
 ! A30   A(6,7,34)             124.4366         estimate D2E/DX2                !
 ! A31   A(8,7,34)             129.4075         estimate D2E/DX2                !
 ! A32   A(7,8,9)              106.3658         estimate D2E/DX2                !
 ! A33   A(7,8,30)             129.1024         estimate D2E/DX2                !
 ! A34   A(9,8,30)             124.5268         estimate D2E/DX2                !
 ! A35   A(2,9,8)              110.4322         estimate D2E/DX2                !
 ! A36   A(2,9,24)             126.1906         estimate D2E/DX2                !
 ! A37   A(8,9,24)             123.3443         estimate D2E/DX2                !
 ! A38   A(3,10,11)            110.7455         estimate D2E/DX2                !
 ! A39   A(3,10,24)            124.5388         estimate D2E/DX2                !
 ! A40   A(11,10,24)           124.7006         estimate D2E/DX2                !
 ! A41   A(10,11,12)           106.0318         estimate D2E/DX2                !
 ! A42   A(10,11,38)           125.7179         estimate D2E/DX2                !
 ! A43   A(12,11,38)           128.193          estimate D2E/DX2                !
 ! A44   A(11,12,13)           106.1417         estimate D2E/DX2                !
 ! A45   A(11,12,42)           128.9269         estimate D2E/DX2                !
 ! A46   A(13,12,42)           124.8805         estimate D2E/DX2                !
 ! A47   A(3,13,12)            110.2028         estimate D2E/DX2                !
 ! A48   A(3,13,26)            125.4829         estimate D2E/DX2                !
 ! A49   A(12,13,26)           124.2877         estimate D2E/DX2                !
 ! A50   A(4,14,15)            110.5684         estimate D2E/DX2                !
 ! A51   A(4,14,26)            125.3333         estimate D2E/DX2                !
 ! A52   A(15,14,26)           124.0979         estimate D2E/DX2                !
 ! A53   A(14,15,16)           106.0892         estimate D2E/DX2                !
 ! A54   A(14,15,47)           125.4948         estimate D2E/DX2                !
 ! A55   A(16,15,47)           128.3747         estimate D2E/DX2                !
 ! A56   A(15,16,17)           105.978          estimate D2E/DX2                !
 ! A57   A(15,16,51)           129.4225         estimate D2E/DX2                !
 ! A58   A(17,16,51)           124.5784         estimate D2E/DX2                !
 ! A59   A(4,17,16)            110.6092         estimate D2E/DX2                !
 ! A60   A(4,17,28)            124.5779         estimate D2E/DX2                !
 ! A61   A(16,17,28)           124.7244         estimate D2E/DX2                !
 ! A62   A(5,18,19)            110.3328         estimate D2E/DX2                !
 ! A63   A(5,18,28)            126.3188         estimate D2E/DX2                !
 ! A64   A(19,18,28)           123.3351         estimate D2E/DX2                !
 ! A65   A(18,19,20)           106.4528         estimate D2E/DX2                !
 ! A66   A(18,19,56)           124.7629         estimate D2E/DX2                !
 ! A67   A(20,19,56)           128.7841         estimate D2E/DX2                !
 ! A68   A(19,20,21)           106.2452         estimate D2E/DX2                !
 ! A69   A(19,20,60)           129.0316         estimate D2E/DX2                !
 ! A70   A(21,20,60)           124.7227         estimate D2E/DX2                !
 ! A71   A(5,21,20)            110.6626         estimate D2E/DX2                !
 ! A72   A(5,21,22)            125.1008         estimate D2E/DX2                !
 ! A73   A(20,21,22)           124.1785         estimate D2E/DX2                !
 ! A74   A(6,22,21)            125.0129         estimate D2E/DX2                !
 ! A75   A(6,22,23)            117.5456         estimate D2E/DX2                !
 ! A76   A(21,22,23)           117.4406         estimate D2E/DX2                !
 ! A77   A(9,24,10)            126.1643         estimate D2E/DX2                !
 ! A78   A(9,24,25)            116.7168         estimate D2E/DX2                !
 ! A79   A(10,24,25)           117.108          estimate D2E/DX2                !
 ! A80   A(13,26,14)           126.2892         estimate D2E/DX2                !
 ! A81   A(13,26,27)           116.948          estimate D2E/DX2                !
 ! A82   A(14,26,27)           116.7618         estimate D2E/DX2                !
 ! A83   A(17,28,18)           125.9062         estimate D2E/DX2                !
 ! A84   A(17,28,29)           117.3489         estimate D2E/DX2                !
 ! A85   A(18,28,29)           116.7217         estimate D2E/DX2                !
 ! A86   A(8,30,31)            111.5844         estimate D2E/DX2                !
 ! A87   A(8,30,32)            111.5144         estimate D2E/DX2                !
 ! A88   A(8,30,33)            111.6289         estimate D2E/DX2                !
 ! A89   A(31,30,32)           107.3515         estimate D2E/DX2                !
 ! A90   A(31,30,33)           107.4452         estimate D2E/DX2                !
 ! A91   A(32,30,33)           107.0638         estimate D2E/DX2                !
 ! A92   A(7,34,35)            111.7135         estimate D2E/DX2                !
 ! A93   A(7,34,36)            111.4657         estimate D2E/DX2                !
 ! A94   A(7,34,37)            111.6364         estimate D2E/DX2                !
 ! A95   A(35,34,36)           106.988          estimate D2E/DX2                !
 ! A96   A(35,34,37)           107.4089         estimate D2E/DX2                !
 ! A97   A(36,34,37)           107.3688         estimate D2E/DX2                !
 ! A98   A(11,38,39)           111.6666         estimate D2E/DX2                !
 ! A99   A(11,38,40)           112.0865         estimate D2E/DX2                !
 ! A100  A(11,38,41)           110.5098         estimate D2E/DX2                !
 ! A101  A(39,38,40)           107.2074         estimate D2E/DX2                !
 ! A102  A(39,38,41)           107.9156         estimate D2E/DX2                !
 ! A103  A(40,38,41)           107.2366         estimate D2E/DX2                !
 ! A104  A(12,42,43)           116.1652         estimate D2E/DX2                !
 ! A105  A(12,42,44)           125.9646         estimate D2E/DX2                !
 ! A106  A(43,42,44)           117.8701         estimate D2E/DX2                !
 ! A107  A(42,44,45)           122.1323         estimate D2E/DX2                !
 ! A108  A(42,44,46)           121.1401         estimate D2E/DX2                !
 ! A109  A(45,44,46)           116.7022         estimate D2E/DX2                !
 ! A110  A(15,47,48)           111.656          estimate D2E/DX2                !
 ! A111  A(15,47,49)           112.099          estimate D2E/DX2                !
 ! A112  A(15,47,50)           110.4857         estimate D2E/DX2                !
 ! A113  A(48,47,49)           107.1609         estimate D2E/DX2                !
 ! A114  A(48,47,50)           107.9325         estimate D2E/DX2                !
 ! A115  A(49,47,50)           107.2907         estimate D2E/DX2                !
 ! A116  A(16,51,52)           115.9445         estimate D2E/DX2                !
 ! A117  A(16,51,53)           126.0695         estimate D2E/DX2                !
 ! A118  A(52,51,53)           117.9861         estimate D2E/DX2                !
 ! A119  A(51,53,54)           122.1009         estimate D2E/DX2                !
 ! A120  A(51,53,55)           121.1625         estimate D2E/DX2                !
 ! A121  A(54,53,55)           116.7128         estimate D2E/DX2                !
 ! A122  A(19,56,57)           111.6478         estimate D2E/DX2                !
 ! A123  A(19,56,58)           111.5141         estimate D2E/DX2                !
 ! A124  A(19,56,59)           111.4607         estimate D2E/DX2                !
 ! A125  A(57,56,58)           107.1074         estimate D2E/DX2                !
 ! A126  A(57,56,59)           107.4242         estimate D2E/DX2                !
 ! A127  A(58,56,59)           107.4424         estimate D2E/DX2                !
 ! A128  A(20,60,61)           111.7069         estimate D2E/DX2                !
 ! A129  A(20,60,62)           111.4987         estimate D2E/DX2                !
 ! A130  A(20,60,63)           111.4957         estimate D2E/DX2                !
 ! A131  A(61,60,62)           107.3878         estimate D2E/DX2                !
 ! A132  A(61,60,63)           107.0634         estimate D2E/DX2                !
 ! A133  A(62,60,63)           107.4382         estimate D2E/DX2                !
 ! A134  A(65,64,66)           107.6718         estimate D2E/DX2                !
 ! A135  A(65,64,67)           107.5262         estimate D2E/DX2                !
 ! A136  A(65,64,70)           112.1479         estimate D2E/DX2                !
 ! A137  A(66,64,67)           107.5397         estimate D2E/DX2                !
 ! A138  A(66,64,70)           112.1664         estimate D2E/DX2                !
 ! A139  A(67,64,70)           109.5753         estimate D2E/DX2                !
 ! A140  A(69,68,70)           125.7178         estimate D2E/DX2                !
 ! A141  A(69,68,71)           126.0745         estimate D2E/DX2                !
 ! A142  A(70,68,71)           108.2077         estimate D2E/DX2                !
 ! A143  A(64,70,68)           123.1798         estimate D2E/DX2                !
 ! A144  A(64,70,74)           132.262          estimate D2E/DX2                !
 ! A145  A(68,70,74)           104.5582         estimate D2E/DX2                !
 ! A146  A(68,71,72)           124.4351         estimate D2E/DX2                !
 ! A147  A(68,71,73)           110.2296         estimate D2E/DX2                !
 ! A148  A(72,71,73)           125.3352         estimate D2E/DX2                !
 ! A149  A(1,73,71)            124.4469         estimate D2E/DX2                !
 ! A150  A(1,73,74)            128.5508         estimate D2E/DX2                !
 ! A151  A(71,73,74)           106.9714         estimate D2E/DX2                !
 ! A152  A(70,74,73)           110.0329         estimate D2E/DX2                !
 ! A153  A(70,74,75)           129.0512         estimate D2E/DX2                !
 ! A154  A(73,74,75)           120.9159         estimate D2E/DX2                !
 ! A155  A(1,76,77)             73.1406         estimate D2E/DX2                !
 ! A156  L(3,1,5,2,-1)         181.6654         estimate D2E/DX2                !
 ! A157  L(73,1,76,2,-1)       165.2719         estimate D2E/DX2                !
 ! A158  L(3,1,5,2,-2)         181.6399         estimate D2E/DX2                !
 ! A159  L(73,1,76,2,-2)       178.9561         estimate D2E/DX2                !
 ! D1    D(3,1,2,6)            176.4073         estimate D2E/DX2                !
 ! D2    D(3,1,2,9)              1.5824         estimate D2E/DX2                !
 ! D3    D(4,1,2,6)           -105.0654         estimate D2E/DX2                !
 ! D4    D(4,1,2,9)             80.1098         estimate D2E/DX2                !
 ! D5    D(5,1,2,6)             -5.2327         estimate D2E/DX2                !
 ! D6    D(5,1,2,9)            179.9425         estimate D2E/DX2                !
 ! D7    D(73,1,2,6)           -95.8113         estimate D2E/DX2                !
 ! D8    D(73,1,2,9)            89.3639         estimate D2E/DX2                !
 ! D9    D(76,1,2,6)            85.2326         estimate D2E/DX2                !
 ! D10   D(76,1,2,9)           -89.5922         estimate D2E/DX2                !
 ! D11   D(2,1,3,10)            -2.4307         estimate D2E/DX2                !
 ! D12   D(2,1,3,13)           177.4123         estimate D2E/DX2                !
 ! D13   D(4,1,3,10)          -174.0893         estimate D2E/DX2                !
 ! D14   D(4,1,3,13)             5.7537         estimate D2E/DX2                !
 ! D15   D(73,1,3,10)          -88.9338         estimate D2E/DX2                !
 ! D16   D(73,1,3,13)           90.9093         estimate D2E/DX2                !
 ! D17   D(76,1,3,10)           76.3258         estimate D2E/DX2                !
 ! D18   D(76,1,3,13)         -103.8312         estimate D2E/DX2                !
 ! D19   D(2,1,4,14)           -84.4348         estimate D2E/DX2                !
 ! D20   D(2,1,4,17)           101.6917         estimate D2E/DX2                !
 ! D21   D(3,1,4,14)            -5.7243         estimate D2E/DX2                !
 ! D22   D(3,1,4,17)          -179.5978         estimate D2E/DX2                !
 ! D23   D(5,1,4,14)           175.6563         estimate D2E/DX2                !
 ! D24   D(5,1,4,17)             1.7828         estimate D2E/DX2                !
 ! D25   D(73,1,4,14)          -93.7062         estimate D2E/DX2                !
 ! D26   D(73,1,4,17)           92.4204         estimate D2E/DX2                !
 ! D27   D(76,1,4,14)           84.8379         estimate D2E/DX2                !
 ! D28   D(76,1,4,17)          -89.0355         estimate D2E/DX2                !
 ! D29   D(2,1,5,18)          -174.8653         estimate D2E/DX2                !
 ! D30   D(2,1,5,21)             6.3528         estimate D2E/DX2                !
 ! D31   D(4,1,5,18)            -3.2465         estimate D2E/DX2                !
 ! D32   D(4,1,5,21)           177.9716         estimate D2E/DX2                !
 ! D33   D(73,1,5,18)          -88.3305         estimate D2E/DX2                !
 ! D34   D(73,1,5,21)           92.8876         estimate D2E/DX2                !
 ! D35   D(76,1,5,18)          106.3723         estimate D2E/DX2                !
 ! D36   D(76,1,5,21)          -72.4096         estimate D2E/DX2                !
 ! D37   D(2,1,73,71)           41.1243         estimate D2E/DX2                !
 ! D38   D(2,1,73,74)         -141.1683         estimate D2E/DX2                !
 ! D39   D(3,1,73,71)          131.6735         estimate D2E/DX2                !
 ! D40   D(3,1,73,74)          -50.6192         estimate D2E/DX2                !
 ! D41   D(4,1,73,71)         -140.2439         estimate D2E/DX2                !
 ! D42   D(4,1,73,74)           37.4635         estimate D2E/DX2                !
 ! D43   D(5,1,73,71)          -50.0889         estimate D2E/DX2                !
 ! D44   D(5,1,73,74)          127.6185         estimate D2E/DX2                !
 ! D45   D(2,1,76,77)          175.9991         estimate D2E/DX2                !
 ! D46   D(3,1,76,77)           85.8212         estimate D2E/DX2                !
 ! D47   D(4,1,76,77)           -2.3921         estimate D2E/DX2                !
 ! D48   D(5,1,76,77)          -92.8651         estimate D2E/DX2                !
 ! D49   D(1,2,6,7)           -177.0718         estimate D2E/DX2                !
 ! D50   D(1,2,6,22)             2.6444         estimate D2E/DX2                !
 ! D51   D(9,2,6,7)             -1.3783         estimate D2E/DX2                !
 ! D52   D(9,2,6,22)           178.3379         estimate D2E/DX2                !
 ! D53   D(1,2,9,8)            177.1793         estimate D2E/DX2                !
 ! D54   D(1,2,9,24)            -0.7806         estimate D2E/DX2                !
 ! D55   D(6,2,9,8)              1.4987         estimate D2E/DX2                !
 ! D56   D(6,2,9,24)          -176.4611         estimate D2E/DX2                !
 ! D57   D(1,3,10,11)         -178.8148         estimate D2E/DX2                !
 ! D58   D(1,3,10,24)            2.5447         estimate D2E/DX2                !
 ! D59   D(13,3,10,11)           1.3154         estimate D2E/DX2                !
 ! D60   D(13,3,10,24)        -177.3251         estimate D2E/DX2                !
 ! D61   D(1,3,13,12)          178.3521         estimate D2E/DX2                !
 ! D62   D(1,3,13,26)           -3.4627         estimate D2E/DX2                !
 ! D63   D(10,3,13,12)          -1.7811         estimate D2E/DX2                !
 ! D64   D(10,3,13,26)         176.4041         estimate D2E/DX2                !
 ! D65   D(1,4,14,15)         -176.3719         estimate D2E/DX2                !
 ! D66   D(1,4,14,26)            3.4056         estimate D2E/DX2                !
 ! D67   D(17,4,14,15)          -1.5548         estimate D2E/DX2                !
 ! D68   D(17,4,14,26)         178.2227         estimate D2E/DX2                !
 ! D69   D(1,4,17,16)          176.3335         estimate D2E/DX2                !
 ! D70   D(1,4,17,28)           -0.3801         estimate D2E/DX2                !
 ! D71   D(14,4,17,16)           1.4262         estimate D2E/DX2                !
 ! D72   D(14,4,17,28)        -175.2874         estimate D2E/DX2                !
 ! D73   D(1,5,18,19)         -177.7172         estimate D2E/DX2                !
 ! D74   D(1,5,18,28)            3.5832         estimate D2E/DX2                !
 ! D75   D(21,5,18,19)           1.2647         estimate D2E/DX2                !
 ! D76   D(21,5,18,28)        -177.4349         estimate D2E/DX2                !
 ! D77   D(1,5,21,20)          177.6272         estimate D2E/DX2                !
 ! D78   D(1,5,21,22)           -5.0532         estimate D2E/DX2                !
 ! D79   D(18,5,21,20)          -1.3601         estimate D2E/DX2                !
 ! D80   D(18,5,21,22)         175.9596         estimate D2E/DX2                !
 ! D81   D(2,6,7,8)              0.7323         estimate D2E/DX2                !
 ! D82   D(2,6,7,34)          -179.897          estimate D2E/DX2                !
 ! D83   D(22,6,7,8)          -178.9862         estimate D2E/DX2                !
 ! D84   D(22,6,7,34)            0.3844         estimate D2E/DX2                !
 ! D85   D(2,6,22,21)            1.1352         estimate D2E/DX2                !
 ! D86   D(2,6,22,23)         -179.2206         estimate D2E/DX2                !
 ! D87   D(7,6,22,21)         -179.1857         estimate D2E/DX2                !
 ! D88   D(7,6,22,23)            0.4585         estimate D2E/DX2                !
 ! D89   D(6,7,8,9)              0.1957         estimate D2E/DX2                !
 ! D90   D(6,7,8,30)           179.3964         estimate D2E/DX2                !
 ! D91   D(34,7,8,9)          -179.1326         estimate D2E/DX2                !
 ! D92   D(34,7,8,30)            0.0682         estimate D2E/DX2                !
 ! D93   D(6,7,34,35)           58.407          estimate D2E/DX2                !
 ! D94   D(6,7,34,36)          -61.2307         estimate D2E/DX2                !
 ! D95   D(6,7,34,37)          178.6992         estimate D2E/DX2                !
 ! D96   D(8,7,34,35)         -122.3754         estimate D2E/DX2                !
 ! D97   D(8,7,34,36)          117.9869         estimate D2E/DX2                !
 ! D98   D(8,7,34,37)           -2.0832         estimate D2E/DX2                !
 ! D99   D(7,8,9,2)             -1.0666         estimate D2E/DX2                !
 ! D100  D(7,8,9,24)           176.9624         estimate D2E/DX2                !
 ! D101  D(30,8,9,2)           179.6862         estimate D2E/DX2                !
 ! D102  D(30,8,9,24)           -2.2848         estimate D2E/DX2                !
 ! D103  D(7,8,30,31)            2.7988         estimate D2E/DX2                !
 ! D104  D(7,8,30,32)         -117.2471         estimate D2E/DX2                !
 ! D105  D(7,8,30,33)          123.043          estimate D2E/DX2                !
 ! D106  D(9,8,30,31)         -178.1321         estimate D2E/DX2                !
 ! D107  D(9,8,30,32)           61.822          estimate D2E/DX2                !
 ! D108  D(9,8,30,33)          -57.8879         estimate D2E/DX2                !
 ! D109  D(2,9,24,10)            0.0356         estimate D2E/DX2                !
 ! D110  D(2,9,24,25)          178.7954         estimate D2E/DX2                !
 ! D111  D(8,9,24,10)         -177.6757         estimate D2E/DX2                !
 ! D112  D(8,9,24,25)            1.0841         estimate D2E/DX2                !
 ! D113  D(3,10,11,12)          -0.3271         estimate D2E/DX2                !
 ! D114  D(3,10,11,38)        -177.7573         estimate D2E/DX2                !
 ! D115  D(24,10,11,12)        178.3108         estimate D2E/DX2                !
 ! D116  D(24,10,11,38)          0.8806         estimate D2E/DX2                !
 ! D117  D(3,10,24,9)           -1.0275         estimate D2E/DX2                !
 ! D118  D(3,10,24,25)        -179.783          estimate D2E/DX2                !
 ! D119  D(11,10,24,9)        -179.4811         estimate D2E/DX2                !
 ! D120  D(11,10,24,25)          1.7634         estimate D2E/DX2                !
 ! D121  D(10,11,12,13)         -0.7333         estimate D2E/DX2                !
 ! D122  D(10,11,12,42)       -178.2032         estimate D2E/DX2                !
 ! D123  D(38,11,12,13)        176.612          estimate D2E/DX2                !
 ! D124  D(38,11,12,42)         -0.858          estimate D2E/DX2                !
 ! D125  D(10,11,38,39)         32.3904         estimate D2E/DX2                !
 ! D126  D(10,11,38,40)        -87.9235         estimate D2E/DX2                !
 ! D127  D(10,11,38,41)        152.5239         estimate D2E/DX2                !
 ! D128  D(12,11,38,39)       -144.4665         estimate D2E/DX2                !
 ! D129  D(12,11,38,40)         95.2196         estimate D2E/DX2                !
 ! D130  D(12,11,38,41)        -24.333          estimate D2E/DX2                !
 ! D131  D(11,12,13,3)           1.592          estimate D2E/DX2                !
 ! D132  D(11,12,13,26)       -176.6194         estimate D2E/DX2                !
 ! D133  D(42,12,13,3)         179.1928         estimate D2E/DX2                !
 ! D134  D(42,12,13,26)          0.9814         estimate D2E/DX2                !
 ! D135  D(11,12,42,43)        146.6763         estimate D2E/DX2                !
 ! D136  D(11,12,42,44)        -33.3485         estimate D2E/DX2                !
 ! D137  D(13,12,42,43)        -30.3608         estimate D2E/DX2                !
 ! D138  D(13,12,42,44)        149.6144         estimate D2E/DX2                !
 ! D139  D(3,13,26,14)          -1.6163         estimate D2E/DX2                !
 ! D140  D(3,13,26,27)         178.0047         estimate D2E/DX2                !
 ! D141  D(12,13,26,14)        176.3223         estimate D2E/DX2                !
 ! D142  D(12,13,26,27)         -4.0568         estimate D2E/DX2                !
 ! D143  D(4,14,15,16)           1.0922         estimate D2E/DX2                !
 ! D144  D(4,14,15,47)        -176.7317         estimate D2E/DX2                !
 ! D145  D(26,14,15,16)       -178.6886         estimate D2E/DX2                !
 ! D146  D(26,14,15,47)          3.4875         estimate D2E/DX2                !
 ! D147  D(4,14,26,13)           1.6273         estimate D2E/DX2                !
 ! D148  D(4,14,26,27)        -177.9943         estimate D2E/DX2                !
 ! D149  D(15,14,26,13)       -178.6243         estimate D2E/DX2                !
 ! D150  D(15,14,26,27)          1.7541         estimate D2E/DX2                !
 ! D151  D(14,15,16,17)         -0.196          estimate D2E/DX2                !
 ! D152  D(14,15,16,51)       -178.5594         estimate D2E/DX2                !
 ! D153  D(47,15,16,17)        177.5441         estimate D2E/DX2                !
 ! D154  D(47,15,16,51)         -0.8194         estimate D2E/DX2                !
 ! D155  D(14,15,47,48)         33.7107         estimate D2E/DX2                !
 ! D156  D(14,15,47,49)        -86.5448         estimate D2E/DX2                !
 ! D157  D(14,15,47,50)        153.8422         estimate D2E/DX2                !
 ! D158  D(16,15,47,48)       -143.622          estimate D2E/DX2                !
 ! D159  D(16,15,47,49)         96.1225         estimate D2E/DX2                !
 ! D160  D(16,15,47,50)        -23.4905         estimate D2E/DX2                !
 ! D161  D(15,16,17,4)          -0.7586         estimate D2E/DX2                !
 ! D162  D(15,16,17,28)        175.9492         estimate D2E/DX2                !
 ! D163  D(51,16,17,4)         177.706          estimate D2E/DX2                !
 ! D164  D(51,16,17,28)         -5.5862         estimate D2E/DX2                !
 ! D165  D(15,16,51,52)        147.1165         estimate D2E/DX2                !
 ! D166  D(15,16,51,53)        -32.8653         estimate D2E/DX2                !
 ! D167  D(17,16,51,52)        -30.9726         estimate D2E/DX2                !
 ! D168  D(17,16,51,53)        149.0456         estimate D2E/DX2                !
 ! D169  D(4,17,28,18)          -0.4551         estimate D2E/DX2                !
 ! D170  D(4,17,28,29)         177.7268         estimate D2E/DX2                !
 ! D171  D(16,17,28,18)       -176.7119         estimate D2E/DX2                !
 ! D172  D(16,17,28,29)          1.47           estimate D2E/DX2                !
 ! D173  D(5,18,19,20)          -0.6964         estimate D2E/DX2                !
 ! D174  D(5,18,19,56)         179.4293         estimate D2E/DX2                !
 ! D175  D(28,18,19,20)        178.0495         estimate D2E/DX2                !
 ! D176  D(28,18,19,56)         -1.8248         estimate D2E/DX2                !
 ! D177  D(5,18,28,17)          -1.199          estimate D2E/DX2                !
 ! D178  D(5,18,28,29)        -179.391          estimate D2E/DX2                !
 ! D179  D(19,18,28,17)       -179.7395         estimate D2E/DX2                !
 ! D180  D(19,18,28,29)          2.0685         estimate D2E/DX2                !
 ! D181  D(18,19,20,21)         -0.1415         estimate D2E/DX2                !
 ! D182  D(18,19,20,60)       -179.8892         estimate D2E/DX2                !
 ! D183  D(56,19,20,21)        179.726          estimate D2E/DX2                !
 ! D184  D(56,19,20,60)         -0.0217         estimate D2E/DX2                !
 ! D185  D(18,19,56,57)         59.9252         estimate D2E/DX2                !
 ! D186  D(18,19,56,58)        -59.8527         estimate D2E/DX2                !
 ! D187  D(18,19,56,59)       -179.9297         estimate D2E/DX2                !
 ! D188  D(20,19,56,57)       -119.9201         estimate D2E/DX2                !
 ! D189  D(20,19,56,58)        120.3019         estimate D2E/DX2                !
 ! D190  D(20,19,56,59)          0.225          estimate D2E/DX2                !
 ! D191  D(19,20,21,5)           0.9441         estimate D2E/DX2                !
 ! D192  D(19,20,21,22)       -176.4052         estimate D2E/DX2                !
 ! D193  D(60,20,21,5)        -179.2943         estimate D2E/DX2                !
 ! D194  D(60,20,21,22)          3.3563         estimate D2E/DX2                !
 ! D195  D(19,20,60,61)        119.5294         estimate D2E/DX2                !
 ! D196  D(19,20,60,62)         -0.6359         estimate D2E/DX2                !
 ! D197  D(19,20,60,63)       -120.7209         estimate D2E/DX2                !
 ! D198  D(21,20,60,61)        -60.1759         estimate D2E/DX2                !
 ! D199  D(21,20,60,62)        179.6588         estimate D2E/DX2                !
 ! D200  D(21,20,60,63)         59.5738         estimate D2E/DX2                !
 ! D201  D(5,21,22,6)            0.1264         estimate D2E/DX2                !
 ! D202  D(5,21,22,23)        -179.5181         estimate D2E/DX2                !
 ! D203  D(20,21,22,6)         177.0946         estimate D2E/DX2                !
 ! D204  D(20,21,22,23)         -2.5499         estimate D2E/DX2                !
 ! D205  D(12,42,44,45)         -3.1144         estimate D2E/DX2                !
 ! D206  D(12,42,44,46)        178.7804         estimate D2E/DX2                !
 ! D207  D(43,42,44,45)        176.8605         estimate D2E/DX2                !
 ! D208  D(43,42,44,46)         -1.2447         estimate D2E/DX2                !
 ! D209  D(16,51,53,54)         -3.2707         estimate D2E/DX2                !
 ! D210  D(16,51,53,55)        178.562          estimate D2E/DX2                !
 ! D211  D(52,51,53,54)        176.7479         estimate D2E/DX2                !
 ! D212  D(52,51,53,55)         -1.4195         estimate D2E/DX2                !
 ! D213  D(65,64,70,68)         60.5128         estimate D2E/DX2                !
 ! D214  D(65,64,70,74)       -119.5271         estimate D2E/DX2                !
 ! D215  D(66,64,70,68)        -60.8014         estimate D2E/DX2                !
 ! D216  D(66,64,70,74)        119.1587         estimate D2E/DX2                !
 ! D217  D(67,64,70,68)        179.8413         estimate D2E/DX2                !
 ! D218  D(67,64,70,74)         -0.1986         estimate D2E/DX2                !
 ! D219  D(69,68,70,64)         -0.167          estimate D2E/DX2                !
 ! D220  D(69,68,70,74)        179.8635         estimate D2E/DX2                !
 ! D221  D(71,68,70,64)        179.8586         estimate D2E/DX2                !
 ! D222  D(71,68,70,74)         -0.1109         estimate D2E/DX2                !
 ! D223  D(69,68,71,72)         -0.0047         estimate D2E/DX2                !
 ! D224  D(69,68,71,73)       -179.8985         estimate D2E/DX2                !
 ! D225  D(70,68,71,72)        179.9696         estimate D2E/DX2                !
 ! D226  D(70,68,71,73)          0.0757         estimate D2E/DX2                !
 ! D227  D(64,70,74,73)       -179.8564         estimate D2E/DX2                !
 ! D228  D(64,70,74,75)          0.1414         estimate D2E/DX2                !
 ! D229  D(68,70,74,73)          0.1092         estimate D2E/DX2                !
 ! D230  D(68,70,74,75)       -179.8931         estimate D2E/DX2                !
 ! D231  D(68,71,73,1)         178.1191         estimate D2E/DX2                !
 ! D232  D(68,71,73,74)         -0.0065         estimate D2E/DX2                !
 ! D233  D(72,71,73,1)          -1.7736         estimate D2E/DX2                !
 ! D234  D(72,71,73,74)       -179.8992         estimate D2E/DX2                !
 ! D235  D(1,73,74,70)        -178.0899         estimate D2E/DX2                !
 ! D236  D(1,73,74,75)           1.9121         estimate D2E/DX2                !
 ! D237  D(71,73,74,70)         -0.0665         estimate D2E/DX2                !
 ! D238  D(71,73,74,75)        179.9355         estimate D2E/DX2                !
 --------------------------------------------------------------------------------
 Trust Radius=3.00D-01 FncErr=1.00D-07 GrdErr=1.00D-06 EigMax=2.50D+02 EigMin=1.00D-04
 Number of steps in this run=    462 maximum allowed number of steps=    462.
 GradGradGradGradGradGradGradGradGradGradGradGradGradGradGradGradGradGrad

 Stoichiometry    C34H34FeN6O2(5)
 Framework group  C1[X(C34H34FeN6O2)]
 Deg. of freedom   225
 Full point group                 C1      NOp   1
 Largest Abelian subgroup         C1      NOp   1
 Largest concise Abelian subgroup C1      NOp   1
                         Standard orientation:                         
 ---------------------------------------------------------------------
 Center     Atomic      Atomic             Coordinates (Angstroms)
 Number     Number       Type             X           Y           Z
 ---------------------------------------------------------------------
      1         26           0       -0.277935   -0.025930   -0.476067
      2          7           0       -1.939688    1.026604   -0.323542
      3          7           0        0.842710    1.712855   -0.459381
      4          7           0        1.504230   -1.085439   -0.334061
      5          7           0       -1.288752   -1.707264   -0.440323
      6          6           0       -3.209042    0.545441   -0.338193
      7          6           0       -4.170564    1.627335   -0.271252
      8          6           0       -3.443068    2.779313   -0.232337
      9          6           0       -2.047832    2.383606   -0.280865
     10          6           0        0.346232    2.974390   -0.414429
     11          6           0        1.411058    3.942831   -0.444054
     12          6           0        2.581578    3.219464   -0.501555
     13          6           0        2.193397    1.822990   -0.487473
     14          6           0        2.765753   -0.581508   -0.379637
     15          6           0        3.741664   -1.648929   -0.331426
     16          6           0        3.024452   -2.818004   -0.280144
     17          6           0        1.623800   -2.429110   -0.293812
     18          6           0       -0.779206   -2.971965   -0.412510
     19          6           0       -1.847217   -3.944342   -0.446165
     20          6           0       -3.015797   -3.235098   -0.479097
     21          6           0       -2.642796   -1.841681   -0.461608
     22          6           0       -3.548025   -0.794374   -0.413091
     23          1           0       -4.604316   -1.044875   -0.429616
     24          6           0       -1.003864    3.286388   -0.321703
     25          1           0       -1.267731    4.338924   -0.297863
     26          6           0        3.088807    0.762734   -0.465307
     27          1           0        4.143651    1.008690   -0.526701
     28          6           0        0.559178   -3.314815   -0.334395
     29          1           0        0.792113   -4.374782   -0.332821
     30          6           0       -3.919996    4.192174   -0.171525
     31          1           0       -5.010783    4.246364   -0.109232
     32          1           0       -3.614325    4.758833   -1.060497
     33          1           0       -3.513983    4.718986    0.701550
     34          6           0       -5.651315    1.441283   -0.265881
     35          1           0       -5.978996    0.815464    0.574497
     36          1           0       -5.997927    0.951254   -1.184918
     37          1           0       -6.177612    2.396976   -0.186946
     38          6           0        1.244622    5.422558   -0.362338
     39          1           0        0.385751    5.699288    0.258926
     40          1           0        1.090198    5.876062   -1.350893
     41          1           0        2.137468    5.885829    0.071417
     42          6           0        3.953730    3.701152   -0.514911
     43          1           0        4.690813    3.067455   -0.019910
     44          6           0        4.382711    4.840530   -1.076016
     45          1           0        3.718205    5.497988   -1.629372
     46          1           0        5.427405    5.134800   -1.022345
     47          6           0        5.221261   -1.468151   -0.292050
     48          1           0        5.503973   -0.567700    0.264845
     49          1           0        5.653284   -1.376197   -1.297856
     50          1           0        5.699724   -2.327259    0.190501
     51          6           0        3.499242   -4.189316   -0.190607
     52          1           0        2.864664   -4.878662    0.368647
     53          6           0        4.630141   -4.669639   -0.726871
     54          1           0        5.284538   -4.056068   -1.339565
     55          1           0        4.920405   -5.707968   -0.590537
     56          6           0       -1.651443   -5.424047   -0.440943
     57          1           0       -1.119120   -5.758864    0.458595
     58          1           0       -1.063300   -5.755207   -1.306095
     59          1           0       -2.607746   -5.954417   -0.472134
     60          6           0       -4.420230   -3.738822   -0.519408
     61          1           0       -4.997167   -3.403119    0.352151
     62          1           0       -4.453782   -4.832175   -0.532258
     63          1           0       -4.949544   -3.383056   -1.412406
     64          6           0        1.250950    0.165359    5.181856
     65          1           0        1.159633   -0.748523    5.783180
     66          1           0        0.921313    1.007805    5.803756
     67          1           0        2.312376    0.311777    4.964512
     68          7           0       -0.878753   -0.111497    3.855970
     69          1           0       -1.490324   -0.208578    4.652386
     70          6           0        0.488930    0.076606    3.907526
     71          6           0       -1.253317   -0.143194    2.552930
     72          1           0       -2.269809   -0.278828    2.212497
     73          7           0       -0.210005    0.011172    1.778344
     74          6           0        0.876496    0.147718    2.595295
     75          1           0        1.866006    0.288244    2.184310
     76          8           0       -0.811228    0.280578   -2.664646
     77          8           0        0.296394   -0.319652   -2.638996
 ---------------------------------------------------------------------
 Rotational constants (GHZ):           0.0894725           0.0884681           0.0586865
 Standard basis: def2TZVP (5D, 7F)
 There are  1768 symmetry adapted cartesian basis functions of A   symmetry.
 There are  1551 symmetry adapted basis functions of A   symmetry.
  1551 basis functions,  2516 primitive gaussians,  1768 cartesian basis functions
   163 alpha electrons      159 beta electrons
       nuclear repulsion energy      6163.5235704239 Hartrees.
 NAtoms=   77 NActive=   77 NUniq=   77 SFac= 1.00D+00 NAtFMM=   60 NAOKFM=T Big=T
 Integral buffers will be    131072 words long.
 Raffenetti 2 integral format.
 Two-electron integral symmetry is turned on.
 R6APFD:  NTU= -4 IXU= 1 FactS= 1.050
 Nuclear repulsion after empirical dispersion term =     6163.3583521562 Hartrees.
 One-electron integrals computed using PRISM.
   1 Symmetry operations used in ECPInt.
 ECPInt:  NShTT=  188191 NPrTT=  584825 LenC2=  147640 LenP2D=  302259.
 LDataN:  DoStor=T MaxTD1= 6 Len=  172
 Number of processors reduced to  23 by ecpmxn.
 NBasis=  1551 RedAO= T EigKep=  3.31D-06  NBF=  1551
 NBsUse=  1551 1.00D-06 EigRej= -1.00D+00 NBFU=  1551
 Initial guess from the checkpoint file:  "1ltw_05_nbo.chk"
 B after Tr=    -0.000000    0.000000   -0.000000
         Rot=    1.000000   -0.000000   -0.000000   -0.000000 Ang=   0.00 deg.
 Initial guess <Sx>= 0.0000 <Sy>= 0.0000 <Sz>= 2.0000 <S**2>= 6.0668 S= 2.0133
 Requested convergence on RMS density matrix=1.00D-08 within 999 cycles.
 Requested convergence on MAX density matrix=1.00D-06.
 Requested convergence on             energy=1.00D-06.
 No special actions if energy rises.
 Restarting incremental Fock formation.
 SCF Done:  E(UAPFD) =  -3057.91492814     A.U. after   29 cycles
            NFock= 29  Conv=0.10D-08     -V/T= 2.0036
 <Sx>= 0.0000 <Sy>= 0.0000 <Sz>= 2.0000 <S**2>= 6.0705 S= 2.0141
 <L.S>=  0.00000000000    
 Annihilation of the first spin contaminant:
 S**2 before annihilation     6.0705,   after     6.0014

 **********************************************************************

            Population analysis using the SCF Density.

 **********************************************************************

 Orbital symmetries:
 Alpha Orbitals:
       Occupied  (A) (A) (A) (A) (A) (A) (A) (A) (A) (A) (A) (A)
                 (A) (A) (A) (A) (A) (A) (A) (A) (A) (A) (A) (A)
                 (A) (A) (A) (A) (A) (A) (A) (A) (A) (A) (A) (A)
                 (A) (A) (A) (A) (A) (A) (A) (A) (A) (A) (A) (A)
                 (A) (A) (A) (A) (A) (A) (A) (A) (A) (A) (A) (A)
                 (A) (A) (A) (A) (A) (A) (A) (A) (A) (A) (A) (A)
                 (A) (A) (A) (A) (A) (A) (A) (A) (A) (A) (A) (A)
                 (A) (A) (A) (A) (A) (A) (A) (A) (A) (A) (A) (A)
                 (A) (A) (A) (A) (A) (A) (A) (A) (A) (A) (A) (A)
                 (A) (A) (A) (A) (A) (A) (A) (A) (A) (A) (A) (A)
                 (A) (A) (A) (A) (A) (A) (A) (A) (A) (A) (A) (A)
                 (A) (A) (A) (A) (A) (A) (A) (A) (A) (A) (A) (A)
                 (A) (A) (A) (A) (A) (A) (A) (A) (A) (A) (A) (A)
                 (A) (A) (A) (A) (A) (A) (A)
       Virtual   (A) (A) (A) (A) (A) (A) (A) (A) (A) (A) (A) (A)
                 (A) (A) (A) (A) (A) (A) (A) (A) (A) (A) (A) (A)
                 (A) (A) (A) (A) (A) (A) (A) (A) (A) (A) (A) (A)
                 (A) (A) (A) (A) (A) (A) (A) (A) (A) (A) (A) (A)
                 (A) (A) (A) (A) (A) (A) (A) (A) (A) (A) (A) (A)
                 (A) (A) (A) (A) (A) (A) (A) (A) (A) (A) (A) (A)
                 (A) (A) (A) (A) (A) (A) (A) (A) (A) (A) (A) (A)
                 (A) (A) (A) (A) (A) (A) (A) (A) (A) (A) (A) (A)
                 (A) (A) (A) (A) (A) (A) (A) (A) (A) (A) (A) (A)
                 (A) (A) (A) (A) (A) (A) (A) (A) (A) (A) (A) (A)
                 (A) (A) (A) (A) (A) (A) (A) (A) (A) (A) (A) (A)
                 (A) (A) (A) (A) (A) (A) (A) (A) (A) (A) (A) (A)
                 (A) (A) (A) (A) (A) (A) (A) (A) (A) (A) (A) (A)
                 (A) (A) (A) (A) (A) (A) (A) (A) (A) (A) (A) (A)
                 (A) (A) (A) (A) (A) (A) (A) (A) (A) (A) (A) (A)
                 (A) (A) (A) (A) (A) (A) (A) (A) (A) (A) (A) (A)
                 (A) (A) (A) (A) (A) (A) (A) (A) (A) (A) (A) (A)
                 (A) (A) (A) (A) (A) (A) (A) (A) (A) (A) (A) (A)
                 (A) (A) (A) (A) (A) (A) (A) (A) (A) (A) (A) (A)
                 (A) (A) (A) (A) (A) (A) (A) (A) (A) (A) (A) (A)
                 (A) (A) (A) (A) (A) (A) (A) (A) (A) (A) (A) (A)
                 (A) (A) (A) (A) (A) (A) (A) (A) (A) (A) (A) (A)
                 (A) (A) (A) (A) (A) (A) (A) (A) (A) (A) (A) (A)
                 (A) (A) (A) (A) (A) (A) (A) (A) (A) (A) (A) (A)
                 (A) (A) (A) (A) (A) (A) (A) (A) (A) (A) (A) (A)
                 (A) (A) (A) (A) (A) (A) (A) (A) (A) (A) (A) (A)
                 (A) (A) (A) (A) (A) (A) (A) (A) (A) (A) (A) (A)
                 (A) (A) (A) (A) (A) (A) (A) (A) (A) (A) (A) (A)
                 (A) (A) (A) (A) (A) (A) (A) (A) (A) (A) (A) (A)
                 (A) (A) (A) (A) (A) (A) (A) (A) (A) (A) (A) (A)
                 (A) (A) (A) (A) (A) (A) (A) (A) (A) (A) (A) (A)
                 (A) (A) (A) (A) (A) (A) (A) (A) (A) (A) (A) (A)
                 (A) (A) (A) (A) (A) (A) (A) (A) (A) (A) (A) (A)
                 (A) (A) (A) (A) (A) (A) (A) (A) (A) (A) (A) (A)
                 (A) (A) (A) (A) (A) (A) (A) (A) (A) (A) (A) (A)
                 (A) (A) (A) (A) (A) (A) (A) (A) (A) (A) (A) (A)
                 (A) (A) (A) (A) (A) (A) (A) (A) (A) (A) (A) (A)
                 (A) (A) (A) (A) (A) (A) (A) (A) (A) (A) (A) (A)
                 (A) (A) (A) (A) (A) (A) (A) (A) (A) (A) (A) (A)
                 (A) (A) (A) (A) (A) (A) (A) (A) (A) (A) (A) (A)
                 (A) (A) (A) (A) (A) (A) (A) (A) (A) (A) (A) (A)
                 (A) (A) (A) (A) (A) (A) (A) (A) (A) (A) (A) (A)
                 (A) (A) (A) (A) (A) (A) (A) (A) (A) (A) (A) (A)
                 (A) (A) (A) (A) (A) (A) (A) (A) (A) (A) (A) (A)
                 (A) (A) (A) (A) (A) (A) (A) (A) (A) (A) (A) (A)
                 (A) (A) (A) (A) (A) (A) (A) (A) (A) (A) (A) (A)
                 (A) (A) (A) (A) (A) (A) (A) (A) (A) (A) (A) (A)
                 (A) (A) (A) (A) (A) (A) (A) (A) (A) (A) (A) (A)
                 (A) (A) (A) (A) (A) (A) (A) (A) (A) (A) (A) (A)
                 (A) (A) (A) (A) (A) (A) (A) (A) (A) (A) (A) (A)
                 (A) (A) (A) (A) (A) (A) (A) (A) (A) (A) (A) (A)
                 (A) (A) (A) (A) (A) (A) (A) (A) (A) (A) (A) (A)
                 (A) (A) (A) (A) (A) (A) (A) (A) (A) (A) (A) (A)
                 (A) (A) (A) (A) (A) (A) (A) (A) (A) (A) (A) (A)
                 (A) (A) (A) (A) (A) (A) (A) (A) (A) (A) (A) (A)
                 (A) (A) (A) (A) (A) (A) (A) (A) (A) (A) (A) (A)
                 (A) (A) (A) (A) (A) (A) (A) (A) (A) (A) (A) (A)
                 (A) (A) (A) (A) (A) (A) (A) (A) (A) (A) (A) (A)
                 (A) (A) (A) (A) (A) (A) (A) (A) (A) (A) (A) (A)
                 (A) (A) (A) (A) (A) (A) (A) (A) (A) (A) (A) (A)
                 (A) (A) (A) (A) (A) (A) (A) (A) (A) (A) (A) (A)
                 (A) (A) (A) (A) (A) (A) (A) (A) (A) (A) (A) (A)
                 (A) (A) (A) (A) (A) (A) (A) (A) (A) (A) (A) (A)
                 (A) (A) (A) (A) (A) (A) (A) (A) (A) (A) (A) (A)
                 (A) (A) (A) (A) (A) (A) (A) (A) (A) (A) (A) (A)
                 (A) (A) (A) (A) (A) (A) (A) (A) (A) (A) (A) (A)
                 (A) (A) (A) (A) (A) (A) (A) (A) (A) (A) (A) (A)
                 (A) (A) (A) (A) (A) (A) (A) (A) (A) (A) (A) (A)
                 (A) (A) (A) (A) (A) (A) (A) (A) (A) (A) (A) (A)
                 (A) (A) (A) (A) (A) (A) (A) (A) (A) (A) (A) (A)
                 (A) (A) (A) (A) (A) (A) (A) (A) (A) (A) (A) (A)
                 (A) (A) (A) (A) (A) (A) (A) (A) (A) (A) (A) (A)
                 (A) (A) (A) (A) (A) (A) (A) (A) (A) (A) (A) (A)
                 (A) (A) (A) (A) (A) (A) (A) (A) (A) (A) (A) (A)
                 (A) (A) (A) (A) (A) (A) (A) (A) (A) (A) (A) (A)
                 (A) (A) (A) (A) (A) (A) (A) (A) (A) (A) (A) (A)
                 (A) (A) (A) (A) (A) (A) (A) (A) (A) (A) (A) (A)
                 (A) (A) (A) (A) (A) (A) (A) (A) (A) (A) (A) (A)
                 (A) (A) (A) (A) (A) (A) (A) (A) (A) (A) (A) (A)
                 (A) (A) (A) (A) (A) (A) (A) (A) (A) (A) (A) (A)
                 (A) (A) (A) (A) (A) (A) (A) (A) (A) (A) (A) (A)
                 (A) (A) (A) (A) (A) (A) (A) (A) (A) (A) (A) (A)
                 (A) (A) (A) (A) (A) (A) (A) (A) (A) (A) (A) (A)
                 (A) (A) (A) (A) (A) (A) (A) (A) (A) (A) (A) (A)
                 (A) (A) (A) (A) (A) (A) (A) (A) (A) (A) (A) (A)
                 (A) (A) (A) (A) (A) (A) (A) (A) (A) (A) (A) (A)
                 (A) (A) (A) (A) (A) (A) (A) (A) (A) (A) (A) (A)
                 (A) (A) (A) (A) (A) (A) (A) (A) (A) (A) (A) (A)
                 (A) (A) (A) (A) (A) (A) (A) (A) (A) (A) (A) (A)
                 (A) (A) (A) (A) (A) (A) (A) (A) (A) (A) (A) (A)
                 (A) (A) (A) (A) (A) (A) (A) (A) (A) (A) (A) (A)
                 (A) (A) (A) (A) (A) (A) (A) (A) (A) (A) (A) (A)
                 (A) (A) (A) (A) (A) (A) (A) (A) (A) (A) (A) (A)
                 (A) (A) (A) (A) (A) (A) (A) (A) (A) (A) (A) (A)
                 (A) (A) (A) (A) (A) (A) (A) (A) (A) (A) (A) (A)
                 (A) (A) (A) (A) (A) (A) (A) (A) (A) (A) (A) (A)
                 (A) (A) (A) (A) (A) (A) (A) (A) (A) (A) (A) (A)
                 (A) (A) (A) (A) (A) (A) (A) (A) (A) (A) (A) (A)
                 (A) (A) (A) (A) (A) (A) (A) (A) (A) (A) (A) (A)
                 (A) (A) (A) (A) (A) (A) (A) (A) (A) (A) (A) (A)
                 (A) (A) (A) (A) (A) (A) (A) (A) (A) (A) (A) (A)
                 (A) (A) (A) (A) (A) (A) (A) (A) (A) (A) (A) (A)
                 (A) (A) (A) (A) (A) (A) (A) (A) (A) (A) (A) (A)
                 (A) (A) (A) (A) (A) (A) (A) (A) (A) (A) (A) (A)
                 (A) (A) (A) (A) (A) (A) (A) (A) (A) (A) (A) (A)
                 (A) (A) (A) (A) (A) (A) (A) (A) (A) (A) (A) (A)
                 (A) (A) (A) (A) (A) (A) (A) (A) (A) (A) (A) (A)
                 (A) (A) (A) (A) (A) (A) (A) (A) (A) (A) (A) (A)
                 (A) (A) (A) (A) (A) (A) (A) (A) (A) (A) (A) (A)
                 (A) (A) (A) (A) (A) (A) (A) (A) (A) (A) (A) (A)
                 (A) (A) (A) (A) (A) (A) (A) (A) (A) (A) (A) (A)
                 (A) (A) (A) (A) (A) (A) (A) (A) (A) (A) (A) (A)
                 (A) (A) (A) (A) (A) (A) (A) (A) (A) (A) (A) (A)
                 (A) (A) (A) (A) (A) (A) (A) (A) (A) (A) (A) (A)
                 (A) (A) (A) (A) (A) (A) (A) (A) (A) (A) (A) (A)
                 (A) (A) (A) (A) (A) (A) (A) (A)
 Beta  Orbitals:
       Occupied  (A) (A) (A) (A) (A) (A) (A) (A) (A) (A) (A) (A)
                 (A) (A) (A) (A) (A) (A) (A) (A) (A) (A) (A) (A)
                 (A) (A) (A) (A) (A) (A) (A) (A) (A) (A) (A) (A)
                 (A) (A) (A) (A) (A) (A) (A) (A) (A) (A) (A) (A)
                 (A) (A) (A) (A) (A) (A) (A) (A) (A) (A) (A) (A)
                 (A) (A) (A) (A) (A) (A) (A) (A) (A) (A) (A) (A)
                 (A) (A) (A) (A) (A) (A) (A) (A) (A) (A) (A) (A)
                 (A) (A) (A) (A) (A) (A) (A) (A) (A) (A) (A) (A)
                 (A) (A) (A) (A) (A) (A) (A) (A) (A) (A) (A) (A)
                 (A) (A) (A) (A) (A) (A) (A) (A) (A) (A) (A) (A)
                 (A) (A) (A) (A) (A) (A) (A) (A) (A) (A) (A) (A)
                 (A) (A) (A) (A) (A) (A) (A) (A) (A) (A) (A) (A)
                 (A) (A) (A) (A) (A) (A) (A) (A) (A) (A) (A) (A)
                 (A) (A) (A)
       Virtual   (A) (A) (A) (A) (A) (A) (A) (A) (A) (A) (A) (A)
                 (A) (A) (A) (A) (A) (A) (A) (A) (A) (A) (A) (A)
                 (A) (A) (A) (A) (A) (A) (A) (A) (A) (A) (A) (A)
                 (A) (A) (A) (A) (A) (A) (A) (A) (A) (A) (A) (A)
                 (A) (A) (A) (A) (A) (A) (A) (A) (A) (A) (A) (A)
                 (A) (A) (A) (A) (A) (A) (A) (A) (A) (A) (A) (A)
                 (A) (A) (A) (A) (A) (A) (A) (A) (A) (A) (A) (A)
                 (A) (A) (A) (A) (A) (A) (A) (A) (A) (A) (A) (A)
                 (A) (A) (A) (A) (A) (A) (A) (A) (A) (A) (A) (A)
                 (A) (A) (A) (A) (A) (A) (A) (A) (A) (A) (A) (A)
                 (A) (A) (A) (A) (A) (A) (A) (A) (A) (A) (A) (A)
                 (A) (A) (A) (A) (A) (A) (A) (A) (A) (A) (A) (A)
                 (A) (A) (A) (A) (A) (A) (A) (A) (A) (A) (A) (A)
                 (A) (A) (A) (A) (A) (A) (A) (A) (A) (A) (A) (A)
                 (A) (A) (A) (A) (A) (A) (A) (A) (A) (A) (A) (A)
                 (A) (A) (A) (A) (A) (A) (A) (A) (A) (A) (A) (A)
                 (A) (A) (A) (A) (A) (A) (A) (A) (A) (A) (A) (A)
                 (A) (A) (A) (A) (A) (A) (A) (A) (A) (A) (A) (A)
                 (A) (A) (A) (A) (A) (A) (A) (A) (A) (A) (A) (A)
                 (A) (A) (A) (A) (A) (A) (A) (A) (A) (A) (A) (A)
                 (A) (A) (A) (A) (A) (A) (A) (A) (A) (A) (A) (A)
                 (A) (A) (A) (A) (A) (A) (A) (A) (A) (A) (A) (A)
                 (A) (A) (A) (A) (A) (A) (A) (A) (A) (A) (A) (A)
                 (A) (A) (A) (A) (A) (A) (A) (A) (A) (A) (A) (A)
                 (A) (A) (A) (A) (A) (A) (A) (A) (A) (A) (A) (A)
                 (A) (A) (A) (A) (A) (A) (A) (A) (A) (A) (A) (A)
                 (A) (A) (A) (A) (A) (A) (A) (A) (A) (A) (A) (A)
                 (A) (A) (A) (A) (A) (A) (A) (A) (A) (A) (A) (A)
                 (A) (A) (A) (A) (A) (A) (A) (A) (A) (A) (A) (A)
                 (A) (A) (A) (A) (A) (A) (A) (A) (A) (A) (A) (A)
                 (A) (A) (A) (A) (A) (A) (A) (A) (A) (A) (A) (A)
                 (A) (A) (A) (A) (A) (A) (A) (A) (A) (A) (A) (A)
                 (A) (A) (A) (A) (A) (A) (A) (A) (A) (A) (A) (A)
                 (A) (A) (A) (A) (A) (A) (A) (A) (A) (A) (A) (A)
                 (A) (A) (A) (A) (A) (A) (A) (A) (A) (A) (A) (A)
                 (A) (A) (A) (A) (A) (A) (A) (A) (A) (A) (A) (A)
                 (A) (A) (A) (A) (A) (A) (A) (A) (A) (A) (A) (A)
                 (A) (A) (A) (A) (A) (A) (A) (A) (A) (A) (A) (A)
                 (A) (A) (A) (A) (A) (A) (A) (A) (A) (A) (A) (A)
                 (A) (A) (A) (A) (A) (A) (A) (A) (A) (A) (A) (A)
                 (A) (A) (A) (A) (A) (A) (A) (A) (A) (A) (A) (A)
                 (A) (A) (A) (A) (A) (A) (A) (A) (A) (A) (A) (A)
                 (A) (A) (A) (A) (A) (A) (A) (A) (A) (A) (A) (A)
                 (A) (A) (A) (A) (A) (A) (A) (A) (A) (A) (A) (A)
                 (A) (A) (A) (A) (A) (A) (A) (A) (A) (A) (A) (A)
                 (A) (A) (A) (A) (A) (A) (A) (A) (A) (A) (A) (A)
                 (A) (A) (A) (A) (A) (A) (A) (A) (A) (A) (A) (A)
                 (A) (A) (A) (A) (A) (A) (A) (A) (A) (A) (A) (A)
                 (A) (A) (A) (A) (A) (A) (A) (A) (A) (A) (A) (A)
                 (A) (A) (A) (A) (A) (A) (A) (A) (A) (A) (A) (A)
                 (A) (A) (A) (A) (A) (A) (A) (A) (A) (A) (A) (A)
                 (A) (A) (A) (A) (A) (A) (A) (A) (A) (A) (A) (A)
                 (A) (A) (A) (A) (A) (A) (A) (A) (A) (A) (A) (A)
                 (A) (A) (A) (A) (A) (A) (A) (A) (A) (A) (A) (A)
                 (A) (A) (A) (A) (A) (A) (A) (A) (A) (A) (A) (A)
                 (A) (A) (A) (A) (A) (A) (A) (A) (A) (A) (A) (A)
                 (A) (A) (A) (A) (A) (A) (A) (A) (A) (A) (A) (A)
                 (A) (A) (A) (A) (A) (A) (A) (A) (A) (A) (A) (A)
                 (A) (A) (A) (A) (A) (A) (A) (A) (A) (A) (A) (A)
                 (A) (A) (A) (A) (A) (A) (A) (A) (A) (A) (A) (A)
                 (A) (A) (A) (A) (A) (A) (A) (A) (A) (A) (A) (A)
                 (A) (A) (A) (A) (A) (A) (A) (A) (A) (A) (A) (A)
                 (A) (A) (A) (A) (A) (A) (A) (A) (A) (A) (A) (A)
                 (A) (A) (A) (A) (A) (A) (A) (A) (A) (A) (A) (A)
                 (A) (A) (A) (A) (A) (A) (A) (A) (A) (A) (A) (A)
                 (A) (A) (A) (A) (A) (A) (A) (A) (A) (A) (A) (A)
                 (A) (A) (A) (A) (A) (A) (A) (A) (A) (A) (A) (A)
                 (A) (A) (A) (A) (A) (A) (A) (A) (A) (A) (A) (A)
                 (A) (A) (A) (A) (A) (A) (A) (A) (A) (A) (A) (A)
                 (A) (A) (A) (A) (A) (A) (A) (A) (A) (A) (A) (A)
                 (A) (A) (A) (A) (A) (A) (A) (A) (A) (A) (A) (A)
                 (A) (A) (A) (A) (A) (A) (A) (A) (A) (A) (A) (A)
                 (A) (A) (A) (A) (A) (A) (A) (A) (A) (A) (A) (A)
                 (A) (A) (A) (A) (A) (A) (A) (A) (A) (A) (A) (A)
                 (A) (A) (A) (A) (A) (A) (A) (A) (A) (A) (A) (A)
                 (A) (A) (A) (A) (A) (A) (A) (A) (A) (A) (A) (A)
                 (A) (A) (A) (A) (A) (A) (A) (A) (A) (A) (A) (A)
                 (A) (A) (A) (A) (A) (A) (A) (A) (A) (A) (A) (A)
                 (A) (A) (A) (A) (A) (A) (A) (A) (A) (A) (A) (A)
                 (A) (A) (A) (A) (A) (A) (A) (A) (A) (A) (A) (A)
                 (A) (A) (A) (A) (A) (A) (A) (A) (A) (A) (A) (A)
                 (A) (A) (A) (A) (A) (A) (A) (A) (A) (A) (A) (A)
                 (A) (A) (A) (A) (A) (A) (A) (A) (A) (A) (A) (A)
                 (A) (A) (A) (A) (A) (A) (A) (A) (A) (A) (A) (A)
                 (A) (A) (A) (A) (A) (A) (A) (A) (A) (A) (A) (A)
                 (A) (A) (A) (A) (A) (A) (A) (A) (A) (A) (A) (A)
                 (A) (A) (A) (A) (A) (A) (A) (A) (A) (A) (A) (A)
                 (A) (A) (A) (A) (A) (A) (A) (A) (A) (A) (A) (A)
                 (A) (A) (A) (A) (A) (A) (A) (A) (A) (A) (A) (A)
                 (A) (A) (A) (A) (A) (A) (A) (A) (A) (A) (A) (A)
                 (A) (A) (A) (A) (A) (A) (A) (A) (A) (A) (A) (A)
                 (A) (A) (A) (A) (A) (A) (A) (A) (A) (A) (A) (A)
                 (A) (A) (A) (A) (A) (A) (A) (A) (A) (A) (A) (A)
                 (A) (A) (A) (A) (A) (A) (A) (A) (A) (A) (A) (A)
                 (A) (A) (A) (A) (A) (A) (A) (A) (A) (A) (A) (A)
                 (A) (A) (A) (A) (A) (A) (A) (A) (A) (A) (A) (A)
                 (A) (A) (A) (A) (A) (A) (A) (A) (A) (A) (A) (A)
                 (A) (A) (A) (A) (A) (A) (A) (A) (A) (A) (A) (A)
                 (A) (A) (A) (A) (A) (A) (A) (A) (A) (A) (A) (A)
                 (A) (A) (A) (A) (A) (A) (A) (A) (A) (A) (A) (A)
                 (A) (A) (A) (A) (A) (A) (A) (A) (A) (A) (A) (A)
                 (A) (A) (A) (A) (A) (A) (A) (A) (A) (A) (A) (A)
                 (A) (A) (A) (A) (A) (A) (A) (A) (A) (A) (A) (A)
                 (A) (A) (A) (A) (A) (A) (A) (A) (A) (A) (A) (A)
                 (A) (A) (A) (A) (A) (A) (A) (A) (A) (A) (A) (A)
                 (A) (A) (A) (A) (A) (A) (A) (A) (A) (A) (A) (A)
                 (A) (A) (A) (A) (A) (A) (A) (A) (A) (A) (A) (A)
                 (A) (A) (A) (A) (A) (A) (A) (A) (A) (A) (A) (A)
                 (A) (A) (A) (A) (A) (A) (A) (A) (A) (A) (A) (A)
                 (A) (A) (A) (A) (A) (A) (A) (A) (A) (A) (A) (A)
                 (A) (A) (A) (A) (A) (A) (A) (A) (A) (A) (A) (A)
                 (A) (A) (A) (A) (A) (A) (A) (A) (A) (A) (A) (A)
                 (A) (A) (A) (A) (A) (A) (A) (A) (A) (A) (A) (A)
                 (A) (A) (A) (A) (A) (A) (A) (A) (A) (A) (A) (A)
                 (A) (A) (A) (A) (A) (A) (A) (A) (A) (A) (A) (A)
                 (A) (A) (A) (A) (A) (A) (A) (A) (A) (A) (A) (A)
 The electronic state is 5-A.
 Alpha  occ. eigenvalues -- -256.23840 -30.11718 -25.96171 -25.95152 -25.94040
 Alpha  occ. eigenvalues --  -19.23037 -19.22925 -14.41928 -14.35211 -14.34660
 Alpha  occ. eigenvalues --  -14.34511 -14.34201 -14.34177 -10.25850 -10.24176
 Alpha  occ. eigenvalues --  -10.22165 -10.22158 -10.22077 -10.22070 -10.21955
 Alpha  occ. eigenvalues --  -10.21954 -10.21923 -10.21902 -10.21599 -10.21240
 Alpha  occ. eigenvalues --  -10.20369 -10.20304 -10.19987 -10.19937 -10.19888
 Alpha  occ. eigenvalues --  -10.19808 -10.19774 -10.19681 -10.19617 -10.19586
 Alpha  occ. eigenvalues --  -10.19577 -10.19474 -10.19446 -10.19446 -10.19411
 Alpha  occ. eigenvalues --  -10.19328 -10.19317 -10.19199 -10.19112 -10.19083
 Alpha  occ. eigenvalues --  -10.19005 -10.18954  -3.53567  -2.33128  -2.29743
 Alpha  occ. eigenvalues --   -2.27021  -1.20333  -1.05045  -0.97913  -0.96986
 Alpha  occ. eigenvalues --   -0.96950  -0.96038  -0.90488  -0.82913  -0.82178
 Alpha  occ. eigenvalues --   -0.81941  -0.81490  -0.81139  -0.80313  -0.80265
 Alpha  occ. eigenvalues --   -0.80222  -0.78319  -0.77132  -0.76003  -0.74782
 Alpha  occ. eigenvalues --   -0.74641  -0.73672  -0.71856  -0.71468  -0.70545
 Alpha  occ. eigenvalues --   -0.69000  -0.68669  -0.68591  -0.64967  -0.64898
 Alpha  occ. eigenvalues --   -0.64184  -0.61205  -0.61025  -0.60431  -0.58587
 Alpha  occ. eigenvalues --   -0.57527  -0.56067  -0.55383  -0.54435  -0.53878
 Alpha  occ. eigenvalues --   -0.53459  -0.51985  -0.51755  -0.51471  -0.49589
 Alpha  occ. eigenvalues --   -0.49211  -0.48642  -0.48590  -0.48182  -0.47724
 Alpha  occ. eigenvalues --   -0.47315  -0.46887  -0.45519  -0.45248  -0.44966
 Alpha  occ. eigenvalues --   -0.44887  -0.44471  -0.44153  -0.43930  -0.43790
 Alpha  occ. eigenvalues --   -0.43537  -0.43454  -0.43097  -0.42762  -0.42673
 Alpha  occ. eigenvalues --   -0.42505  -0.42434  -0.41715  -0.41634  -0.41605
 Alpha  occ. eigenvalues --   -0.40782  -0.40749  -0.40576  -0.40124  -0.39988
 Alpha  occ. eigenvalues --   -0.39952  -0.39829  -0.39255  -0.39093  -0.38870
[...]
   D85        0.02902  -0.00001   0.00061  -0.00121  -0.00060   0.02842
   D86       -3.12322  -0.00002   0.00005  -0.00066  -0.00061  -3.12383
   D87       -3.12656  -0.00000   0.00022  -0.00047  -0.00024  -3.12681
   D88        0.00438  -0.00001  -0.00034   0.00008  -0.00025   0.00413
   D89        0.00440  -0.00001   0.00039  -0.00036   0.00003   0.00443
   D90        3.12496  -0.00001   0.00080  -0.00007   0.00074   3.12569
   D91       -3.11977  -0.00001   0.00023  -0.00066  -0.00044  -3.12021
   D92        0.00079  -0.00001   0.00064  -0.00037   0.00027   0.00106
   D93        1.01541   0.00001   0.00177  -0.00089   0.00087   1.01628
   D94       -1.07279  -0.00002   0.00107  -0.00065   0.00042  -1.07237
   D95        3.11573   0.00000   0.00148  -0.00087   0.00061   3.11634
   D96       -2.14650  -0.00000   0.00194  -0.00054   0.00140  -2.14511
   D97        2.04848  -0.00003   0.00124  -0.00030   0.00094   2.04943
   D98       -0.04618  -0.00001   0.00165  -0.00052   0.00114  -0.04505
   D99       -0.02154   0.00000   0.00042  -0.00043  -0.00001  -0.02154
   D100       3.08807   0.00001  -0.00051   0.00039  -0.00013   3.08794
   D101       3.13996   0.00001   0.00006  -0.00072  -0.00065   3.13931
   D102      -0.03362   0.00001  -0.00088   0.00010  -0.00077  -0.03439
   D103       0.05588   0.00000  -0.00134   0.00039  -0.00096   0.05493
   D104      -2.03818   0.00002  -0.00101   0.00012  -0.00089  -2.03908
   D105       2.15503  -0.00000  -0.00173   0.00047  -0.00126   2.15377
   D106      -3.11026   0.00000  -0.00088   0.00074  -0.00014  -3.11040
   D107       1.07886   0.00002  -0.00054   0.00047  -0.00008   1.07878
   D108      -1.01111  -0.00001  -0.00126   0.00082  -0.00044  -1.01155
   D109      -0.00209  -0.00003   0.00095  -0.00067   0.00027  -0.00181
   D110       3.12155  -0.00001  -0.00027   0.00046   0.00018   3.12173
   D111      -3.10652  -0.00004   0.00206  -0.00163   0.00043  -3.10609
   D112       0.01712  -0.00002   0.00084  -0.00051   0.00034   0.01745
   D113      -0.01080  -0.00002   0.00368  -0.00383  -0.00015  -0.01095
   D114      -3.11280  -0.00004   0.00226  -0.00270  -0.00044  -3.11325
   D115       3.10230  -0.00004   0.00435  -0.00372   0.00063   3.10293
   D116       0.00030  -0.00005   0.00293  -0.00259   0.00034   0.00064
   D117      -0.02269   0.00001   0.00088  -0.00034   0.00053  -0.02216
   D118       3.13694  -0.00001   0.00214  -0.00151   0.00062   3.13756
   D119      -3.13196   0.00003   0.00010  -0.00044  -0.00035  -3.13230
   D120       0.02767   0.00001   0.00136  -0.00161  -0.00025   0.02742
   D121      -0.01266   0.00001  -0.00382   0.00413   0.00031  -0.01235
   D122      -3.11425  -0.00002  -0.00175  -0.00060  -0.00233  -3.11658
   D123       3.08800   0.00001  -0.00223   0.00282   0.00058   3.08858
   D124      -0.01358  -0.00003  -0.00016  -0.00191  -0.00206  -0.01565
   D125       0.44558  -0.00003   0.02065  -0.00246   0.01818   0.46376
   D126      -1.65376   0.00006   0.01909  -0.00027   0.01882  -1.63494
   D127       2.54510   0.00001   0.02003  -0.00175   0.01828   2.56338
   D128      -2.64757  -0.00004   0.01886  -0.00101   0.01785  -2.62972
   D129       1.53627   0.00005   0.01730   0.00119   0.01849   1.55476
   D130      -0.54805   0.00001   0.01824  -0.00030   0.01795  -0.53011
   D131       0.03265  -0.00000   0.00293  -0.00332  -0.00039   0.03226
   D132      -3.07484  -0.00004   0.00424  -0.00517  -0.00094  -3.07578
   D133       3.13673   0.00003   0.00104   0.00104   0.00209   3.13882
   D134       0.02924  -0.00001   0.00234  -0.00081   0.00154   0.03078
   D135       2.66610  -0.00001  -0.00492  -0.00166  -0.00658   2.65952
   D136      -0.48174  -0.00001  -0.00685  -0.00046  -0.00732  -0.48906
   D137      -0.42886  -0.00004  -0.00254  -0.00712  -0.00966  -0.43853
   D138       2.70648  -0.00004  -0.00448  -0.00592  -0.01040   2.69608
   D139      -0.01427   0.00000   0.00026  -0.00063  -0.00038  -0.01465
   D140       3.12633  -0.00000   0.00255  -0.00263  -0.00008   3.12626
   D141       3.08800   0.00004  -0.00126   0.00151   0.00025   3.08825
   D142      -0.05458   0.00004   0.00103  -0.00049   0.00055  -0.05403
   D143       0.01831   0.00001  -0.00089   0.00123   0.00034   0.01865
   D144      -3.09416   0.00000  -0.00040   0.00072   0.00032  -3.09384
   D145      -3.11119  -0.00001  -0.00024   0.00039   0.00014  -3.11105
   D146       0.05953  -0.00002   0.00024  -0.00012   0.00012   0.05965
   D147       0.02802  -0.00003  -0.00001  -0.00079  -0.00080   0.02722
   D148      -3.11258  -0.00003  -0.00230   0.00120  -0.00110  -3.11368
   D149      -3.12749  -0.00001  -0.00075   0.00018  -0.00057  -3.12806
   D150       0.01509  -0.00001  -0.00305   0.00217  -0.00087   0.01422
   D151      -0.00321  -0.00000   0.00017  -0.00057  -0.00040  -0.00361
   D152      -3.12142  -0.00002  -0.00099  -0.00061  -0.00160  -3.12302
   D153       3.10804   0.00001  -0.00039   0.00002  -0.00037   3.10767
   D154      -0.01017  -0.00000  -0.00154  -0.00003  -0.00156  -0.01174
   D155       0.51410   0.00003   0.00732   0.00242   0.00974   0.52384
   D156      -1.58277  -0.00001   0.00810   0.00134   0.00944  -1.57333
   D157       2.61438   0.00003   0.00738   0.00214   0.00951   2.62389
   D158      -2.59176   0.00002   0.00795   0.00176   0.00971  -2.58205
   D159       1.59455  -0.00002   0.00873   0.00068   0.00941   1.60397
   D160      -0.49148   0.00002   0.00801   0.00148   0.00948  -0.48200
   D161      -0.01286  -0.00001   0.00061  -0.00026   0.00035  -0.01250
   D162       3.07771   0.00003  -0.00060   0.00113   0.00052   3.07823
   D163       3.10690   0.00000   0.00172  -0.00025   0.00146   3.10837
   D164      -0.08572   0.00004   0.00050   0.00113   0.00163  -0.08409
   D165       2.62596   0.00002  -0.00424   0.00143  -0.00280   2.62316
   D166      -0.51749   0.00004  -0.00602   0.00289  -0.00313  -0.52062
   D167      -0.48838   0.00001  -0.00559   0.00139  -0.00420  -0.49258
   D168       2.65135   0.00002  -0.00738   0.00285  -0.00452   2.64683
   D169      -0.01006  -0.00001   0.00117  -0.00033   0.00083  -0.00923
   D170       3.10711   0.00001   0.00093   0.00003   0.00096   3.10807
   D171      -3.09370  -0.00005   0.00256  -0.00190   0.00066  -3.09304
   D172       0.02347  -0.00003   0.00232  -0.00154   0.00079   0.02426
   D173      -0.01511  -0.00000   0.00026   0.00014   0.00040  -0.01471
   D174       3.12998  -0.00000  -0.00034   0.00031  -0.00003   3.12995
   D175       3.10341  -0.00001   0.00119  -0.00024   0.00096   3.10437
   D176      -0.03469  -0.00001   0.00059  -0.00007   0.00053  -0.03416
   D177      -0.02025   0.00002  -0.00028   0.00060   0.00031  -0.01994
   D178      -3.13759  -0.00001  -0.00004   0.00023   0.00019  -3.13740
   D179      -3.13496   0.00003  -0.00136   0.00103  -0.00034  -3.13530
   D180       0.03089   0.00000  -0.00112   0.00066  -0.00046   0.03043
   D181      -0.00362   0.00001  -0.00011   0.00009  -0.00002  -0.00364
   D182      -3.13846   0.00000  -0.00065  -0.00009  -0.00074  -3.13920
   D183       3.13430   0.00000   0.00052  -0.00009   0.00043   3.13473
   D184      -0.00054   0.00000  -0.00002  -0.00027  -0.00028  -0.00083
   D185       1.05666  -0.00000  -0.00123   0.00008  -0.00115   1.05551
   D186      -1.03431   0.00000  -0.00095  -0.00005  -0.00100  -1.03531
   D187      -3.13043  -0.00000  -0.00104   0.00002  -0.00102  -3.13145
   D188      -2.08064   0.00000  -0.00197   0.00029  -0.00169  -2.08233
   D189       2.11158   0.00000  -0.00169   0.00016  -0.00153   2.11005
   D190       0.01546   0.00000  -0.00178   0.00023  -0.00156   0.01390
   D191       0.02144  -0.00000  -0.00007  -0.00029  -0.00036   0.02108
   D192      -3.07522  -0.00001   0.00012  -0.00084  -0.00073  -3.07595
   D193      -3.12655  -0.00000   0.00044  -0.00012   0.00032  -3.12623
   D194       0.05998  -0.00001   0.00063  -0.00068  -0.00005   0.05993
   D195       2.07979   0.00000   0.00136  -0.00023   0.00113   2.08092
   D196      -0.01680  -0.00000   0.00128  -0.00036   0.00093  -0.01587
   D197      -2.11286  -0.00001   0.00143  -0.00049   0.00094  -2.11192
   D198      -1.05391   0.00000   0.00073  -0.00043   0.00029  -1.05361
   D199       3.13269  -0.00001   0.00065  -0.00056   0.00009   3.13278
   D200       1.03662  -0.00001   0.00079  -0.00069   0.00010   1.03672
   D201       0.00012   0.00001  -0.00138   0.00106  -0.00031  -0.00020
   D202      -3.13083   0.00002  -0.00082   0.00051  -0.00030  -3.13114
   D203       3.09024   0.00002  -0.00159   0.00170   0.00011   3.09035
   D204      -0.04071   0.00003  -0.00103   0.00115   0.00012  -0.04060
   D205      -0.04572   0.00001   0.00122  -0.00032   0.00090  -0.04482
   D206       3.12928  -0.00001   0.00108  -0.00097   0.00011   3.12939
   D207       3.08953   0.00001  -0.00076   0.00091   0.00015   3.08968
   D208      -0.01866  -0.00001  -0.00090   0.00025  -0.00064  -0.01930
   D209      -0.05198   0.00002   0.00032   0.00027   0.00058  -0.05139
   D210       3.12139   0.00000   0.00087  -0.00043   0.00044   3.12183
   D211       3.08772   0.00004  -0.00150   0.00176   0.00025   3.08797
   D212      -0.02210   0.00002  -0.00095   0.00106   0.00011  -0.02199
   D213       1.05440  -0.00001  -0.00003   0.00015   0.00012   1.05452
   D214      -2.08895   0.00000   0.00016   0.00012   0.00027  -2.08868
   D215      -1.06067   0.00000   0.00018   0.00013   0.00031  -1.06036
   D216       2.07917   0.00001   0.00037   0.00009   0.00046   2.07963
   D217       3.13864  -0.00001   0.00004   0.00010   0.00015   3.13879
   D218      -0.00471   0.00000   0.00023   0.00007   0.00030  -0.00441
   D219       0.00031   0.00000  -0.00022   0.00006  -0.00016   0.00015
   D220      -3.13994  -0.00001  -0.00036   0.00009  -0.00028  -3.14021
   D221       3.13995  -0.00002   0.00035  -0.00036  -0.00001   3.13993
   D222      -0.00030  -0.00003   0.00020  -0.00033  -0.00013  -0.00043
   D223       0.00030   0.00000   0.00052  -0.00017   0.00035   0.00065
   D224       3.13953   0.00000   0.00011   0.00017   0.00028   3.13981
   D225      -3.13933   0.00002  -0.00005   0.00025   0.00020  -3.13913
   D226      -0.00010   0.00002  -0.00046   0.00059   0.00013   0.00003
   D227      -3.13948   0.00001  -0.00006   0.00001  -0.00004  -3.13953
   D228       0.00092   0.00001   0.00054   0.00003   0.00057   0.00148
   D229       0.00059   0.00002   0.00011  -0.00002   0.00009   0.00068
   D230       3.14099   0.00002   0.00071  -0.00000   0.00070  -3.14149
   D231       3.13743   0.00003  -0.00481   0.00167  -0.00315   3.13428
   D232       0.00047  -0.00001   0.00052  -0.00059  -0.00007   0.00039
   D233      -0.00657   0.00004  -0.00523   0.00201  -0.00322  -0.00979
   D234       3.13965  -0.00001   0.00010  -0.00024  -0.00015   3.13951
   D235      -3.13743  -0.00005   0.00521  -0.00198   0.00321  -3.13422
   D236       0.00525  -0.00006   0.00466  -0.00199   0.00265   0.00790
   D237      -0.00067  -0.00001  -0.00039   0.00037  -0.00001  -0.00068
   D238      -3.14117  -0.00001  -0.00094   0.00036  -0.00057   3.14144
         Item               Value     Threshold  Converged?
 Maximum Force            0.000431     0.000450     YES
 RMS     Force            0.000067     0.000300     YES
 Maximum Displacement     0.250109     0.001800     NO 
 RMS     Displacement     0.031883     0.001200     NO 
 Predicted change in Energy=-2.836358D-05
 GradGradGradGradGradGradGradGradGradGradGradGradGradGradGradGradGradGrad

 Stoichiometry    C34H34FeN6O2(5)
 Framework group  C1[X(C34H34FeN6O2)]
 Deg. of freedom   225
 Full point group                 C1      NOp   1
 Largest Abelian subgroup         C1      NOp   1
 Largest concise Abelian subgroup C1      NOp   1
                         Standard orientation:                         
 ---------------------------------------------------------------------
 Center     Atomic      Atomic             Coordinates (Angstroms)
 Number     Number       Type             X           Y           Z
 ---------------------------------------------------------------------
      1         26           0       -0.236971   -0.143098   -0.468860
      2          7           0       -2.193625   -0.020934   -0.311442
      3          7           0       -0.099731    1.918344   -0.447446
      4          7           0        1.830223   -0.213994   -0.354314
      5          7           0       -0.307136   -2.095454   -0.478648
      6          6           0       -3.066854   -1.054148   -0.324867
      7          6           0       -4.427101   -0.574583   -0.233782
      8          6           0       -4.349299    0.780439   -0.183166
      9          6           0       -2.941995    1.111372   -0.250162
     10          6           0       -1.139403    2.780509   -0.390280
     11          6           0       -0.674956    4.138396   -0.414829
     12          6           0        0.695093    4.069445   -0.475082
     13          6           0        1.026909    2.661974   -0.468346
     14          6           0        2.684147    0.837761   -0.376738
     15          6           0        4.051152    0.378115   -0.337289
     16          6           0        3.992855   -0.988917   -0.314751
     17          6           0        2.583088   -1.328342   -0.336190
     18          6           0        0.745829   -2.954721   -0.470903
     19          6           0        0.278870   -4.317543   -0.522785
     20          6           0       -1.081483   -4.258614   -0.542772
     21          6           0       -1.425331   -2.861527   -0.497794
     22          6           0       -2.717609   -2.383863   -0.426569
     23          1           0       -3.519438   -3.111405   -0.442425
     24          6           0       -2.467144    2.401859   -0.286553
     25          1           0       -3.204995    3.192810   -0.245807
     26          6           0        2.317297    2.165829   -0.443280
     27          1           0        3.120585    2.889644   -0.480031
     28          6           0        2.079303   -2.613062   -0.395421
     29          1           0        2.791188   -3.428176   -0.405006
     30          6           0       -5.451418    1.776487   -0.103292
     31          1           0       -6.423563    1.287675   -0.030962
     32          1           0       -5.473331    2.421447   -0.987069
     33          1           0       -5.344527    2.429008    0.768504
     34          6           0       -5.632318   -1.446479   -0.225061
     35          1           0       -5.606497   -2.164205    0.600550
     36          1           0       -5.713717   -2.024765   -1.150553
     37          1           0       -6.546613   -0.860842   -0.123521
     38          6           0       -1.532773    5.349300   -0.333106
     39          1           0       -2.465770    5.147536    0.196138
     40          1           0       -1.797855    5.729642   -1.325433
     41          1           0       -1.013681    6.153851    0.193233
     42          6           0        1.669295    5.141238   -0.493243
     43          1           0        2.648102    4.897484   -0.085824
     44          6           0        1.486254    6.378070   -0.961648
     45          1           0        0.559816    6.691056   -1.426767
     46          1           0        2.282059    7.112323   -0.917570
     47          6           0        5.251600    1.252790   -0.289691
     48          1           0        5.042107    2.194704    0.221277
     49          1           0        5.615764    1.501361   -1.292321
     50          1           0        6.068623    0.755606    0.237926
     51          6           0        5.068045   -1.958596   -0.252354
     52          1           0        4.829771   -2.899010    0.240952
     53          6           0        6.302266   -1.808109   -0.738078
     54          1           0        6.604000   -0.923122   -1.284820
     55          1           0        7.044867   -2.589278   -0.624805
     56          6           0        1.158457   -5.517263   -0.543938
     57          1           0        1.783938   -5.573751    0.352102
     58          1           0        1.830793   -5.506121   -1.406795
     59          1           0        0.574355   -6.436658   -0.594357
     60          6           0       -2.064534   -5.374209   -0.592149
     61          1           0       -2.717913   -5.374990    0.285700
     62          1           0       -1.565101   -6.342796   -0.629495
     63          1           0       -2.708621   -5.301424   -1.473454
     64          6           0        1.271625    0.104260    5.189501
     65          1           0        1.159616   -0.791193    5.808728
     66          1           0        0.954722    0.964809    5.786865
     67          1           0        2.332638    0.225381    4.971719
     68          7           0       -0.852427   -0.163016    3.869689
     69          1           0       -1.467539   -0.227580    4.662591
     70          6           0        0.512740    0.000139    3.920291
     71          6           0       -1.224032   -0.219179    2.571018
     72          1           0       -2.241768   -0.341307    2.237259
     73          7           0       -0.180764   -0.101965    1.796890
     74          6           0        0.904492    0.034297    2.613320
     75          1           0        1.897141    0.148626    2.209539
     76          8           0       -0.865094   -0.086445   -2.671779
     77          8           0        0.384835   -0.114231   -2.653079
 ---------------------------------------------------------------------
 Rotational constants (GHZ):           0.0899063           0.0885007           0.0590115
 Standard basis: def2TZVP (5D, 7F)
 There are  1768 symmetry adapted cartesian basis functions of A   symmetry.
 There are  1551 symmetry adapted basis functions of A   symmetry.
  1551 basis functions,  2516 primitive gaussians,  1768 cartesian basis functions
   163 alpha electrons      159 beta electrons
       nuclear repulsion energy      6176.1127608522 Hartrees.
 NAtoms=   77 NActive=   77 NUniq=   77 SFac= 1.00D+00 NAtFMM=   60 NAOKFM=T Big=T
 Integral buffers will be    131072 words long.
 Raffenetti 2 integral format.
 Two-electron integral symmetry is turned on.
 R6APFD:  NTU= -4 IXU= 1 FactS= 1.050
 Nuclear repulsion after empirical dispersion term =     6175.9469546660 Hartrees.
 One-electron integrals computed using PRISM.
   1 Symmetry operations used in ECPInt.
 ECPInt:  NShTT=  188191 NPrTT=  584825 LenC2=  147805 LenP2D=  302658.
 LDataN:  DoStor=T MaxTD1= 6 Len=  172
 Number of processors reduced to  23 by ecpmxn.
 NBasis=  1551 RedAO= T EigKep=  3.14D-06  NBF=  1551
 NBsUse=  1551 1.00D-06 EigRej= -1.00D+00 NBFU=  1551
 Initial guess from the checkpoint file:  "1ltw_05_nbo.chk"
 B after Tr=     0.000000    0.000000    0.000000
         Rot=    0.999504    0.001491    0.000380    0.031440 Ang=   3.61 deg.
 Initial guess <Sx>= 0.0000 <Sy>= 0.0000 <Sz>= 2.0000 <S**2>= 6.0720 S= 2.0144
 ExpMin= 4.20D-02 ExpMax= 3.01D+05 ExpMxC= 2.91D+03 IAcc=3 IRadAn=         5 AccDes= 0.00D+00
 Harris functional with IExCor= 3731 and IRadAn=       5 diagonalized for initial guess.
 HarFok:  IExCor= 3731 AccDes= 0.00D+00 IRadAn=         5 IDoV= 1 UseB2=F ITyADJ=14
 ICtDFT=  3500011 ScaDFX=  1.000000  1.000000  1.000000  1.000000
 FoFCou: FMM=F IPFlag=           0 FMFlag=      100000 FMFlg1=        2001
         NFxFlg=           0 DoJE=T BraDBF=F KetDBF=T FulRan=T
         wScrn=  0.000000 ICntrl=       500 IOpCl=  0 I1Cent=   200000004 NGrid=           0
         NMat0=    1 NMatS0=      1 NMatT0=    0 NMatD0=    1 NMtDS0=    0 NMtDT0=    0
 Petite list used in FoFCou.
 Requested convergence on RMS density matrix=1.00D-08 within 999 cycles.
 Requested convergence on MAX density matrix=1.00D-06.
 Requested convergence on             energy=1.00D-06.
 No special actions if energy rises.
 EnCoef did     6 forward-backward iterations
