72
 energy: -105.980082932375 gnorm: 0.000067577215 xtb: 6.7.1 (edcfbbe)
Fe          25.10337189915086      -22.03397475658618      -28.74560091563559
N           25.12858897697037      -22.16954244338435      -26.76142875052731
N           26.87374926238048      -22.93531856062439      -28.85229359390931
N           25.07403975961535      -21.84541684354718      -30.75224959113847
N           23.36419945477857      -21.02550161823574      -28.64542679099130
C           24.21985497005714      -21.66482954883059      -25.88771184758559
C           24.57193055800030      -22.00864122340120      -24.52682387605618
C           25.71651417536931      -22.73705897374023      -24.60276331464850
C           26.05601688332167      -22.81370730672018      -26.00795999975344
C           27.58324020836840      -23.45150684869225      -27.81604911340310
C           28.82154305843590      -24.02947270873265      -28.27760398867229
C           28.84819075019284      -23.84612032167586      -29.63281638456048
C           27.61325727247295      -23.16083559472734      -29.96714183894242
C           26.03631447421894      -22.26528918826304      -31.61913886372648
C           25.63056184833676      -22.03388698830648      -32.97864657149654
C           24.37169220497769      -21.49710184861780      -32.92288780376282
C           24.05568160001926      -21.36552961193308      -31.51633190450872
C           22.62797949672997      -20.55483134596770      -29.69083067978417
C           21.46557907340537      -19.84209977090644      -29.21430049130187
C           21.51544527545423      -19.89240771861471      -27.85492740786679
C           22.70568539049517      -20.63775628586803      -27.51851363425727
C           23.09752601795065      -20.93281730979441      -26.22613584081647
H           22.47318536015742      -20.57408479453568      -25.42287788107064
C           27.19405658705487      -23.42697180639889      -26.48935744614540
H           27.84379605929103      -23.90093854331190      -25.77019894047582
C           27.23543059652592      -22.85345037552035      -31.25850918052899
H           27.91078504889103      -23.12203522648031      -32.05570995221434
C           22.92913541727085      -20.72874482975341      -31.02863355502588
H           22.24654817803064      -20.31028324706358      -31.75061742895460
C           26.52182084564772      -23.34983593621179      -23.50973815424892
H           26.63589946312098      -24.42172108754882      -23.67176085735759
H           26.04398453982128      -23.19750011747792      -22.54516793063667
H           27.51660130015537      -22.90531567568460      -23.47353663698736
C           23.78107717482550      -21.60997847169504      -23.32881822652238
H           22.76694013097644      -22.00639696832896      -23.38766217021026
H           23.71637826727166      -20.52416279680362      -23.25764863864288
H           24.24306993251399      -21.98484815098488      -22.41908189585663
C           29.86787860699745      -24.62320307458909      -27.40166262470318
H           29.61570050182465      -25.65163329876073      -27.13838998456660
H           29.96681011207138      -24.05280856257081      -26.47948925292547
H           30.82710987499134      -24.62490661668817      -27.91503494261236
C           29.87179710800127      -24.20981592441360      -30.58813290303686
H           29.99927085390445      -23.52720899390457      -31.42044397049654
C           30.63767928331959      -25.29343864122853      -30.51945251186301
H           30.52096030126826      -26.02827121620466      -29.74224375931346
H           31.39329044724395      -25.49707144527353      -31.25988755053178
C           26.43409733434309      -22.38746927238169      -34.18087078767116
H           26.58393753101899      -23.46602393512623      -34.23589959550070
H           27.41497286075744      -21.91299551164122      -34.14136710301310
H           25.92754262927404      -22.06709964039332      -35.08770747527544
C           23.52782185313600      -21.13797447507733      -34.04422223057382
H           24.04635340747213      -20.70909779410040      -34.89489189058170
C           22.21596790849072      -21.33005394687016      -34.11828330893488
H           21.65297107684488      -21.04351179034119      -34.99085085808375
H           21.66086769455050      -21.80296513493898      -33.32575642689262
C           20.45270883565768      -19.20325190240714      -30.10016031436888
H           19.98152884828184      -19.94708282511643      -30.74311038257204
H           20.91996454558481      -18.45405401748814      -30.73957560619833
H           19.67707286198737      -18.71797011076034      -29.51311644408432
C           20.57217660827305      -19.32197570677232      -26.85287774872736
H           19.76579641378506      -18.78346517816662      -27.34425753121581
H           21.09149115428064      -18.63165855303742      -26.18799554590727
H           20.13450631245959      -20.11296292325229      -26.24306970793132
O           26.11285205828566      -20.03223685595234      -28.70667902905790
H           25.34940488116040      -19.44399975522241      -28.67741506980142
H           26.46722894198840      -19.99277365975160      -29.60237139815262
C           22.80837075085313      -24.27256715233268      -27.60654210531598
H           23.40173231970811      -24.59664441588317      -26.75799702578880
H           22.06983451769578      -25.02758667497575      -27.85783709056499
H           22.34064655323417      -23.31949762723537      -27.38508041079658
S           23.96423255875665      -24.07652099938246      -29.00804033472935
H           23.03875094024651      -23.63128752278699      -29.86438497999587
