72
 energy: -105.856379349869 gnorm: 0.295006519827 xtb: 6.7.1 (edcfbbe)
Fe          24.94300000000000      -22.05300000000000      -28.78900000000000
N           25.04600000000000      -22.24400000000000      -26.87000000000000
N           26.72500000000000      -23.00800000000000      -28.88400000000000
N           25.06700000000000      -21.70000000000000      -30.80400000000000
N           23.41400000000000      -21.06700000000000      -28.71900000000000
C           24.12800000000000      -21.75000000000000      -26.00500000000000
C           24.46099999999999      -22.06500000000000      -24.69200000000000
C           25.58600000000000      -22.77100000000000      -24.76300000000000
C           25.92000000000000      -22.90900000000000      -26.10100000000000
C           27.36700000000000      -23.54100000000000      -27.88100000000000
C           28.54800000000000      -24.11300000000000      -28.33500000000000
C           28.58900000000000      -23.91300000000000      -29.65400000000000
C           27.39099999999999      -23.19200000000000      -29.98700000000000
C           25.95200000000000      -22.21800000000000      -31.64300000000000
C           25.51500000000000      -22.09100000000000      -32.92300000000000
C           24.34300000000000      -21.43900000000000      -32.89700000000000
C           24.06500000000000      -21.18700000000000      -31.54200000000000
C           22.73900000000000      -20.52500000000000      -29.71600000000000
C           21.59200000000000      -19.82700000000000      -29.22400000000000
C           21.58300000000000      -19.96400000000000      -27.92100000000000
C           22.75100000000000      -20.73999999999999      -27.62800000000000
C           23.03400000000000      -21.03200000000000      -26.33400000000000
H           22.36700000000000      -20.68100000000000      -25.54700000000000
C           27.01000000000000      -23.57400000000000      -26.55500000000000
H           27.61600000000000      -24.14700000000000      -25.85400000000000
C           27.11400000000000      -22.82700000000000      -31.27700000000000
H           27.85800000000000      -23.03300000000000      -32.04700000000000
C           22.98000000000000      -20.55300000000000      -31.06400000000000
H           22.29200000000000      -20.06100000000000      -31.75000000000000
C           26.33700000000000      -23.33299999999999      -23.60600000000000
H           26.09700000000000      -24.41200000000000      -23.49700000000000
H           26.04300000000000      -22.80300000000000      -22.67500000000000
H           27.42900000000000      -23.22200000000000      -23.77800000000000
C           23.74200000000000      -21.64600000000000      -23.43100000000000
H           22.65900000000000      -21.51900000000000      -23.64600000000000
H           24.15300000000000      -20.68000000000000      -23.06800000000000
H           23.86500000000000      -22.42800000000000      -22.65100000000000
C           29.57800000000000      -24.82200000000000      -27.51200000000000
H           29.44100000000000      -25.92000000000000      -27.61199999999999
H           29.46400000000000      -24.54000000000000      -26.44300000000000
H           30.59500000000000      -24.55200000000000      -27.86900000000000
C           29.60600000000000      -24.30300000000000      -30.61300000000000
H           29.64699999999999      -23.82800000000000      -31.60400000000000
C           30.48699999999999      -25.21600000000000      -30.32700000000000
H           30.38300000000000      -25.82700000000000      -29.41800000000000
H           31.34800000000000      -25.38900000000000      -30.99000000000000
C           26.20500000000000      -22.56800000000000      -34.14699999999999
H           27.06200000000000      -23.21400000000000      -33.86100000000000
H           26.58500000000000      -21.70000000000000      -34.72600000000000
H           25.50000000000000      -23.15900000000000      -34.76900000000000
C           23.61600000000000      -21.15500000000000      -34.14100000000000
H           24.06800000000000      -21.46099999999999      -35.09600000000000
C           22.45800000000000      -20.56000000000000      -34.20900000000000
H           22.05300000000000      -20.23600000000000      -35.17900000000000
H           21.87200000000000      -20.37400000000000      -33.29700000000000
C           20.59000000000000      -19.09700000000000      -30.04500000000000
H           20.11000000000000      -19.80200000000000      -30.75700000000000
H           21.09200000000000      -18.29000000000000      -30.62000000000000
H           19.80800000000000      -18.66300000000000      -29.38500000000000
C           20.57300000000000      -19.41000000000000      -26.94800000000000
H           19.58200000000000      -19.33600000000000      -27.44400000000000
H           20.88700000000000      -18.39700000000000      -26.61700000000000
H           20.48700000000000      -20.08600000000000      -26.07100000000000
O           26.67600000000000      -19.59000000000000      -28.09800000000000
H           27.52500000000000      -19.93400000000000      -27.82000000000000
H           26.44600000000000      -18.73200000000000      -28.14399999999999
C           23.39800000000000      -24.57000000000000      -27.67000000000000
H           24.29700000000000      -24.86000000000000      -27.08500000000000
H           22.74100000000000      -25.46200000000000      -27.75400000000000
H           22.86300000000000      -23.77600000000000      -27.10600000000000
S           23.85000000000000      -23.97100000000000      -29.31500000000000
H           22.63900000000000      -23.52300000000000      -29.61200000000000
72
 energy: -105.917325460769 gnorm: 0.109916018649 xtb: 6.7.1 (edcfbbe)
Fe          24.99297450277189      -22.00401551683717      -28.79415730885718
N           25.03249330726312      -22.24205048814962      -26.86520762255272
N           26.71094746516624      -22.99159090057193      -28.88171717528733
N           25.05289793633989      -21.70552647045006      -30.79382961230969
N           23.40811365021708      -21.04980788119956      -28.71412665046298
C           24.12370809400442      -21.74369665278022      -25.98631216066575
C           24.45790175947952      -22.06316023916860      -24.65144085242421
C           25.59358248421399      -22.78513164965689      -24.72255669590596
C           25.92188600227328      -22.91030583950217      -26.09071159847413
C           27.37666472102415      -23.55483645463849      -27.87105566208139
C           28.57869196359304      -24.13976626049201      -28.33639749823940
C           28.61456674734107      -23.92496818136209      -29.67522236936100
C           27.41593443528343      -23.18906687075766      -29.99362383392325
C           25.95934117641081      -22.22147838802942      -31.64257385939265
C           25.52806734461103      -22.09115874224455      -32.96483857071198
C           24.33355804793109      -21.44432973521836      -32.93930753838816
C           24.06070269718262      -21.19424392995171      -31.56177291348287
C           22.71534744327292      -20.50176664763453      -29.72738004420045
C           21.55994260062340      -19.80500910925275      -29.23896502138866
C           21.55270784810244      -19.94725181961459      -27.90762682063441
C           22.72216217314750      -20.72353611550123      -27.60660164937634
C           23.01853515618486      -21.02328232036743      -26.31469910241741
H           22.36372331991390      -20.67607360203974      -25.53484448048602
C           27.01642221112572      -23.58310256743079      -26.54829147391388
H           27.61952899688263      -24.14248944562525      -25.85054033352047
C           27.13178979464557      -22.82695881259147      -31.27702419302978
H           27.85729182756212      -23.04551284265088      -32.04485989332839
C           22.96925920080268      -20.54508093746948      -31.06985928429566
H           22.29024689682371      -20.05208812403014      -31.73823196296195
C           26.35278825243685      -23.34686124983773      -23.58490749033037
H           26.11388295890088      -24.41125946683687      -23.48126607488136
H           26.06499480554796      -22.81979409073726      -22.67218571349970
H           27.42639473069650      -23.23043538927947      -23.75744167433301
C           23.73207963646774      -21.64372514530257      -23.41977640165895
H           22.66607848751865      -21.51759794443798      -23.62962740719137
H           24.14012467079879      -20.69196123339331      -23.06115672688377
H           23.85481259208376      -22.40994355670117      -22.64965302392298
C           29.59033402791898      -24.82914666623449      -27.49719203014229
H           29.45389112869270      -25.91331524084680      -27.58921628249066
H           29.47980730789600      -24.54791448498512      -26.44663178863183
H           30.59167042741048      -24.55653013825211      -27.84508673822525
C           29.62378473473674      -24.30613428972904      -30.62350073331634
H           29.65772464309141      -23.80847966183552      -31.58926235092331
C           30.51703206289924      -25.23867642212307      -30.34336224451724
H           30.42276817830392      -25.83775942473086      -29.45108661824509
H           31.35251084805253      -25.42293321158813      -31.00199927253472
C           26.22318541856170      -22.57863229711872      -34.17232488985461
H           27.06293806459951      -23.21584830538114      -33.88825753529875
H           26.59075461649272      -21.71955527309468      -34.74291010943768
H           25.52386057454806      -23.15845445423864      -34.78153209451780
C           23.60601861982418      -21.14867269204815      -34.15358160663235
H           24.08525877551214      -21.43897487203029      -35.08559383727842
C           22.43003730612573      -20.55116515535985      -34.22701270885459
H           22.02230627380760      -20.24943845101667      -35.18091782697621
H           21.85250366815860      -20.34953914628611      -33.33791273548101
C           20.57176638874312      -19.08519267591737      -30.06686339507655
H           20.10003152766672      -19.78378002372359      -30.76611968373280
H           21.06980962787614      -18.28750429942572      -30.62621267329809
H           19.80813380308291      -18.65553680277040      -29.41394818355829
C           20.56267504140607      -19.40734782401201      -26.93704259396945
H           19.58642989508511      -19.33298161176461      -27.42428543011678
H           20.87454170491531      -18.40944441530053      -26.60889882758050
H           20.47492314505612      -20.06901379450205      -26.07161756020935
O           26.65420482422491      -19.64523386387981      -28.10546711064734
H           27.51692482155028      -19.93936888574198      -27.82276592766138
H           26.43946678853860      -18.72994661732648      -28.14631537701870
C           23.38110815868911      -24.58218373019803      -27.65429550450586
H           24.28757070362425      -24.85534513544420      -27.10429923619041
H           22.73945549823863      -25.46263999124689      -27.75409866381631
H           22.86433027083852      -23.78862816995370      -27.10694194844206
S           23.86268205515821      -23.96086247113642      -29.28651251540980
H           22.64241313002832      -23.52595487901156      -29.60914327063257
72
 energy: -105.941606583207 gnorm: 0.041704295446 xtb: 6.7.1 (edcfbbe)
Fe          25.03544548091752      -21.96652035420710      -28.79660641553827
N           25.03013572549457      -22.22695264432411      -26.85234029766162
N           26.71881582557966      -22.95977664384468      -28.88033537137063
N           25.04196606473496      -21.70966582682495      -30.79046015776114
N           23.40449009054714      -21.01586295624518      -28.70535305786672
C           24.12559719829173      -21.73121472516089      -25.96711442028311
C           24.45970449433860      -22.06221771969151      -24.61882291264406
C           25.59883166045827      -22.79534486923499      -24.69112756096639
C           25.92615785724425      -22.90270890601515      -26.07995902548150
C           27.39422891416709      -23.55928560493488      -27.86829570991562
C           28.60341990678369      -24.16318751286781      -28.33874061417185
C           28.64294206491434      -23.93430439628391      -29.68647166238787
C           27.44983932967483      -23.18006107308701      -29.99578016372724
C           25.96241578447120      -22.22167307521543      -31.64571848842871
C           25.53806383437056      -22.08744759538796      -32.99503838197421
C           24.32676500971442      -21.44634637424904      -32.97048595398450
C           24.05632534387660      -21.20242172943280      -31.57728495310319
C           22.69707061621105      -20.46995380221420      -29.72959941691376
C           21.53060487616379      -19.78276930790009      -29.24672942275668
C           21.52330208392608      -19.92984134309884      -27.90237321564922
C           22.69713000561206      -20.69580389292978      -27.58963483384530
C           23.00898580282679      -21.01025079380247      -26.29710002164657
H           22.35965459131494      -20.66873777968877      -25.51622281343634
C           27.02281764465478      -23.58294215201201      -26.54526485226154
H           27.62274960555816      -24.13457668122029      -25.84474651529221
C           27.14408702194167      -22.82530744350996      -31.27996535871490
H           27.85035549377060      -23.06446316828394      -32.05346226309852
C           22.96509565051926      -20.53879969832947      -31.07139525513905
H           22.28808995274016      -20.04298880276494      -31.73065140697657
C           26.36955157043488      -23.36269014580006      -23.56314815288665
H           26.14113140738198      -24.42145749246529      -23.45619908891832
H           26.09350105882677      -22.84423215125527      -22.65191656325250
H           27.43458255746103      -23.24394557007824      -23.73236641564093
C           23.72374905704368      -21.64210311613284      -23.40300895764644
H           22.66646275593189      -21.51557333852410      -23.60984893727622
H           24.12258482145815      -20.69507675538397      -23.04204748202065
H           23.84094300691034      -22.39341669471409      -22.62909743456633
C           29.60392369556026      -24.83963271200465      -27.48182919768795
H           29.47780747512153      -25.91910077202087      -27.55663394077761
H           29.49401234273418      -24.55143386581276      -26.44254946100339
H           30.60163440745034      -24.57008790673499      -27.81831613009339
C           29.65395116787370      -24.31149807621554      -30.62639993673480
H           29.68460547199681      -23.78704705029265      -31.57099476249280
C           30.55074047632332      -25.26111935830678      -30.36750725955741
H           30.47282864555211      -25.85870511956916      -29.48556188191852
H           31.35976034420234      -25.46455890845048      -31.03959674361816
C           26.24210833292470      -22.58755079358252      -34.19642875919894
H           27.07420508496790      -23.22195861728411      -33.92027902948091
H           26.60807214971964      -21.74213763880502      -34.77493712579037
H           25.55163282023483      -23.16325449939180      -34.80624082801421
C           23.59323779389393      -21.13176924654258      -34.16297107736482
H           24.09941948513205      -21.40578005758902      -35.07937293960318
C           22.40320833544861      -20.54355272234243      -34.25087464640507
H           21.98670772143931      -20.27654062169586      -35.20223889101854
H           21.82085365392864      -20.32140267177015      -33.38286021382225
C           20.54761241684356      -19.06932559263069      -30.08794762411986
H           20.08144729974412      -19.76059009341797      -30.78604912733348
H           21.04019720543612      -18.27688685897371      -30.64429681415571
H           19.78589474022504      -18.63584520477236      -29.45075038940368
C           20.54264187558983      -19.40022003870810      -26.92795639134151
H           19.56927645562319      -19.31927426456622      -27.40115128134490
H           20.85336881386150      -18.41226189920554      -26.59178127567685
H           20.45557650436680      -20.05345742032981      -26.06665622744863
O           26.60239211077474      -19.72859178346204      -28.12242111240639
H           27.48680541773047      -19.95767408768820      -27.83008393857946
H           26.42174916897839      -18.78676782527815      -28.15246653371966
C           23.36778427697040      -24.59279658942906      -27.63767046251526
H           24.27884196970625      -24.86063951976002      -27.11211113568012
H           22.73481990764066      -25.46479656417425      -27.75872344455120
H           22.85827845632083      -23.80401081336995      -27.09720062883909
S           23.87584789473501      -23.95853586061864      -29.26484569153010
H           22.65416191468103      -23.52227280808765      -29.60958154156650
72
 energy: -105.954622196603 gnorm: 0.032372664013 xtb: 6.7.1 (edcfbbe)
Fe          25.06954220361613      -21.92470357558506      -28.79148200347830
N           25.03838020252921      -22.20264617261315      -26.83256379583025
N           26.74409860942653      -22.93060134983180      -28.88048535507140
N           25.04473423922622      -21.70669705410355      -30.79546244770714
N           23.40162889043321      -20.97227050154408      -28.69455667714127
C           24.13065413694367      -21.71197195271291      -25.94874712252594
C           24.46353863965860      -22.05963123096932      -24.59485495125985
C           25.60296925977513      -22.79864388498283      -24.66854879335162
C           25.93455184991641      -22.88832445041419      -26.06719415413238
C           27.41642863986726      -23.55233696451696      -27.86632214134077
C           28.62302773715954      -24.17568980792634      -28.33687795858892
C           28.67182397679240      -23.93854316752973      -29.68735687884178
C           27.48432992063277      -23.17089114965303      -29.99731208129255
C           25.96768676980602      -22.22198563948213      -31.65297872277183
C           25.54454941894931      -22.08291680322121      -33.01391769406980
C           24.32699942414479      -21.44098619286043      -32.98657627446812
C           24.05732094709783      -21.20266212255844      -31.58500958333301
C           22.68700879198949      -20.43621414595263      -29.72671595836235
C           21.50860731477811      -19.76004124396026      -29.24979488066213
C           21.49958496120986      -19.90973672286538      -27.90024825658281
C           22.68205442456585      -20.66095030987286      -27.57622149340260
C           23.00781458538456      -20.99011750495271      -26.28332793061108
H           22.35656988497311      -20.65839059015032      -25.49686184953525
C           27.03141524470972      -23.57043668897657      -26.54244301987107
H           27.62617938154907      -24.12399915609705      -25.83776435649184
C           27.15328338133582      -22.82703560772411      -31.28482045297874
H           27.84320839719583      -23.09057033356505      -32.06725125179453
C           22.96801197774195      -20.53071614325459      -31.06965273786699
H           22.28693021974171      -20.03777959448277      -31.73056983121184
C           26.38355227749883      -23.37600793675362      -23.54484753061833
H           26.16703008887987      -24.43743694318791      -23.43575354888312
H           26.11832275235101      -22.86825707760381      -22.62337759270140
H           27.44897774569602      -23.25478354745349      -23.71340975404338
C           23.71740780158886      -21.64049230042930      -23.38199018859655
H           22.66026468897235      -21.51666799953183      -23.59149998293344
H           24.10616843508840      -20.69006736280992      -23.01727708000589
H           23.82980423039496      -22.38359742421211      -22.59878438674245
C           29.61858252213511      -24.84895229603402      -27.46672190368115
H           29.50147685938305      -25.93084429227899      -27.52222015885437
H           29.50540983299588      -24.54835173274385      -26.43103237906618
H           30.62144818693129      -24.58573995275686      -27.79434355491777
C           29.68805101924864      -24.31731625158191      -30.62642707020393
H           29.72086550540150      -23.76444086087638      -31.55562293504675
C           30.58200496960670      -25.28169378495201      -30.39873424128470
H           30.52585375261952      -25.89151032781522      -29.52199119395803
H           31.36729355264038      -25.50287090488728      -31.09727202298643
C           26.25407419192285      -22.59144113723391      -34.21678385025935
H           27.08639260851876      -23.22851763623762      -33.94533922924818
H           26.62735446658539      -21.75700188289809      -34.80823813257112
H           25.56941413148465      -23.16960836591062      -34.83236200891810
C           23.58246864389649      -21.11304800325602      -34.17098301220241
H           24.10816662452533      -21.36976739810401      -35.08241774803115
C           22.38202354632002      -20.54255122096683      -34.27698053855324
H           21.95742242003829      -20.31243494292726      -35.23736692471066
H           21.78318793915851      -20.29747680922168      -33.42459159713766
C           20.52420290782830      -19.05322259469791      -30.10580315528657
H           20.06158379833451      -19.74350477982612      -30.80788774589113
H           21.01369804620195      -18.26155050955481      -30.66725540393293
H           19.75253328440335      -18.61239946380357      -29.48480137972859
C           20.51635403843066      -19.38854698067092      -26.91938495919391
H           19.53880568759991      -19.29933050288971      -27.38245378736337
H           20.82708914810548      -18.40442060765676      -26.57054681371249
H           20.43044558845627      -20.04478854865264      -26.05966265562562
O           26.53307408794955      -19.84529348628438      -28.15507095615653
H           27.42940747876416      -20.01687910938550      -27.84170151678397
H           26.37130229414141      -18.89331402953600      -28.16508213645453
C           23.35906045007113      -24.60256879475545      -27.62252611592760
H           24.27052460172009      -24.87563270549059      -27.10457231738882
H           22.72681429164233      -25.47122638257407      -27.76605862182051
H           22.84811958213660      -23.81874499849098      -27.07900402023011
S           23.89051143017394      -23.95083685775070      -29.24222237221463
H           22.67352105900695      -23.51037119295494      -29.60567882155689
72
 energy: -105.962738302488 gnorm: 0.026543126209 xtb: 6.7.1 (edcfbbe)
Fe          25.09328417132791      -21.89358818252911      -28.78369458776694
N           25.05021958332060      -22.17547362975858      -26.81021798847452
N           26.77676959558917      -22.90949723142522      -28.88124350413388
N           25.05851818611809      -21.69519378343103      -30.80327418932924
N           23.39842139400188      -20.92707291071835      -28.68353442770556
C           24.13701699299711      -21.68748461547171      -25.93133882820092
C           24.46832959758583      -22.05262375970957      -24.57560866721438
C           25.60724690575127      -22.79411246090368      -24.65087701734029
C           25.94583775173351      -22.86833436354868      -26.05343458426429
C           27.44170578515676      -23.53684784782487      -27.86276248446847
C           28.64284760200664      -24.17598035765851      -28.33160101651240
C           28.70076596688186      -23.93673020613397      -29.68250635260841
C           27.51681553149415      -23.16245467712453      -29.99873508367456
C           25.97657981495134      -22.22032207713790      -31.66069430483290
C           25.54960019515921      -22.07641472321379      -33.02524015663093
C           24.33368215797184      -21.42739752465035      -32.99244403719290
C           24.06587182627061      -21.19107310341457      -31.58647660426492
C           22.68331624255608      -20.40235157349065      -29.72225428844335
C           21.49343314259431      -19.73648063860794      -29.25052511589200
C           21.48238328511112      -19.88579031246520      -27.89893860434622
C           22.67492818584570      -20.62220070319741      -27.56489144911900
C           23.01263820601838      -20.96369969957597      -26.27284075700312
H           22.35695439929571      -20.64334950404118      -25.48112328325493
C           27.04303958850975      -23.54769781003479      -26.53897369487680
H           27.63133497851679      -24.10768465106890      -25.83107872812650
C           27.16120154289361      -22.83160101953580      -31.28868234328958
H           27.83674170938477      -23.11983627610523      -32.07840528722651
C           22.97687481898764      -20.51799093291650      -31.06547475015984
H           22.28888159506304      -20.03829984075001      -31.73461097970936
C           26.39376962089615      -23.38376885772405      -23.53162139016606
H           26.18687646014646      -24.44938347337997      -23.42661604088245
H           26.13636061637975      -22.88948358059654      -22.59805234483683
H           27.46109002326402      -23.25952510645766      -23.70084957646085
C           23.71385297473125      -21.63857053225062      -23.36147157386352
H           22.65465172088276      -21.52277532823305      -23.57458956694043
H           24.09071875463761      -20.68261895234839      -22.99379452611225
H           23.82572511279257      -22.37708840036105      -22.57170722610498
C           29.63493613310556      -24.85359592262107      -27.45552889754055
H           29.51829147439910      -25.93737136623285      -27.49579660356462
H           29.52110297142119      -24.54207617841491      -26.42102679895395
H           30.64360875843589      -24.60188002536459      -27.77953214522654
C           29.71902797186532      -24.32167483863747      -30.62481246402533
H           29.75465095977303      -23.74702606350071      -31.54249649451383
C           30.60486447220354      -25.30010368441722      -30.43158385991825
H           30.57284921531534      -25.92624152129952      -29.56041666490236
H           31.37190457492227      -25.52573374808532      -31.15253979625041
C           26.25854871424307      -22.59095060730943      -34.23169020931820
H           27.09199904040710      -23.23185499958947      -33.96275193396800
H           26.64041695956780      -21.76494702796646      -34.83326980922214
H           25.57651586832334      -23.17189676633029      -34.85131186969689
C           23.57740697414524      -21.09574060425751      -34.17464448812817
H           24.11154287994790      -21.34192626512175      -35.08544151380702
C           22.36771513786388      -20.54925706053873      -34.29892701697734
H           21.94408434295983      -20.34711080838223      -35.26897221353907
H           21.74464007246304      -20.29106596267458      -33.46383997913691
C           20.50514024294698      -19.03984076480745      -30.11921744160769
H           20.04687196379622      -19.73436110700739      -30.82307335423451
H           20.99112168965846      -18.24849151772362      -30.68837342568820
H           19.72170268723984      -18.59370667907817      -29.51296515989219
C           20.49066835071467      -19.37472318647326      -26.91429517502680
H           19.51029388553753      -19.27844874948481      -27.37314065596250
H           20.79854995273124      -18.39343833985247      -26.54990794418953
H           20.40350617441480      -20.04049701637747      -26.05950077670150
O           26.45275181173570      -19.98266483986943      -28.21431752486199
H           27.33651648546697      -20.12720895597491      -27.85615829579680
H           26.30221393586195      -19.02684342495159      -28.17390272306858
C           23.35429947069581      -24.61120906353795      -27.60877039548047
H           24.26076662387744      -24.89646340390761      -27.08801284451631
H           22.71835400933817      -25.47534946915876      -27.77058436070343
H           22.84016312550796      -23.83299065392259      -27.05808346007734
S           23.90229763604674      -23.94972111357146      -29.22267126565406
H           22.69538939624107      -23.49378961575957      -29.59425707641831
72
 energy: -105.966397980084 gnorm: 0.021205570104 xtb: 6.7.1 (edcfbbe)
Fe          25.09196855235283      -21.90036861183112      -28.77982669411000
N           25.05646250036098      -22.15866728476592      -26.79423309263567
N           26.80112002225376      -22.90556191573571      -28.88213807307096
N           25.07273276059803      -21.68635174747372      -30.80849551922331
N           23.39252007781662      -20.89936492662640      -28.67582449326618
C           24.14116736297303      -21.66677341786616      -25.91922729113682
C           24.47316153460129      -22.04114540453327      -24.56373549847078
C           25.61206574465988      -22.78217759088026      -24.64056534269459
C           25.95534181110521      -22.84964831343875      -26.04302134785686
C           27.46192464084331      -23.52068612568194      -27.85820199894365
C           28.66052719131377      -24.16572138326017      -28.32442939799450
C           28.72272017158307      -23.93161402892030      -29.67549356260886
C           27.53688895532192      -23.16017090928127      -29.99946947782567
C           25.98516230443826      -22.21880935655114      -31.66503816602077
C           25.55334183208350      -22.06929187007807      -33.02842327317092
C           24.34271978147713      -21.41172114126328      -32.99003427218794
C           24.07737412591678      -21.17534206994427      -31.58251719555982
C           22.68374528640490      -20.37944257858105      -29.71824225066420
C           21.48784739226035      -19.71679280672039      -29.24980001749193