78
 energy: -115.930562755991 gnorm: 0.309520366132 xtb: 6.7.1 (edcfbbe)
Fe          35.15100000000000        4.35600000000000       10.12000000000000
N           36.98599999999999        4.06100000000000        9.69400000000000
N           34.91900000000000        5.56800000000000        8.54300000000000
N           33.31800000000000        4.70200000000000       10.75600000000000
N           35.47400000000000        3.15100000000000       11.68400000000000
C           37.96900000000000        3.24700000000000       10.20800000000000
C           39.20200000000000        3.31000000000000        9.39700000000000
C           39.04100000000000        4.15000000000000        8.33300000000000
C           37.62900000000000        4.64800000000000        8.57200000000000
C           35.79299999999999        5.97100000000000        7.64500000000000
C           35.22200000000000        6.87300000000000        6.64600000000000
C           33.90500000000000        7.04400000000000        7.04800000000000
C           33.74100000000000        6.24200000000000        8.22900000000000
C           32.39600000000000        5.58400000000000       10.22400000000000
C           31.12600000000000        5.67900000000000       11.01500000000000
C           31.38200000000000        4.92500000000000       12.17900000000000
C           32.71500000000000        4.29500000000000       11.95400000000000
C           34.59700000000000        2.92200000000000       12.79600000000000
C           35.16000000000000        2.04800000000000       13.77800000000000
C           36.43000000000000        1.79800000000000       13.36800000000000
C           36.60200000000000        2.50300000000000       12.06800000000000
C           37.83600000000000        2.52400000000000       11.38800000000000
H           38.68600000000000        1.97300000000000       11.78700000000000
C           37.14600000000000        5.44500000000000        7.53800000000000
H           37.76400000000000        5.66900000000000        6.67100000000000
C           32.55300000000000        6.23600000000000        9.00000000000000
H           31.69600000000000        6.78200000000000        8.60700000000000
C           33.28500000000000        3.43200000000000       12.90200000000000
H           32.68500000000000        3.14100000000000       13.76400000000000
C           39.99600000000000        4.50600000000000        7.18800000000000
H           40.95000000000000        3.95200000000000        7.31500000000000
H           40.20800000000000        5.59600000000000        7.20200000000000
H           39.54000000000000        4.22000000000000        6.21600000000000
C           40.46299999999999        2.42300000000000        9.74000000000000
H           40.13000000000000        1.40800000000000       10.04700000000000
H           41.03000000000000        2.88500000000000       10.57600000000000
H           41.11300000000000        2.33300000000000        8.84400000000000
C           35.88200000000000        7.42500000000000        5.36500000000000
H           36.74200000000000        6.78000000000000        5.08400000000000
H           36.25000000000000        8.45700000000000        5.54700000000000
H           35.14500000000000        7.42600000000000        4.53400000000000
C           32.85200000000000        7.86300000000000        6.46500000000000
H           31.82500000000000        7.56900000000000        6.71600000000000
C           32.93100000000000        9.00000000000000        5.61000000000000
H           33.90800000000000        9.39000000000000        5.28900000000000
H           32.01600000000000        9.50100000000000        5.26100000000000
C           29.98200000000000        6.71800000000000       10.81200000000000
H           29.81800000000000        6.88100000000000        9.72500000000000
H           30.26400000000000        7.68400000000000       11.28300000000000
H           29.04300000000000        6.33500000000000       11.26500000000000
C           30.62300000000000        4.70000000000000       13.46400000000000
H           31.01600000000000        3.97800000000000       14.19500000000000
C           29.40800000000000        5.37100000000000       13.80500000000000
H           28.96300000000000        6.10500000000000       13.11700000000000
H           28.90300000000000        5.16100000000000       14.76000000000000
C           34.41599999999999        1.42700000000000       14.93200000000000
H           33.48500000000000        0.94900000000000       14.55900000000000
H           34.14699999999999        2.21200000000000       15.67100000000000
H           35.05000000000000        0.65300000000000       15.41400000000000
C           37.51700000000000        1.14600000000000       14.21200000000000
H           37.60500000000000        0.07300000000000       13.93800000000000
H           37.25300000000000        1.22300000000000       15.28800000000000
H           38.49000000000000        1.64700000000000       14.02300000000000
O           35.75600000000000        6.03500000000000       11.28500000000000
H           34.95100000000000        6.49800000000000       11.51800000000000
H           36.58300000000000        6.26900000000000       11.51500000000000
C           32.29800000000000        0.12500000000000        7.50500000000000
H           32.48400000000000       -0.86500000000000        7.97400000000000
H           32.30800000000000        0.00800000000000        6.40000000000000
H           31.30700000000000        0.50100000000000        7.83800000000000
N           34.68600000000000        0.89000000000000        7.66500000000000
H           35.06100000000000        0.15000000000000        7.10700000000000
C           33.38100000000000        1.09500000000000        7.92700000000000
C           35.37500000000000        1.87200000000000        8.29900000000000
H           36.45900000000000        1.97400000000000        8.28500000000000
N           34.55700000000000        2.61200000000000        8.88200000000000
C           33.22400000000000        2.19300000000000        8.71100000000000
H           32.37000000000000        2.69500000000000        9.14100000000000
78
 energy: -116.010958578207 gnorm: 0.138188531502 xtb: 6.7.1 (edcfbbe)
Fe          35.15388330513763        4.33639532743166       10.12629475891780
N           37.01999137568630        4.07077869101067        9.64823562002730
N           34.90099034758474        5.58972101365622        8.55004652080936
N           33.29348060327028        4.72277194187684       10.78340787732043
N           35.47214291230740        3.15461913447318       11.72605436967724
C           37.98186811817690        3.25881836209820       10.20131330937239
C           39.21476307354273        3.28762504391975        9.40690158453091
C           39.03266061389825        4.13401891957720        8.35806888723829
C           37.63810260479238        4.63300033210976        8.53269021032589
C           35.78872553126333        5.95761768491435        7.61537529584127
C           35.21586530314456        6.86957903198561        6.64018579113916
C           33.90176144066128        7.05893639685837        7.04144411564714
C           33.72786361831144        6.25056447070491        8.23487752520435
C           32.37094914113381        5.57085730722542       10.21682519771911
C           31.15444013289801        5.70169128817951       11.04803237183556
C           31.38296134208725        4.92646643935144       12.18433408155214
C           32.70560311491634        4.30199032664390       11.96332372150695
C           34.57476205800449        2.90661611379737       12.77271362075525
C           35.15778297069188        2.04538816108498       13.76252453243107
C           36.44236483574434        1.81513167795114       13.36875772189085
C           36.61123633649787        2.51057219678744       12.08501994137895
C           37.82186700551680        2.53294052973823       11.37802149010646
H           38.66630364219231        1.97981402243856       11.77549333594757
C           37.11795548922914        5.44749570163931        7.54856620045016
H           37.74107368284846        5.68342553356812        6.69556813491822
C           32.55389427606130        6.22566884952618        8.99973095302680
H           31.70926263773736        6.78379268887886        8.61435436289850
C           33.28815786419101        3.42935582241047       12.87800132094851
H           32.70660481551734        3.14555725354883       13.74828174158929
C           39.97263612643286        4.49713113540382        7.21976814899083
H           40.92555398641716        3.96153731772820        7.32154539791064
H           40.19568510267747        5.57342182909353        7.20776474982991
H           39.54304296039725        4.22568268935084        6.24375099005304
C           40.44396150162716        2.43249324310075        9.73724889051877
H           40.13221097793681        1.42630070048887       10.04091100842484
H           41.01623431066753        2.88048455158948       10.55940917558400
H           41.09683980232627        2.34050638782640        8.86162898832607
C           35.87729451597559        7.41402916647922        5.38774150585076
H           36.72847013733934        6.78927829428689        5.09148514353725
H           36.24336856891799        8.43737900644100        5.54742757267399
H           35.15620851835943        7.42734177175946        4.55951775472324
C           32.85562798591331        7.87750893203565        6.44951532420192
H           31.83931176777075        7.57919764082740        6.71154125992757
C           32.94107219287746        8.96237554335260        5.63026012743258
H           33.89211113258592        9.37309515815721        5.30650791102835
H           32.04356435828554        9.47162550332233        5.28108165641463
C           30.01269567279040        6.69374756421330       10.80716302112907
H           29.83090454927041        6.87251087377392        9.73998018645528
H           30.26186854371306        7.65843323754048       11.27339041100453
H           29.07309925907958        6.33389907086221       11.24385732663035
C           30.60039622737531        4.72204215117850       13.42984428553026
H           31.00021852525242        4.01008936717973       14.15823078246128
C           29.44587928399525        5.35508794146987       13.78531256558064
H           28.98057808968198        6.08832040023822       13.13877768617059
H           28.93948394437746        5.15344985775716       14.72949439596783
C           34.42203719740293        1.43747672988468       14.92277242078649
H           33.50039162122322        0.95739118142483       14.56711753742873
H           34.14906981957068        2.20020396573548       15.66379754961081
H           35.03863280008395        0.67152690146305       15.40802436014257
C           37.51222232582394        1.14636765362462       14.19445416510797
H           37.60911122288689        0.08312048328321       13.93865738066839
H           37.25995640877917        1.22154547688970       15.26044362326513
H           38.47785150024389        1.63635761056336       14.02817877143367
O           35.73818243885724        6.03263645228176       11.28185530197011
H           34.95383695510539        6.51798610604578       11.53270213540439
H           36.60582591791212        6.29032099456346       11.53112201116376
C           32.29881596202797        0.12262442204998        7.50034258075184
H           32.47715843971009       -0.85597694488151        7.96321528328218
H           32.30093871093676        0.00448407531220        6.41067021114038
H           31.32332322133758        0.49396270218423        7.82786598578790
N           34.68149584238712        0.88189698862226        7.66397667883457
H           35.05946160421044        0.14019236253873        7.10277185968449
C           33.36491774792432        1.08117487379930        7.93116398668664
C           35.36819956326109        1.87438013119411        8.29713813812917
H           36.44229575382201        1.97044667015522        8.27986019456346
N           34.54614223207498        2.64916120100900        8.90859345345928
C           33.24920473314653        2.19227756126024        8.71102835776697
H           32.39829174618288        2.69026280215275        9.13464715156593
78
 energy: -116.037455859471 gnorm: 0.046295778897 xtb: 6.7.1 (edcfbbe)
Fe          35.14992309280629        4.32117846659144       10.12557928148846
N           37.04921629464213        4.07144483103711        9.60274624812997
N           34.87867814048516        5.60339708787124        8.55159660442386
N           33.25856049167149        4.72840510702841       10.80056341695195
N           35.46349355364497        3.15011871830501       11.75070007903356
C           37.98745186837997        3.26523669962113       10.19061098997924
C           39.22121644857582        3.27149985128997        9.41342089638214
C           39.01950933267715        4.11779753187263        8.36773581888635
C           37.64884373439492        4.60940938774253        8.49899132474833
C           35.78184343910065        5.94250990661415        7.59410428782317
C           35.20440019259919        6.85711692206231        6.63652112493890
C           33.89927118894177        7.06304401419395        7.04012563646160
C           33.71895647370487        6.25788969797249        8.24570023806890
C           32.35415734050953        5.57376741888094       10.22147887422112
C           31.17221093702093        5.71364434369493       11.06082643962556
C           31.38839280459544        4.93482149470514       12.18044699665911
C           32.69602089970836        4.30985394873342       11.96902921857096
C           34.56466261463326        2.89607724124530       12.74784825213098
C           35.15624117479479        2.03886099075068       13.74655652470527
C           36.45109655978963        1.83261601769348       13.36896808405263
C           36.61760441815841        2.52424372056580       12.10137041711935
C           37.80326374576646        2.55074665459470       11.36888591622348
H           38.64224562920325        1.99049085928051       11.76023904236367
C           37.08563039080253        5.44704855578308        7.55827265119626
H           37.71521181566723        5.71145328665111        6.72022065537872
C           32.55804810662030        6.22737681503031        9.00805171610098
H           31.72020084322508        6.79224844691548        8.62578512781062
C           33.29387601042171        3.42937529819005       12.85623462767328
H           32.72595987904271        3.14608554834688       13.73199596529667
C           39.95354784512624        4.48505855065473        7.24763385512094
H           40.90438295362328        3.96138552369457        7.34176711620454
H           40.17090179147452        5.55488220241642        7.23131451792769
H           39.53093923868202        4.22355678770793        6.27440249034373
C           40.42315772156586        2.44536497290226        9.73557895780469
H           40.12763714311558        1.44233928131776       10.03788736389486
H           40.99975860321390        2.88425723058848       10.55028859020578
H           41.07870066924102        2.35498020052057        8.87179445516678
C           35.86839606499181        7.40072117291958        5.41089383884113
H           36.71585202733506        6.78866498340026        5.10939220049578
H           36.23349469737854        8.41824827059905        5.56375396597819
H           35.15824112489337        7.42684397476673        4.58329047248130
C           32.85665981053060        7.88137855708936        6.44663238667459
H           31.84973885505855        7.57520682607960        6.71684182839950
C           32.95640136700113        8.93214950218414        5.65099086462955
H           33.88998443699713        9.35580263698294        5.32266206483129
H           32.07299139714515        9.44388679844924        5.29282908342684
C           30.04276988500187        6.67069658991078       10.80367916352772
H           29.86791987971630        6.84918410194487        9.74478902790048
H           30.26717791878893        7.63622681715452       11.26757503207790
H           29.10588862823155        6.31378416154079       11.22692431230987
C           30.60195916767918        4.74982392424589       13.39778528241477
H           31.00400412891255        4.02774025830511       14.10713959990047
C           29.47890764469228        5.34755177836912       13.75707202844229
H           28.98834907892331        6.08649003943337       13.14963764566256
H           28.97918388271942        5.14053994532258       14.69445291034886
C           34.42760913773938        1.44602410460281       14.91264439933678
H           33.51005720709300        0.96695086713238       14.56961805752889
H           34.15638514705780        2.20003387106510       15.65143745896667
H           35.03615341272831        0.68866458788677       15.40145522827419
C           37.50880789206334        1.14981344020092       14.17669837571749
H           37.60605505269167        0.09358161310521       13.92529197780484
H           37.26338942217328        1.21906339801255       15.23651221530946
H           38.47277916143980        1.62881003706331       14.02451547992796
O           35.73026201518160        6.03209873514801       11.28430524666232
H           34.97502459161922        6.55365990849300       11.55986924514129
H           36.60686995890339        6.31240212320699       11.54715375344645
C           32.29855872828228        0.12312633977915        7.49814474567819
H           32.46932324458727       -0.85239684585139        7.95185983634610
H           32.29765657179391        0.00492931362138        6.41706516096001
H           31.32967170493729        0.48882615367174        7.81773997292875
N           34.67801855961193        0.88229416457675        7.67148051305462
H           35.06000227383909        0.14078004059202        7.10756043694756
C           33.35087477890283        1.07328445731339        7.93996757974885
C           35.36146421653503        1.87585486221286        8.29720076058766
H           36.42738596674909        1.96888191795605        8.27272195978375
N           34.54499140635234        2.67435101098654        8.93208356641318
C           33.28052200085504        2.19414869563967        8.71695479696447
H           32.42800416523959        2.68829325181982        9.13410372101325
78
 energy: -116.043370153717 gnorm: 0.020466806780 xtb: 6.7.1 (edcfbbe)
Fe          35.14654490110619        4.32515382024812       10.12658536084360
N           37.04977111510311        4.06325505600848        9.58118097952104
N           34.86009926074949        5.59413412733898        8.55283729142562
N           33.25109132847534        4.73139325073170       10.80198684542759
N           35.46205773920725        3.15892754525090       11.75071004074869
C           37.97882069704819        3.26362381817881       10.18011885173219
C           39.21090620389715        3.26303400105262        9.41206082328458
C           39.00650527853733        4.10387058768783        8.36246018492446
C           37.64466665428985        4.58900919851329        8.47840138253352
C           35.76664758405965        5.92555367780592        7.59195611367204
C           35.18802435539092        6.84117022671615        6.64077081827675
C           33.89090725246392        7.05172546888444        7.04670334849899
C           33.71062700113517        6.25197365584487        8.25313258789638
C           32.35392044747055        5.57697649484559       10.22217365840982
C           31.18891143994514        5.73012611470031       11.06301201881112
C           31.39897903642131        4.94290080775119       12.17213344600254
C           32.69420152498432        4.30897319738073       11.96349951785847
C           34.55903446208532        2.88380927138602       12.72749377045711
C           35.15448524331718        2.03481223084421       13.73457769340294
C           36.45254314662133        1.84505494436544       13.36453933305123
C           36.61888704525187        2.53946808489018       12.10357276461525
C           37.79185080570027        2.56422548691237       11.36256121558056
H           38.62871034587215        1.99953010108387       11.74760832523694
C           37.06560730068838        5.44307109209677        7.55667946657349
H           37.69818858927398        5.74987797456073        6.73344650043208
C           32.55461913134313        6.23147092061542        9.01329823605016
H           31.72477976375384        6.81748293135273        8.64411508490804
C           33.28923511045645        3.41616984918182       12.83818607663211
H           32.72999173348585        3.13581357707801       13.71871416788512
C           39.94368942346667        4.47453637037098        7.26091149707181
H           40.89286662297684        3.95437607128195        7.36591482292117
H           40.14538942984058        5.54575883989144        7.26024721067594
H           39.51871681904279        4.21499295436131        6.29050197628216
C           40.41470713576201        2.45129243838353        9.73986478509334
H           40.12555992736439        1.44599174610529       10.04169531031259
H           40.98488203237932        2.89636409300385       10.55557279248671
H           41.07166404828634        2.36972322606618        8.87666368239099
C           35.85869110303647        7.38907134577295        5.42782359206190
H           36.70546154243537        6.77556698951335        5.12980827716982
H           36.22499557393271        8.40268894295348        5.59699862614754
H           35.15137478945017        7.42663192723541        4.59942094390289
C           32.84980827030103        7.86457819621088        6.45570583695563
H           31.84435549745469        7.56102192763803        6.72678409484641
C           32.97274008215446        8.91687496270914        5.65222385357735
H           33.91224114400314        9.33782655058492        5.34306138702511
H           32.09792156730136        9.43360661780634        5.28703879207979
C           30.05870877997447        6.66240601888877       10.78678152637643
H           29.91776213859019        6.83013865227839        9.72231520853898
H           30.26049168589135        7.62831251614965       11.25926878010975
H           29.12336258063317        6.27983420293796       11.18603430468850
C           30.60933435664803        4.74554739872731       13.36838497597919
H           31.02367462602456        4.02128863265280       14.06255271394612
C           29.48908385872518        5.35485939432890       13.74995387601920
H           28.99059698133008        6.11332873032238       13.17211428263800
H           29.00584800585572        5.11939904014554       14.68535623621123
C           34.43126159035867        1.45462279937387       14.90562894280534
H           33.51216333038797        0.97382078437454       14.57144621070293
H           34.16502002216393        2.21736850465979       15.63662681926347
H           35.04313363076159        0.70465000164782       15.39982347225653
C           37.51080528597775        1.15049201366124       14.15637244693586
H           37.60005816121554        0.09743466489599       13.89013762390031
H           37.26983365858477        1.20858032636564       15.21679856555107
H           38.47787972312506        1.62410224265667       14.00709496069246
O           35.73157071052816        6.04834265689480       11.30337843198777
H           35.00136565560657        6.60134758080580       11.59515822346723
H           36.60782759547673        6.33765279952820       11.56485412142532
C           32.29814653100513        0.13002262440115        7.49962318394170
H           32.46002075323389       -0.85257392849074        7.94256687727570
H           32.30207832878451        0.01781482484842        6.41725818092199
H           31.32502490663411        0.49200594317898        7.81108408467367
N           34.67821343996377        0.88533591872998        7.68598652097935
H           35.05993371705748        0.14457838097058        7.12003908767475
C           33.34870170944226        1.07511390472245        7.95676417067433
C           35.36391255349616        1.87693558262497        8.30217058242972
H           36.42828766777892        1.97076874408682        8.26496166354635
N           34.55364804428070        2.68216257837080        8.94639315915606
C           33.29632564952962        2.19742625487482        8.73570177025291
H           32.44324481361004        2.69138949718876        9.15061560928403
78
 energy: -116.046178964479 gnorm: 0.016177286126 xtb: 6.7.1 (edcfbbe)
Fe          35.14117782877294        4.32975979258446       10.12711018406261
N           37.04256141725905        4.05747729131083        9.56967960668541
N           34.84508387176101        5.57765127935559        8.55736248481166
N           33.25098994547638        4.72718661752002       10.79674124176614
N           35.45912413828147        3.16576574064085       11.74077751422526
C           37.96731913462070        3.26240260469713       10.17146739995215
C           39.19754592538886        3.25708163206977        9.40975768523472
C           38.99528281876639        4.09143365188375        8.35384213645412
C           37.63940621752045        4.57650163143780        8.46637969459097
C           35.75238542145165        5.90788619301634        7.59716012268260
C           35.17332739563467        6.82399335612084        6.64729771627783
C           33.88156241300001        7.03887157930623        7.05417448191537
C           33.70338821461688        6.24153509890194        8.25892573602981
C           32.36040586913872        5.58187336196009       10.22583912476794
C           31.20086640142723        5.73794814404753       11.06213827589809
C           31.40681577115691        4.94699444867758       12.16824468392569
C           32.69500617249815        4.30545828806330       11.95707592170068
C           34.55790608976097        2.87943192692613       12.71232436927604
C           35.15251968698957        2.02999362997883       13.72097326347328
C           36.45199372735392        1.85445323210823       13.35683621946483
C           36.61723656177305        2.55127119939721       12.09916558584536
C           37.78325263646315        2.57334498913582       11.35684278478811
H           38.62147158383120        2.00916139695737       11.73813143649039
C           37.05387952955567        5.44068720812311        7.55657682480219
H           37.68305177140572        5.77861436170362        6.74307868195455
C           32.55249805026310        6.24144376618056        9.02191564571373
H           31.73136900141742        6.84902328303743        8.66749428862342
C           33.28561578152585        3.40510800687812       12.82574319606547
H           32.72912427801851        3.11073290771430       13.70162819453228
C           39.93776065876382        4.46616213420259        7.26430699065371
H           40.88709890130146        3.94980646288905        7.37919153407512
H           40.12878050358479        5.53922954420496        7.27801389739026
H           39.51752937161060        4.21005659313950        6.29144462088904
C           40.40886873185741        2.45621564769507        9.74652333180615
H           40.12783027234212        1.44752684792643       10.04781541147559
H           40.96683859318577        2.91102666471953       10.56617817238473
H           41.07123354499765        2.38313525443480        8.88593451945808
C           35.85065563652562        7.37717392687207        5.44231413309590
H           36.69446952897170        6.75873970001724        5.14520351134857
H           36.22215215540284        8.38589910791226        5.63196822199480
H           35.14592581244764        7.42933399295636        4.61234948369263
C           32.84335906484991        7.84911514620892        6.46528931049411
H           31.83534318296333        7.54883998409987        6.72384572411713
C           32.98826494897123        8.90283454542509        5.66253718783615
H           33.94029936467597        9.30444144855311        5.36866133191250
H           32.12246827634772        9.41894805589909        5.27788935324462
C           30.06346480695462        6.65133046861944       10.76901020393114
H           29.95706128657901        6.81675014569989        9.69887414217229
H           30.23241716353733        7.62018058119443       11.24951620900075
H           29.12850338097734        6.24064817834265       11.14312194825437
C           30.61895215655385        4.75366552282819       13.35706077290540
H           31.00972262812794        3.99873208915428       14.02821044766604
C           29.50105164682991        5.36893583021249       13.74155187619640
H           29.01039769678381        6.14249547973791       13.18000992171365
H           29.02438935880594        5.10066155963392       14.67093186853060
C           34.43375398897177        1.46377324043806       14.89852078421784
H           33.51063281326705        0.98110399375579       14.57695600739109
H           34.17558665787351        2.24058363982398       15.61934757971266
H           35.04923819481693        0.72085067632756       15.40019673498789
C           37.51506681731590        1.14810558916059       14.13071663202755
H           37.59405478303564        0.09904206285838       13.84107223191775
H           37.28359864068858        1.18856597041740       15.19456869713267
H           38.48436318393730        1.61818423295243       13.97890924532529
O           35.73574535553971        6.06971325055957       11.32794456706921
H           35.03397656774718        6.65509890477041       11.63219331697612
H           36.60942917471449        6.36971753068066       11.58229712372418
C           32.29716149069036        0.14179195302561        7.50401639117443