78
 energy: -116.057897954507 gnorm: 0.000033574522 xtb: 6.7.1 (edcfbbe)
Fe          35.15608163533999        4.39038858623266       10.24465161148765
N           37.04556246608595        4.07404518166612        9.62565611344976
N           34.84709328066527        5.58218575939594        8.64883629196924
N           33.30383194495532        4.76002771635506       10.88424656982603
N           35.49627007621363        3.25141715226901       11.84332285744305
C           37.98945023698703        3.30835178181554       10.23662244951742
C           39.21437283824214        3.29776853686783        9.47022506165601
C           38.98585219640164        4.06948594388216        8.37304444191154
C           37.62431485763226        4.54180958738408        8.48466404325596
C           35.71812533964933        5.83539605581326        7.63193250937737
C           35.11994658415586        6.70015846201479        6.64891415006855
C           33.85266405880471        6.97272271443648        7.09432271402431
C           33.70321782477289        6.24877927174953        8.34088795886463
C           32.37722844527096        5.56234787229508       10.29213575844965
C           31.15334054899221        5.58301735915146       11.05405793066024
C           31.35926981795255        4.76328199468833       12.13076794033639
C           32.71230914455612        4.25687197064256       11.99471842325757
C           34.61195640491444        2.95226692411531       12.82878322601261
C           35.21782955411022        2.08405280540082       13.81579626256658
C           36.49396575249975        1.86796264050953       13.40116185590400
C           36.64788897687272        2.60527227099077       12.16541984801535
C           37.81578044756691        2.62434485288621       11.42620112946048
H           38.65495177861707        2.05925979238059       11.80248660586363
C           37.01543511445780        5.35786916216153        7.55204998042770
H           37.60027502123835        5.64887188211229        6.69312289001200
C           32.55764159839681        6.26552956997985        9.11367035844618
H           31.73494321836577        6.87256480930525        8.76794086563870
C           33.31241682366268        3.41203746262848       12.90860397727117
H           32.72847349792184        3.10128644294040       13.76132465610323
C           39.90314398812824        4.40477959057065        7.24728941093201
H           40.87472148677446        3.93736759687980        7.38745398734966
H           40.04848428658213        5.48317653548944        7.17810793303861
H           39.48954535521710        4.05873951644584        6.29966465171832
C           40.44879905630835        2.56360744529452        9.86869576381232
H           40.25313247451508        1.49344647659605        9.94307978638354
H           40.80344229079201        2.90941756494107       10.83990894088477
H           41.24186006353156        2.71613878969749        9.14081475619358
C           35.76527971864162        7.12931872236516        5.37757283373354
H           36.36328905109810        6.32192183635189        4.95765376137190
H           36.42195845676117        7.98552609235386        5.54195966434812
H           35.00611339935201        7.41418953824355        4.65195617857496
C           32.82073755567614        7.77818806615866        6.47997138523909
H           31.80367762498870        7.44074613952603        6.64338988189689
C           33.02509217301045        8.87565958509813        5.75863053009169
H           34.00787939762051        9.28521384453926        5.60319105661701
H           32.20654858768042        9.42048810170023        5.31828403240733
C           29.91235452231971        6.30870057851857       10.66614732875631
H           29.75400665759321        6.25726437220837        9.58975190895668
H           29.97311901615702        7.36120755585041       10.94769356203905
H           29.05160361607428        5.86851437914309       11.16536315677356
C           30.45153531762992        4.41251611618211       13.20068698502710
H           30.55031381356711        3.40422407155429       13.58624009622411
C           29.53926506592198        5.21890064879211       13.73342283952126
H           29.43066746030832        6.24384338731048       13.42457212663661
H           28.88521886256250        4.88653580983177       14.52258683717946
C           34.51847091453180        1.57238121556558       15.02792099435158
H           33.63941204878765        0.99168668683768       14.74720178295459
H           34.18996029476954        2.40019459772840       15.65638667535876
H           35.17605595014260        0.93627876043529       15.61549126928829
C           37.57050315232551        1.05543485739838       14.03592806336638
H           37.90334792902529        0.26337754886756       13.36417750385003
H           37.21661735719510        0.59682268512292       14.95587075143735
H           38.43161205282669        1.68019146340923       14.27393849196594
O           35.96219235973936        6.25585368381997       11.30602009463700
H           35.68023711023629        6.94334061718251       10.69290938793228
H           36.90694542854453        6.12440315492333       11.17094582806533
C           32.34486619642517        0.87585237524376        6.95520456776476
H           31.86084192326065        0.01796342332117        7.42187313082987
H           32.82515444553970        0.53836207925469        6.03686420075736
H           31.58504498937639        1.60835629127580        6.70176683362888
N           34.41917172706440        0.79725428268720        8.35614624763974
H           34.64828032117985       -0.15989004127068        8.14408596346461
C           33.33675322767307        1.48675493104662        7.87579671629611
C           35.11388596924651        1.63338500457000        9.16029068952180
H           36.01223384527406        1.36305130959467        9.67587059081412
N           34.53733541547270        2.80932905851836        9.21822776361766
C           33.43072229669627        2.73357475228429        8.42436212751490
H           32.78107626053465        3.57503433844494        8.30106244793197
