72
 energy: -105.878901735139 gnorm: 0.274669939089 xtb: 6.7.1 (edcfbbe)
Fe         -19.98000000000000       17.65400000000000      -15.03300000000000
N          -19.25800000000000       17.00700000000000      -16.84500000000000
N          -18.28000000000000       16.98000000000000      -14.12700000000000
N          -20.75000000000000       17.98100000000000      -13.14300000000000
N          -21.83300000000000       18.07800000000000      -15.86800000000000
C          -19.90200000000000       17.19100000000000      -18.05399999999999
C          -18.97900000000000       16.81200000000000      -19.10500000000000
C          -17.83700000000000       16.42000000000000      -18.53400000000000
C          -17.98800000000000       16.55000000000000      -17.10400000000000
C          -17.16000000000000       16.53600000000000      -14.81200000000000
C          -16.07700000000000       16.44100000000000      -13.85100000000000
C          -16.55300000000000       16.80800000000000      -12.65300000000000
C          -17.94000000000000       17.17700000000000      -12.80700000000000
C          -20.03800000000000       18.04900000000000      -11.96100000000000
C          -20.89800000000000       18.60900000000000      -10.93600000000000
C          -22.08400000000000       18.86700000000000      -11.50200000000000
C          -22.01400000000000       18.48500000000000      -12.88500000000000
C          -22.96600000000000       18.40600000000000      -15.14500000000000
C          -24.07100000000000       18.55900000000000      -16.04800000000000
C          -23.49900000000000       18.27300000000000      -17.44200000000000
C          -22.09500000000000       17.97800000000000      -17.23200000000000
C          -21.18800000000000       17.66200000000000      -18.22200000000000
H          -21.52400000000000       17.79900000000000      -19.25000000000000
C          -17.05500000000000       16.24100000000000      -16.14900000000000
H          -16.15600000000000       15.71900000000000      -16.47700000000000
C          -18.74100000000000       17.64100000000000      -11.79400000000000
H          -18.31700000000000       17.68800000000000      -10.79100000000000
C          -23.05600000000000       18.59100000000000      -13.78400000000000
H          -24.03700000000000       18.84300000000000      -13.38100000000000
C          -16.56100000000000       15.91400000000000      -19.26300000000000
H          -16.48800000000000       16.39600000000000      -20.26100000000000
H          -16.61800000000000       14.81300000000000      -19.39800000000000
H          -15.66000000000000       16.17800000000000      -18.66900000000000
C          -19.25200000000000       16.86100000000000      -20.62900000000000
H          -18.95300000000000       17.85400000000000      -21.02800000000000
H          -20.33500000000000       16.70700000000000      -20.82100000000000
H          -18.66000000000000       16.07400000000000      -21.14200000000000
C          -14.64600000000000       15.97500000000000      -14.19600000000000
H          -13.98500000000000       16.86100000000000      -14.31100000000000
H          -14.65600000000000       15.40700000000000      -15.15100000000000
H          -14.25200000000000       15.33500000000000      -13.37800000000000
C          -15.82600000000000       16.91700000000000      -11.29300000000000
H          -16.39400000000000       16.92200000000000      -10.35100000000000
C          -14.49600000000000       17.00700000000000      -11.23900000000000
H          -13.89800000000000       17.00500000000000      -12.16200000000000
H          -13.98100000000000       17.08400000000000      -10.27000000000000
C          -20.44700000000000       18.84600000000000       -9.47900000000000
H          -19.35600000000000       19.05700000000000       -9.45800000000000
H          -20.65000000000000       17.93900000000000       -8.87100000000000
H          -20.99000000000000       19.71700000000000       -9.05500000000000
C          -23.37800000000000       19.45499999999999      -10.88800000000000
H          -24.17899999999999       19.79400000000000      -11.56200000000000
C          -23.59800000000000       19.58400000000000       -9.57600000000000
H          -22.83700000000000       19.26500000000000       -8.84800000000000
H          -24.54200000000000       20.01100000000000       -9.20800000000000
C          -25.51500000000000       18.94100000000000      -15.67200000000000
H          -25.51899999999999       19.93700000000000      -15.18000000000000
H          -25.93100000000000       18.18900000000000      -14.96700000000000
H          -26.14100000000000       18.99000000000000      -16.58800000000000
C          -24.27000000000000       18.31200000000000      -18.78300000000000
H          -24.21400000000000       19.33500000000000      -19.21300000000000
H          -25.33600000000000       18.05200000000000      -18.61100000000000
H          -23.81500000000000       17.59400000000000      -19.49900000000000
O          -20.44500000000000       15.26600000000000      -14.87200000000000
H          -19.74300000000000       14.89600000000000      -14.33700000000000
H          -21.12400000000000       14.81800000000000      -15.23200000000000
C          -18.54400000000000       20.21000000000000      -16.68500000000000
H          -17.74900000000000       20.98600000000000      -16.65700000000000
H          -19.37200000000000       20.59000000000000      -17.32000000000000
H          -18.11700000000000       19.29800000000000      -17.15300000000000
S          -19.15800000000000       19.83000000000000      -15.00900000000000
H          -18.04900000000000       19.22200000000000      -14.61500000000000
72
 energy: -105.942613345818 gnorm: 0.117178129561 xtb: 6.7.1 (edcfbbe)
Fe         -20.01403274095502       17.56744723425846      -15.00960184375814
N          -19.25586865893516       17.04561628855534      -16.84675120857949
N          -18.26647849729316       17.00931373406722      -14.13150154851327
N          -20.75664434104450       18.00877965108790      -13.14673869434867
N          -21.81861220390937       18.06265701078934      -15.86548200945956
C          -19.89724310462702       17.20622736155257      -18.05073862017660
C          -18.98755053947315       16.81544757018358      -19.11898871345602
C          -17.83157170703049       16.41115421164383      -18.53975475005840
C          -18.00650464205077       16.54749199887459      -17.10697156416228
C          -17.15515840528032       16.53777760187240      -14.79006661895473
C          -16.06149339356423       16.42416521129480      -13.84269942077187
C          -16.53954825763205       16.80754485879479      -12.62619055689476
C          -17.93027956836782       17.17181461775648      -12.81242195946581
C          -20.06024876041469       18.05827245250909      -11.96661081290310
C          -20.90505509331304       18.61109753314062      -10.92224310196146
C          -22.11517306264789       18.86997732011699      -11.49057399687366
C          -22.01547636614810       18.48870284918404      -12.88739980829619
C          -22.95868230746785       18.39766899505029      -15.18251738355093
C          -24.05852765203391       18.55048310498493      -16.09940145239687
C          -23.52008329154850       18.29054333424982      -17.40503378181258
C          -22.11573238956460       17.99243277779249      -17.20661261208789
C          -21.19670004331525       17.66833731309768      -18.20878842526362
H          -21.53365494900352       17.78808190787696      -19.23477157990888
C          -17.06321642735444       16.24268344139622      -16.14119948766760
H          -16.16000760888022       15.74260393958175      -16.47685815391328
C          -18.75134212234663       17.63991809943661      -11.80324799552644
H          -18.32719065911350       17.69088791794994      -10.80643745065461
C          -23.04852035880536       18.58778708782598      -13.80511826965081
H          -24.02340156903421       18.84760388303550      -13.40461741982199
C          -16.57752600892869       15.92165037008922      -19.25028871443962
H          -16.49324947806841       16.38903575672968      -20.23793691843927
H          -16.61873677368771       14.83408770679331      -19.38969953288573
H          -15.67922712428088       16.17126592465192      -18.67589078355473
C          -19.25689893238589       16.86348174243247      -20.61152074057498
H          -18.96065311558336       17.83914136211786      -21.01814010660242
H          -20.31974110536968       16.70889501752391      -20.81859639158472
H          -18.67781498644149       16.08900994946790      -21.12656478840184
C          -14.66069981851029       15.97349879311805      -14.19666435442239
H          -13.99981221835983       16.84278960513544      -14.31595662727242
H          -14.65579809736817       15.41131836319488      -15.13503170324289
H          -14.26229973237808       15.33836185609253      -13.39800469256420
C          -15.82194600532942       16.91080433597928      -11.31910523511504
H          -16.40144069400022       16.91760914779978      -10.39567208429468
C          -14.49893549963696       17.00461029681622      -11.24014531084792
H          -13.89087929515075       17.01894721446121      -12.13260011719337
H          -13.99092222253097       17.08165225038316      -10.28380063397700
C          -20.44482940970010       18.84442837679292       -9.49751637559227
H          -19.37010979093451       19.05147363449158       -9.46283239149901
H          -20.64722062514763       17.95690073585517       -8.88370704312459
H          -20.96737055044959       19.70399103528846       -9.06706246763455
C          -23.35675744057599       19.44797296361766      -10.88598321914359
H          -24.14059392090279       19.78042644232936      -11.56684061222312
C          -23.59126364927904       19.57971845758991       -9.58327249585068
H          -22.86786536193514       19.26111811281714       -8.84601022903871
H          -24.52240648472961       20.00356422083978       -9.21805885612278
C          -25.47684633232682       18.93079663365227      -15.69686337949744
H          -25.50346093162834       19.91209775066229      -15.19921668763078
H          -25.90830928858958       18.20232927502797      -14.99345476363428
H          -26.12624065484119       18.98695280835766      -16.57633017407535
C          -24.25557466955019       18.31653227696705      -18.74041810286870
H          -24.21128553068404       19.31755106062272      -19.19399716881603
H          -25.31229854744285       18.05775232527708      -18.60701046068825
H          -23.82129246814145       17.61115916060922      -19.46309185511381
O          -20.44048618025984       15.29957547341606      -14.85701035101781
H          -19.74741800675023       14.89374565945436      -14.33984548794384
H          -21.14045554096177       14.80260493035444      -15.23881782814948
C          -18.53052424548989       20.21046964529172      -16.69758839129175
H          -17.75310871142892       20.98075189169102      -16.64499840721616
H          -19.36212534541583       20.58174864839443      -17.30357596856493
H          -18.12259161050167       19.30407975875592      -17.15208409262847
S          -19.16113399685955       19.81093247554461      -15.03286042880890
H          -18.03385087630760       19.24164724555228      -14.61159478552178
72
 energy: -105.962126708090 gnorm: 0.046302308607 xtb: 6.7.1 (edcfbbe)
Fe         -20.01607949911074       17.54785399901555      -15.00012906596914
N          -19.26577980977096       17.06077045739384      -16.83965187241172
N          -18.26505796317078       17.01300571604777      -14.13208512664231
N          -20.76644847329574       18.01370003601916      -13.15604252052884
N          -21.80602904091813       18.02247860018506      -15.85805536875436
C          -19.89617539054545       17.22134645305412      -18.03867441775619
C          -18.99951676403424       16.82284615673299      -19.11831545551995
C          -17.83707428875544       16.40694197749204      -18.53325010909321
C          -18.02788033473009       16.55167709243875      -17.10086101900878
C          -17.15753100088131       16.53748823008351      -14.77299890599307
C          -16.05737583467102       16.40980925853679      -13.84136649664922
C          -16.53377763590106       16.80679446578834      -12.61127150371984
C          -17.92705980555016       17.16576874460004      -12.81973576124117
C          -20.07862574579396       18.06314574161676      -11.98208560751355
C          -20.90809233213357       18.60812783506557      -10.92339728117361
C          -22.13610329900660       18.86685506405192      -11.48891598677653
C          -22.01389650351440       18.48588656714610      -12.89604594353129
C          -22.94538526619232       18.37732506884386      -15.20546159639109
C          -24.03783279608743       18.54312649981115      -16.14361133366969
C          -23.53166855674543       18.30328026349138      -17.36838839772932
C          -22.12357736870690       17.98870954088821      -17.18210887791512
C          -21.20405438210122       17.67173967174697      -18.19284859419433
H          -21.54797649248210       17.77206661313266      -19.21534955302254
C          -17.07364207555802       16.25624161174258      -16.13469257455861
H          -16.16567480606770       15.77991318243161      -16.48050555319833
C          -18.76242140743859       17.64408747082138      -11.81991790429378
H          -18.34241082524512       17.69700285320256      -10.82611436333779
C          -23.03821739757422       18.58355807229199      -13.82662247244690
H          -24.00825241167597       18.86115182989032      -13.43643376916474
C          -16.60238132515975       15.92817156455076      -19.23029176514862
H          -16.51115202908917       16.38808102145535      -20.21226476374851
H          -16.62824934938885       14.84717728107656      -19.37424313797557
H          -15.70457625486166       16.16944569355279      -18.66773498522197
C          -19.26646609719365       16.86894655250251      -20.58691954885314
H          -18.97179946044224       17.83357556959107      -21.00259756305707
H          -20.31745863275152       16.71352100302986      -20.80759228021112
H          -18.69458816379344       16.10047677877057      -21.10305657174638
C          -14.68031237293807       15.96676557188860      -14.19742769031417
H          -14.01914889713124       16.82635294123389      -14.32154250428576
H          -14.66728149031521       15.40772413868244      -15.12696542540349
H          -14.27258820932562       15.33589946346517      -13.41072593245390
C          -15.82512463012400       16.90404307851532      -11.35433311308665
H          -16.41962562158983       16.90905292168549      -10.44789423602866
C          -14.50307834506257       17.00406937177792      -11.24215604807912
H          -13.87186436997732       17.03696423607633      -12.10620370858443
H          -14.00922233450427       17.07594818812157      -10.28872697337887
C          -20.44473228353133       18.84220990958578       -9.52344539226066
H          -19.37731598175032       19.04016208378341       -9.48444911215835
H          -20.64805455192265       17.96987334363054       -8.89964153815112
H          -20.95188794838796       19.69799387525041       -9.08734319043725
C          -23.32901935940214       19.42973218086761      -10.89275003919633
H          -24.09394477526090       19.76589046367346      -11.58302565558217
C          -23.58301219409292       19.56741015826912       -9.59317857571705
H          -22.89491366671529       19.24818168722396       -8.83661588545877
H          -24.50308436352518       20.00170913612655       -9.23739139598054
C          -25.43447957720105       18.92098441325339      -15.72877406219706
H          -25.45907007370213       19.89207329808391      -15.22702849741309
H          -25.86148031461521       18.20020564776179      -15.02609368790221
H          -26.10001317837418       18.98115511381274      -16.58598828139694
C          -24.24070230007159       18.32498118671596      -18.69463748452347
H          -24.19617951914737       19.31373054538425      -19.15846145069854
H          -25.29220517992445       18.06683171964430      -18.58136206255456
H          -23.80923368027183       17.62116340083418      -19.40755698927019
O          -20.47136435273709       15.35478659170516      -14.81158100077638
H          -19.76065467512267       14.88799082550175      -14.35982607216978
H          -21.13207227354645       14.80388497647511      -15.24610185480770
C          -18.51797128410089       20.20841606203154      -16.71059988117882
H          -17.75162298802233       20.97228984836497      -16.63145371334766
H          -19.35189674103811       20.57854076141525      -17.29442634029885
H          -18.12338731732504       19.30563057365439      -17.15751600638229
S          -19.16130078136687       19.82365267535072      -15.04645936615909
H          -18.02786554753657       19.27060507206084      -14.60367878419819
72
 energy: -105.967752367126 gnorm: 0.043965292939 xtb: 6.7.1 (edcfbbe)
Fe         -20.02845686181843       17.52427128499077      -14.99469611299125
N          -19.27277462734436       17.07250585900204      -16.83031772391296
N          -18.26653354415949       17.01979288727177      -14.13601057502183
N          -20.76749670407467       18.01441045717642      -13.16396208282765
N          -21.80037887109101       18.00264780123271      -15.85411867738694
C          -19.89858964163087       17.23011484985509      -18.02863823913773
C          -19.00925211970065       16.83091471197134      -19.10651408017842
C          -17.84967239424875       16.41236583433431      -18.52103459771044
C          -18.03820852375102       16.56227352598240      -17.09252121177113
C          -17.16157824974600       16.54119923974840      -14.77480597340699
C          -16.06317045728397       16.40469301888347      -13.85068099121728
C          -16.53519508143733       16.80667377158895      -12.62050640375068
C          -17.92702137667382       17.16830898261441      -12.82634689220891
C          -20.07841936092679       18.06165314968143      -11.99359446411290
C          -20.90279324299598       18.59868269522768      -10.93353649176145
C          -22.13282940664351       18.85640407659207      -11.49367016242966
C          -22.01139993790036       18.48133666086599      -12.90098163804347
C          -22.93372732999342       18.36393562848892      -15.19903655811427
C          -24.02616150070001       18.54031973758243      -16.13597930974273
C          -23.51480783722447       18.30459841298839      -17.37232158165731
C          -22.11164109457975       17.97771063206839      -17.17774811359835
C          -21.20530981123787       17.66838435745663      -18.18871868435251
H          -21.55940952071223       17.75406325220113      -19.20788318491268
C          -17.07918164503125       16.27001025577398      -16.13560489132162
H          -16.16229956855830       15.81931660115768      -16.49061538655113
C          -18.76378618303857       17.64669671839962      -11.83083094092355
H          -18.34780488970674       17.70364047099258      -10.83704970820503
C          -23.03263243761280       18.58114228066524      -13.83079510175075
H          -24.00084775671385       18.88132803873257      -13.45530788993650
C          -16.61896075124134       15.92925019662799      -19.21210218610430
H          -16.53012887703968       16.38994516745820      -20.19392296110496
H          -16.64583622952412       14.84754876651130      -19.35253085669834
H          -15.72303635298723       16.17146330481986      -18.64636854950769
C          -19.28316117469030       16.87618507226509      -20.57096982134591
H          -18.98864236293447       17.84075828960618      -20.98798751962139
H          -20.33519273812788       16.72049633307127      -20.78995979164377
H          -18.71209375296759       16.10487929432534      -21.08391903131662
C          -14.69261131291191       15.95011796377168      -14.20631774592918
H          -14.02978140603495       16.80795804061642      -14.33537647440436
H          -14.68561799411371       15.38642959048267      -15.13400137767901
H          -14.28450093683723       15.32160469175281      -13.41715545761888
C          -15.82764809730892       16.89734890236484      -11.36877058770336
H          -16.43811754861612       16.89545668607844      -10.47376554339738
C          -14.50622297072574       17.00266961695746      -11.23285091151125
H          -13.85041000537596       17.06486201733335      -12.08167107411926
H          -14.03298484515380       17.06794681003253      -10.26884092714388
C          -20.43321387777315       18.84125990529102       -9.54156878377827
H          -19.36223805452659       19.02387044177831       -9.51285954886742
H          -20.64803532052047       17.97766178067638       -8.90852714471074
H          -20.92628936207580       19.71030169325716       -9.11398651223432
C          -23.31753063058154       19.42167268645506      -10.89979915529996
H          -24.06705352690656       19.76685772251021      -11.60192530559525
C          -23.58855389610295       19.55801404097199       -9.60198018888443
H          -22.93269994541090       19.20662416956362       -8.82580950558688
H          -24.50591096855422       20.00928151399227       -9.26304765770826
C          -25.41494874695037       18.91953326750606      -15.73923828490057
H          -25.42153694940583       19.89111030456717      -15.24368335515749
H          -25.83009489072938       18.19084009208970      -15.04177906678141
H          -26.07042555867750       18.97761696389395      -16.60348457651715
C          -24.22667193309336       18.33304282122689      -18.68448469582989
H          -24.17348361469187       19.32443920861559      -19.13688302448439
H          -25.27683626085514       18.07923730017031      -18.55709944426774
H          -23.79092420607890       17.62104439260964      -19.38232817826686
O          -20.55070131551379       15.39017296790618      -14.71469107714867
H          -19.76534344258801       14.87594049795175      -14.40135238327404
H          -21.12116826484679       14.80601214606795      -15.27030297920255
C          -18.50587104212564       20.20484693677951      -16.71666762002704
H          -17.74016005519238       20.96850248725494      -16.62119682724516
H          -19.33915830823699       20.57920499649066      -17.29875051354022
H          -18.11123636662532       19.30378370086103      -17.16785606405158
S          -19.16414405480526       19.81022965642825      -15.05917759302346
H          -18.00544207400326       19.32358236748268      -14.58618202782958
72
 energy: -105.969619224993 gnorm: 0.040960174952 xtb: 6.7.1 (edcfbbe)
Fe         -20.03079448283901       17.51999628957773      -14.99177106071489
N          -19.28609520510657       17.07431028989274      -16.81541940051272
N          -18.27089733571427       17.02014985942781      -14.14137718186379
N          -20.76535373703974       18.01391605628750      -13.17838020860750
N          -21.78837046607470       17.97615169756203      -15.84647600279700
C          -19.90439206881246       17.23421603916978      -18.01531359183593
C          -19.02161978746415       16.84061458180496      -19.08952086604971
C          -17.86607649524404       16.42149222058114      -18.50493938168376
C          -18.05052404845278       16.57249544084367      -17.08134170364005
C          -17.16673988708214       16.54227141197097      -14.78024403598474
C          -16.07125510418545       16.39887990618508      -13.86385948551086
C          -16.53789398137532       16.80462000851145      -12.63587567603910
C          -17.92780529682297       17.16811778592730      -12.83499907007338
C          -20.07484893533637       18.05567967856647      -12.00996921071050
C          -20.89561763998422       18.58144543307274      -10.94928370531827
C          -22.12557065436254       18.83661970465593      -11.50237432949925
C          -22.00792584664908       18.47131890246885      -12.90850645190437
C          -22.91600885461603       18.34492943355239      -15.18882946410841
C          -24.00639387169995       18.53589151662097      -16.12295515904449
C          -23.48844044392412       18.30055704208334      -17.37452463050771
C          -22.09320500258864       17.95960337734348      -17.17092782714468
C          -21.20799059489974       17.65972490046881      -18.18454375845183
H          -21.57337482384786       17.73494776555360      -19.19881719016490
C          -17.08307774939457       16.28738128011389      -16.13913429564774
H          -16.15422507240381       15.87177955164785      -16.50622067093001
C          -18.76341908473239       17.64753939618360      -11.84462207151445
H          -18.35284901996792       17.71106484879925      -10.84988896230666
C          -23.02634380197004       18.57640300798856      -13.83507065611299
H          -23.99359561796025       18.90216511619245      -13.47961166625268
C          -16.63622067392302       15.93305680020499      -19.19044124395311
H          -16.54968450360927       16.39397495494458      -20.17323550029147
H          -16.66638890224388       14.84961292559625      -19.32470041736589
H          -15.74282144271728       16.17767529806129      -18.61919653300130
C          -19.30530146218492       16.88823633733208      -20.55219717173916
H          -19.01314925751986       17.85519575155884      -20.96833574804482
H          -20.36041393909088       16.73211651377911      -20.76494552395005
H          -18.73513225677318       16.11443783974629      -21.06445064865985
C          -14.70484899025598       15.92895662818868      -14.21723078870470
H          -14.03851587364814       16.78394059820077      -14.35534369491772
H          -14.70735614034878       15.35481258131396      -15.14121285984609
H          -14.29873589448591       15.30572232942079      -13.42094609701854
C          -15.83166198818755       16.88958606695918      -11.38193790124652
H          -16.45931041994754       16.86980153231696      -10.49859234662939
C          -14.51291063323735       17.00599597600609      -11.22094006394718
H          -13.82839027583926       17.08912082604049      -12.05144622980995
H          -14.06559184876545       17.05520645351928      -10.24160875839969
C          -20.42309631787920       18.83619769169806       -9.56213424218509
H          -19.34708130513803       19.00234475890311       -9.54377309259799
H          -20.65051353191673       17.98349526583578       -8.91693664804232
H          -20.90751272923422       19.71972462796527       -9.14903604089924
C          -23.30719060561856       19.40774948701140      -10.90899179005951
H          -24.03607733815776       19.77622134741698      -11.62257663972278
C          -23.59534177404683       19.53434599240000       -9.61312260630326
H          -22.96537975813903       19.16077667491753       -8.82036124509144
H          -24.50767684330188       20.01182420337675       -9.29288458451304
C          -25.39008033037836       18.91809372035658      -15.74936216052366
H          -25.38293741327236       19.89166872042227      -15.26202051819769
H          -25.79859487010579       18.18299361704097      -15.05774395504620
H          -26.03179216736627       18.97334536761684      -16.62479771783089
C          -24.20609938466429       18.34253924120868      -18.67368225785435
H          -24.14241019411513       19.33748253631876      -19.11434479972824
H          -25.25699138136619       18.09751916500796      -18.53124935635164
H          -23.77146210041584       17.62269760886226      -19.36104200393580
O          -20.53982356127047       15.39806403286442      -14.76562415255820
H          -19.84413333307610       14.90756814318991      -14.35712292545081
H          -21.14868661048412       14.83131980065658      -15.22270474510316
C          -18.49265138115380       20.20447299799297      -16.72243457238191
H          -17.72462459889192       20.96557812434804      -16.61288412411490
H          -19.32259114841302       20.58472595609489      -17.30793508507962
H          -18.09687796415182       19.30346574890886      -17.17781250508322
S          -19.16889307819786       19.81088742243807      -15.07034040882203
H          -17.99034086591379       19.39216579090353      -14.56252258006308
72
 energy: -105.971982640591 gnorm: 0.016236692718 xtb: 6.7.1 (edcfbbe)
Fe         -20.01399714560222       17.55106453723060      -14.99646433864232
N          -19.29161918941415       17.06845207824385      -16.80863616977508
N          -18.27141631211727       17.01783244194214      -14.14456613423753
N          -20.76114588601767       18.00876653223389      -13.18640950275845
N          -21.77687441779604       17.96979391974287      -15.84088199086118
C          -19.90824298818440       17.22641395504465      -18.01024100501797
C          -19.02626152141156       16.83937492123681      -19.08517563094587
C          -17.86906508822334       16.42390287158494      -18.50182608411620
C          -18.05331580074789       16.57372911721109      -17.07879526045600
C          -17.16568554167770       16.54242329798218      -14.78325965421676
C          -16.07029004978900       16.39725725480226      -13.86772902692622
C          -16.53557049804945       16.80275617610269      -12.63964461398739
C          -17.92469629352530       17.16647534141901      -12.83894571345197
C          -20.07063910167108       18.05046360301986      -12.01662197181514
C          -20.89145193715749       18.57317422322018      -10.95455466213481
C          -22.12192955135594       18.82727563020121      -11.50593720050325
C          -22.00463809747138       18.46428929489020      -12.91125970365027
C          -22.90700080895726       18.33924975031788      -15.18879577870371
C          -23.99383378287461       18.53258805327575      -16.12433403400298