78
 energy: -116.056990909237 gnorm: 0.000043528080 xtb: 6.7.1 (edcfbbe)
Fe          -1.46336625987092       18.58333685662432       24.76436949500214
N           -3.39476937664043       18.33109356513575       25.16972484490238
N           -1.85079413499396       20.43179130065228       24.06428297053254
N            0.49872345437540       18.89281700466820       24.46105340461177
N           -1.06816918801336       16.75907923296451       25.44793187105936
C           -3.98033233844352       17.21552575007776       25.67322738428189
C           -5.39886124544087       17.42539760495872       25.87122383708557
C           -5.65509518025145       18.70006477583977       25.47598717188195
C           -4.39129184862331       19.24661442819643       25.02884097174288
C           -3.06804692088481       21.03903739942996       24.00085136493300
C           -2.96802017694935       22.31212733916706       23.34107997889792
C           -1.65851837170302       22.45155515369803       22.96211099591755
C           -0.97371865528967       21.27245039273655       23.45107615061227
C            1.07427329335668       19.99777621332167       23.90797752273386
C            2.50685522096538       19.87175589682519       23.89593260681067
C            2.79595798094193       18.66254276863546       24.47168516346516
C            1.51892805443485       18.05574933616335       24.78744580081902
C            0.14950846471235       16.16106759969091       25.52874382874703
C            0.01888187792378       14.79288246198450       25.98372419562716
C           -1.30918050624315       14.58387372216933       26.18185183548826
C           -1.97046964516390       15.82714082348437       25.84600413841205
C           -3.33180160879060       16.03024052983739       25.96225281984791
H           -3.93050141681487       15.20890453114660       26.32537474355134
C           -4.25259517522545       20.50902066893633       24.48731730554995
H           -5.13800421511447       21.12189911403945       24.41154457297642
C            0.39607034520485       21.09770970817240       23.41224337729657
H            0.98535245878351       21.89058870887352       22.97934015989746
C            1.36225814754448       16.75950098011841       25.24518393635359
H            2.25499025790134       16.16617075223978       25.36642926067004
C           -6.94427065370737       19.44832557545105       25.46974126004750
H           -7.74654670815376       18.83910103161238       25.87851170023989
H           -7.21772293970016       19.73805545816381       24.45440910200404
H           -6.86291823899395       20.35518954506737       26.06908772252843
C           -6.33190098452256       16.39975759503656       26.41707385626760
H           -6.02291237048477       16.09737805601230       27.41766122037189
H           -6.33992603342949       15.51256326566305       25.78335105150700
H           -7.34558390965812       16.78889280991326       26.47425680373544
C           -4.10880319440056       23.23650907328059       23.08808674079426
H           -4.61872694411972       23.48138342038959       24.02017169567696
H           -4.83659818065528       22.77696478273488       22.41800555498759
H           -3.76013813659790       24.15826374428492       22.62921880896173
C           -1.08248393630317       23.55244403859699       22.21844986799398
H           -1.48255007147654       24.53264858688942       22.45574231143077
C           -0.16140954554361       23.44573591629673       21.26735522493144
H            0.22921979973765       22.49180168480992       20.95569117393032
H            0.21785326525073       24.31131988003540       20.74977164292578
C            3.45093961722974       20.90773766461873       23.39181740443058
H            3.36144626334466       21.82600820289372       23.97338065077200
H            3.23550664307097       21.14894772468498       22.35057399353303
H            4.47769425914931       20.55793931961246       23.46352793488990
C            4.11144182061952       18.11115039652570       24.72210634788075
H            4.85512315175020       18.32414590450704       23.96154977745159
C            4.47138507559189       17.42386288611487       25.80028840543907
H            3.78849384292833       17.23047435046693       26.61011626859653
H            5.47447291531371       17.04950881549469       25.92086011091983
C            1.16463005944940       13.86037023775802       26.18035388711404
H            1.84639534933493       14.24594829487915       26.93877409202810
H            1.72582427922573       13.73990428351638       25.25343940327346
H            0.81622765451904       12.88153152063466       26.50053223945418
C           -2.01314530872150       13.35856592270283       26.65480613278290
H           -1.31013604476534       12.54397229964248       26.81097939642352
H           -2.75581215623764       13.03707049101311       25.92440009354446
H           -2.52709595748609       13.55288724135974       27.59646317830031
O           -1.12282149565215       19.54710049261700       26.81922365120218
H           -0.16005511494506       19.57249841487512       26.84486632840915
H           -1.42556361789349       20.44105587708383       26.62667878066208
C           -0.80261484564818       15.95851543836665       19.89507993235943
H           -0.62132533419658       16.57003506552091       19.01127164315873
H           -1.51470530917614       15.17746512934042       19.62873917156407
H            0.13085086900907       15.49140668347331       20.19276159810750
N           -2.48602122539378       17.50406990893515       20.91916200228301
H           -3.08853959941977       17.54573350426801       20.11367312356424
C           -1.32199504980174       16.78705250683379       21.01241232814144
C           -2.67031424722431       18.14113817605821       22.09752226469667
H           -3.50331637529713       18.77836073431221       22.31203114686382
N           -1.69455980249178       17.87091620068425       22.93020970824496
C           -0.84811921725799       17.02968984166345       22.26980790168229
H            0.03886439215968       16.65888738552709       22.74019365418659
