72
 energy: -105.979757254583 gnorm: 0.000057863897 xtb: 6.7.1 (edcfbbe)
Fe         -24.21789285030761       59.92699037152482        1.46098165106177
N          -23.99894692221366       60.20843564093177        3.43318845451260
N          -23.13993640685271       61.55144340452357        1.09590960693612
N          -24.49475248381240       59.64471256812678       -0.49942336914783
N          -25.40092501673119       58.33709985307660        1.84319321151513
C          -24.55314497938261       59.48126954545441        4.44099350955694
C          -24.09959472528414       59.96199378299938        5.72623681320815
C          -23.24946765644537       60.99251350193159        5.46983649777303
C          -23.20999114208482       61.13944574599593        4.03224343416044
C          -22.50589971455749       62.33169055704517        2.00887390362288
C          -21.82573952367511       63.42884546927688        1.36393310713788
C          -22.07056255299031       63.29612064254022        0.02528172567331
C          -22.89521588856068       62.10939182350960       -0.11438474630794
C          -24.03515247280463       60.44024278437578       -1.50034765422136
C          -24.38647645206489       59.89590024145520       -2.78540749742637
C          -25.04278498663293       58.71990196733368       -2.54236131786377
C          -25.12246646063351       58.59978969527049       -1.10027515727943
C          -25.98428850316677       57.51608487333424        0.92625218067020
C          -26.78928586562156       56.51203087123854        1.58139469239336
C          -26.68195620620321       56.74577039058089        2.91820287664224
C          -25.80783645389064       57.88588806372937        3.06290877472727
C          -25.42016837673674       58.41578589133204        4.28010445934698
H          -25.80386587841454       57.94582193170209        5.17201721200880
C          -22.50294280948401       62.12658559185734        3.37646874304760
H          -21.92256408829412       62.80496593369111        3.98214213939281
C          -23.30666539687273       61.60278622917928       -1.32958821250172
H          -23.01893061896516       62.13971556301966       -2.22002435587586
C          -25.84223754759094       57.61787000503631       -0.44479418450580
H          -26.36212984760981       56.89539826468327       -1.05320355646758
C          -22.48943383642805       61.84920350816855        6.42221828330811
H          -22.64527598865289       61.52128052885558        7.44697992683385
H          -22.81021465526553       62.88814897249738        6.34197045670344
H          -21.42187329323879       61.80768214658659        6.20630046429376
C          -24.51773530917833       59.38365957895849        7.03414915468940
H          -24.23192417043715       58.33335279545253        7.09886905158771
H          -25.59952359114775       59.44736425396832        7.15406204738631
H          -24.05111215619154       59.91680812487686        7.85849212209833
C          -21.08621212174524       64.51083446996550        2.06929084685127
H          -20.08043048126408       64.18299623677082        2.33678582820099
H          -21.60269091474239       64.79740033875612        2.98412112455533
H          -21.00367785569271       65.38531555080210        1.42741413943302
C          -21.64952609598536       64.13959155971666       -1.07208982778052
H          -22.35748935745034       64.23433070178982       -1.88714881373977
C          -20.48783690693582       64.78010421992714       -1.14716598454804
H          -19.73044993506277       64.68229216098037       -0.38908103670599
H          -20.24255002581740       65.40557209125036       -1.98936598069824
C          -24.02678545621806       60.50234403756659       -4.09633065067734
H          -22.94385679293559       60.53024010361235       -4.22026322764433
H          -24.39985443418398       61.52460746343700       -4.16047761217582
H          -24.44872003185655       59.92428017386198       -4.91455967244452
C          -25.55226388482397       57.78660897987642       -3.52628899616139
H          -25.97933288266706       58.23881422412931       -4.41480243155976
C          -25.49647934205862       56.46258432809603       -3.44016672636780
H          -25.03326287064409       55.96178704116777       -2.60674267682466
H          -25.89072391274491       55.83016564237903       -4.21807617819151
C          -27.56072073803988       55.45835646468689        0.86513822695757
H          -26.89423673256541       54.83074692585141        0.27316890990626
H          -28.28735611759156       55.90845814436805        0.18847313982320
H          -28.09370908835213       54.82354066998417        1.56852815412007
C          -27.30365458311776       56.01543508420528        4.05828317481105
H          -27.93885657542647       55.20950248780334        3.69970532742862
H          -27.91233828068738       56.69023312472585        4.66058532493372
H          -26.53683120508422       55.58596248190750        4.70383701851366
O          -26.10502555325133       61.13388691227607        1.55972907040463
H          -26.30354942399723       61.10359827287515        2.50251819044351
H          -26.73099415932639       60.54983731748259        1.11710594205307
C          -22.21247516669564       57.56674520189442        2.86569708747549
H          -21.81308024077949       58.23028454919707        3.62534690857980
H          -21.54290924951210       56.72604496976929        2.71279103046439
H          -23.20428444367912       57.23525218284164        3.15228095097011
S          -22.31351625906810       58.53977687534184        1.32227072971097
H          -22.87740405157075       57.56347789658668        0.60309424119771
