72
 energy: -105.905383952901 gnorm: 0.237931730136 xtb: 6.7.1 (edcfbbe)
Fe         -24.24200000000000       59.78299999999999        1.47000000000000
N          -23.99700000000000       60.10100000000000        3.50200000000000
N          -23.14800000000000       61.50100000000000        1.12800000000000
N          -24.61200000000000       59.63999999999999       -0.56500000000000
N          -25.46000000000000       58.22700000000000        1.88100000000000
C          -24.57800000000000       59.34900000000000        4.50400000000000
C          -24.11400000000000       59.89200000000000        5.78100000000000
C          -23.28200000000000       60.91400000000000        5.53100000000000
C          -23.20000000000000       61.07600000000000        4.08800000000000
C          -22.43900000000000       62.24500000000000        2.05800000000000
C          -21.73300000000000       63.31600000000000        1.36100000000000
C          -21.99299999999999       63.19000000000000        0.05100000000000
C          -22.87500000000000       62.05099999999999       -0.11300000000000
C          -24.03800000000000       60.42199999999999       -1.54000000000000
C          -24.34100000000000       59.80700000000000       -2.81700000000000
C          -25.05000000000000       58.68700000000000       -2.58800000000000
C          -25.25500000000000       58.56600000000000       -1.15300000000000
C          -26.10900000000000       57.46700000000000        0.90800000000000
C          -26.96500000000000       56.50900000000000        1.59700000000000
C          -26.81900000000000       56.68099999999999        2.91800000000000
C          -25.87900000000000       57.77499999999999        3.12100000000000
C          -25.45800000000000       58.29800000000000        4.32900000000000
H          -25.85900000000000       57.83700000000000        5.23100000000000
C          -22.43900000000000       62.01400000000000        3.42200000000000
H          -21.77500000000000       62.63099999999999        4.02700000000000
C          -23.34600000000000       61.60099999999999       -1.32700000000000
H          -23.15700000000000       62.23000000000000       -2.19700000000000
C          -25.95700000000000       57.58899999999999       -0.46600000000000
H          -26.44600000000000       56.82900000000000       -1.07500000000000
C          -22.51899999999999       61.79200000000000        6.55900000000000
H          -22.76000000000000       61.45100000000000        7.58900000000000
H          -22.82900000000000       62.85299999999999        6.44900000000000
H          -21.42400000000000       61.69700000000000        6.39500000000000
C          -24.54400000000000       59.35400000000000        7.16400000000000
H          -24.76400000000000       58.26800000000000        7.08700000000000
H          -25.45900000000000       59.88400000000000        7.50500000000000
H          -23.72300000000000       59.50400000000000        7.89700000000000
C          -20.82900000000000       64.37600000000000        2.05400000000000
H          -19.76300000000000       64.08799999999999        1.93600000000000
H          -21.07200000000000       64.42600000000000        3.13700000000000
H          -20.98700000000000       65.37000000000000        1.58300000000000
C          -21.51599999999999       64.02000000000000       -1.17600000000000
H          -21.90700000000000       63.74800000000000       -2.16700000000000
C          -20.66100000000000       65.05200000000001       -1.14500000000000
H          -20.22500000000000       65.38700000000000       -0.19200000000000
H          -20.38500000000000       65.57599999999999       -2.07200000000000
C          -23.88100000000000       60.34100000000000       -4.18900000000000
H          -23.01400000000000       61.02200000000000       -4.05000000000000
H          -24.70900000000000       60.90500000000000       -4.66900000000000
H          -23.57300000000000       59.49300000000000       -4.83700000000000
C          -25.55000000000000       57.74199999999999       -3.69500000000000
H          -25.78600000000000       58.13499999999999       -4.69500000000000
C          -25.70900000000000       56.43700000000000       -3.47700000000000
H          -25.48400000000000       56.00399999999999       -2.49100000000000
H          -26.06700000000000       55.77600000000000       -4.28000000000000
C          -27.86600000000000       55.45600000000000        0.91300000000000
H          -27.25000000000000       54.58300000000000        0.60700000000000
H          -28.33900000000000       55.89699999999999        0.01000000000000
H          -28.64900000000000       55.11399999999999        1.62300000000000
C          -27.53400000000000       55.86499999999999        4.03600000000000
H          -27.57400000000000       54.79400000000000        3.74500000000000
H          -28.57100000000000       56.24099999999999        4.17000000000000
H          -26.97000000000000       55.95900000000000        4.98800000000000
O          -26.05500000000000       61.29300000000000        1.76200000000000
H          -25.66900000000000       62.16900000000000        1.77400000000000
H          -26.91800000000000       61.09699999999999        1.84400000000000
C          -21.72200000000000       58.12700000000000        2.65100000000000
H          -21.24200000000000       59.03400000000000        3.07600000000000
H          -20.94200000000000       57.34300000000000        2.54700000000000
H          -22.49300000000000       57.77799999999999        3.37000000000000
S          -22.48300000000000       58.47700000000000        1.03300000000000
H          -23.11900000000000       57.31700000000000        0.95100000000000
72
 energy: -105.949821523211 gnorm: 0.097242047423 xtb: 6.7.1 (edcfbbe)
Fe         -24.28515982463481       59.83490171933074        1.47226191985139
N          -23.98639813495619       60.09539787695033        3.49621009059383
N          -23.13058901468251       61.50223793279952        1.11606552728841
N          -24.60208928034610       59.62439818408207       -0.55527381485564
N          -25.46458559152795       58.23607311470366        1.87319613564445
C          -24.56812525305315       59.36459615476900        4.49891424656819
C          -24.11710172056219       59.88445476524943        5.78648004175614
C          -23.27373491061893       60.91458166844430        5.53160342722781
C          -23.19587971327411       61.05429227518996        4.08426438263906
C          -22.43741257632055       62.24638442848270        2.03971544706746
C          -21.72185082097516       63.32169450556837        1.36063012089536
C          -21.99385173730116       63.20646377339295        0.02898848122442
C          -22.87814339100424       62.05668999979040       -0.11260177392031
C          -24.06136576321495       60.40856174441569       -1.53613215528227
C          -24.34968229091104       59.81269219572842       -2.82608776679057
C          -25.06670599857750       58.67686036955169       -2.59810794130974
C          -25.23808760494209       58.56587771221401       -1.15260554744108
C          -26.10527963095983       57.47278389957619        0.92005108643758
C          -26.96189120277076       56.50315525293477        1.58898953567241
C          -26.81592318838880       56.68263429765867        2.92506070855254
C          -25.87490297677746       57.78027250321325        3.10424907607915
C          -25.44893116345136       58.30621749329403        4.31696668226216
H          -25.85049221624577       57.84613830486779        5.21518239409624
C          -22.44222458141594       62.00552806940979        3.41033130197812
H          -21.79744815020500       62.63113555234788        4.02025325458889
C          -23.35868743361197       61.58812193191610       -1.32268007663186
H          -23.14716731705819       62.19698378081284       -2.19483928018574
C          -25.95202018733566       57.59712324665933       -0.45636933132719
H          -26.46546134845235       56.85503641331037       -1.05658732479295
C          -22.53190270195821       61.77788231756745        6.53862805897480
H          -22.75919239942298       61.45640736980008        7.56013666873033
H          -22.82350461188047       62.82915248234863        6.44135899875609
H          -21.44901212553474       61.69903785789423        6.38924295754833
C          -24.53963380091722       59.35456863092902        7.14215853814538
H          -24.75973659262653       58.28452234989177        7.08714949094474
H          -25.43865280126833       59.87419385299401        7.49406605728688
H          -23.74235841280735       59.50174856353547        7.87768149017761
C          -20.84524682039379       64.35391190542153        2.05116547457217
H          -19.78736247825059       64.08785766476868        1.93685059193434
H          -21.07220983825322       64.41848172265210        3.11848701843115
H          -21.00067264459512       65.34270181885628        1.60842611900795
C          -21.52275185728989       64.01466925277190       -1.14411484999834
H          -21.91546132444703       63.73069581298460       -2.11953134948382
C          -20.66917897259847       65.03650648150975       -1.13081584858606
H          -20.21428651683727       65.38636484141382       -0.21614767174108
H          -20.39826196630821       65.55548372206954       -2.04608991210278
C          -23.88531007591498       60.33810502410424       -4.16848822655788
H          -23.02937215148577       61.00902620400403       -4.04957394116192
H          -24.69436808211154       60.89246646719812       -4.65843498896561
H          -23.58483583786898       59.51051787025174       -4.81919063157612
C          -25.55309696481480       57.74634384894427       -3.65922506588919
H          -25.76674260876349       58.15808492296616       -4.64630323570616
C          -25.70629627906805       56.44015480773820       -3.47304829344086
H          -25.46764892091084       55.98188929172622       -2.52295736342933
H          -26.05962551963867       55.78995622447901       -4.26680978003424
C          -27.84843627487307       55.47347098176760        0.91527758715040
H          -27.25655628031814       54.60209403234214        0.60967938991354
H          -28.32851096439664       55.89296310016804        0.02617021477164
H          -28.62637099168922       55.13074897230597        1.60506501776857
C          -27.51473771933351       55.88433426151918        4.01892516311216
H          -27.56488207731324       54.82452049283953        3.74500186825027
H          -28.54117715609586       56.24223462939632        4.16463902145868
H          -26.97867992578509       55.96419553714600        4.96828414927470
O          -26.02524648704046       61.28368503729632        1.75039019135537
H          -25.67691919764739       62.17271855304200        1.77435635107231
H          -26.94169936663584       61.09730918673007        1.84600840787470
C          -21.71321344699331       58.11080068798115        2.66950431643908
H          -21.25453028627938       59.02565626959615        3.05608319186858
H          -20.94405584861652       57.34263546137267        2.54637605393318
H          -22.48491890625647       57.77907503921137        3.36813731856169
S          -22.48508246617748       58.48946439866204        1.06571241331306
H          -23.10906727500616       57.31507288313825        0.95464019015958
72
 energy: -105.964188836319 gnorm: 0.024776559222 xtb: 6.7.1 (edcfbbe)
Fe         -24.28113893629331       59.85142052179294        1.47447339290858
N          -23.98970411234523       60.09994358685160        3.48385623314862
N          -23.13597798387932       61.51098137594753        1.10775645305342
N          -24.60580741801935       59.62086944001782       -0.53807271016639
N          -25.48044849618785       58.25811174280129        1.86470956228191
C          -24.56237239640583       59.37849034236098        4.48550139371446
C          -24.11815125558567       59.87718822016654        5.77795297966146
C          -23.26547960435747       60.91089738888946        5.51990647547701
C          -23.19951230065225       61.03998906475970        4.07219122926402
C          -22.44127064278491       62.24268006179887        2.02385602776971
C          -21.72086918291503       63.31916514373321        1.36425767175388
C          -21.99871541041129       63.21333886023547        0.01830568504475
C          -22.88652071555264       62.05927354178024       -0.10967820997734
C          -24.08154738068661       60.39777391909910       -1.52297300104823
C          -24.36278401648201       59.82013442775325       -2.81954798802726
C          -25.07649977082341       58.66874825405192       -2.59058362931492
C          -25.22942930299631       58.57219883756739       -1.14105949717379
C          -26.10828967255303       57.49013732530532        0.92931417396071
C          -26.95546914119155       56.50761121325202        1.58217585907940
C          -26.80710885385097       56.69238067427806        2.92724196945581
C          -25.87653295082546       57.79784349279324        3.08719734906173
C          -25.44256589503034       58.31707346618884        4.30210729434244
H          -25.83900915706178       57.85439675263122        5.19679037511399
C          -22.45245829260054       61.99957263360304        3.39689435895879
H          -21.82624581761506       62.63347272254785        4.01166457172428
C          -23.36392660668974       61.57113035126789       -1.31650808268938
H          -23.12743354426021       62.15433958861383       -2.19596096139644
C          -25.95665018681708       57.61091093668347       -0.44768096763900
H          -26.48813359378170       56.88282116274483       -1.04286601672526
C          -22.54108105483072       61.76262007141758        6.50993906953544
H          -22.76541297462833       61.44938843049846        7.52595819698730
H          -22.82666311261147       62.80874016827484        6.41686664264744
H          -21.46335388336573       61.69631173963705        6.36844422242908
C          -24.53528848980623       59.35500012342578        7.11343586359446
H          -24.75579795214690       58.29274638587862        7.07212936377863
H          -25.42672560195079       59.86972586397058        7.47201201415038
H          -23.74985523680107       59.50410118304293        7.85042040978941
C          -20.86520488603923       64.33023248798702        2.04871582909684
H          -19.81002277814795       64.07998435213875        1.93324136045747
H          -21.08288580087432       64.39146159302798        3.10977709470969
H          -21.02354484951216       65.31810883464539        1.62327959102557
C          -21.53559075758796       63.99822170220281       -1.10409039220183
H          -21.93953469301904       63.70835149668911       -2.06653991927331
C          -20.67777440768660       65.01616250537440       -1.10919461875632
H          -20.19924579128351       65.38525980499995       -0.22469553350642
H          -20.41620889709245       65.52671979394073       -2.02213332284564
C          -23.89771428491180       60.33634892384755       -4.14179790969149
H          -23.04543927052390       60.99943941330504       -4.03311664268857
H          -24.69366669969406       60.88720576009849       -4.64333836895893
H          -23.60150296141224       59.51651646362057       -4.79202947844490
C          -25.54472082687551       57.75384414585240       -3.61257546919950
H          -25.75316956356057       58.19258646921264       -4.58346472587597
C          -25.69621789822049       56.44128112635982       -3.46411519280868
H          -25.45537538841490       55.95115899666647       -2.53995740328060
H          -26.05171300609737       55.80950070937840       -4.26008115017521
C          -27.82663099616574       55.49411459842645        0.91558732944598
H          -27.24757349624423       54.62337896476124        0.60777838992811
H          -28.31079052886223       55.90426390610024        0.03402415806787
H          -28.60136096955780       55.15285701764272        1.59734480790179
C          -27.48928728749788       55.90882303293175        4.00276558822820
H          -27.54399589584408       54.85536010886772        3.73337686586752
H          -28.51115498405643       56.25929756387669        4.15239658596276
H          -26.96853272021163       55.98335227090254        4.95168394300575
O          -25.99473272369318       61.26122314379057        1.70948941338967
H          -25.70072756418257       62.17274719908043        1.78119976977519
H          -26.93009112589761       61.09442732889196        1.85091089212933
C          -21.70458669290832       58.09751980153799        2.68996475390474
H          -21.25622140501073       59.01736876334663        3.04807665213341
H          -20.94539520001899       57.33719335093403        2.55284454178633
H          -22.47527683635775       57.77553752351324        3.37758700280970
S          -22.46198976843887       58.48702613048373        1.08054722845945
H          -23.09988809930079       57.31459569990200        0.95311055509315
72
 energy: -105.968486564033 gnorm: 0.029235241600 xtb: 6.7.1 (edcfbbe)
Fe         -24.29088196585911       59.86588833478598        1.47191019531752
N          -23.98704312518743       60.09718276977956        3.46700492356924
N          -23.13833304721408       61.50297936123420        1.10558655262745
N          -24.60310544137830       59.61999611551531       -0.52290702826467
N          -25.48049417372563       58.27300504277294        1.85933482799255
C          -24.55861646455673       59.38025479147595        4.46943613916872
C          -24.11436644982412       59.87127476768856        5.75925055082000
C          -23.26075201432055       60.90344607915567        5.50119533099766
C          -23.19865832614424       61.03220924089375        4.05766824167565
C          -22.44840189537784       62.23494847767219        2.02082557183841
C          -21.72998329147433       63.30862980047299        1.37201229828331
C          -22.00665026347509       63.20696070587844        0.02480309078648
C          -22.89141491783863       62.05333953809092       -0.10683860919527
C          -24.08591584433020       60.39454475079847       -1.50958569796186
C          -24.37244742473957       59.82318311880016       -2.80237279683263
C          -25.07907125929136       58.66707213989127       -2.56947842450572
C          -25.22823043554797       58.57657358608991       -1.12443564944060
C          -26.11071664531464       57.50709651673735        0.93109371262892
C          -26.94895829772118       56.52191051333369        1.57941010567287
C          -26.79625605283283       56.70699421990580        2.92330365513417
C          -25.87317827742386       57.81283188984011        3.07814404083239
C          -25.43994701767604       58.32401657489640        4.29212175425781
H          -25.83213220943162       57.85954974801351        5.18554401074373
C          -22.45940671986937       61.99754854419668        3.39074672843723
H          -21.84906104124330       62.64202419142379        4.00843343797818
C          -23.36044359529522       61.56066046430540       -1.31261066480794
H          -23.10132252592881       62.12097083292350       -2.20056277659866
C          -25.96906554233105       57.62334409193479       -0.44317568506636
H          -26.52166689823931       56.91081207199689       -1.03728477522899
C          -22.54065144444584       61.75773148208315        6.48460078755688
H          -22.76763139748022       61.44403766317207        7.50018756592224
H          -22.83197898373928       62.80247225318695        6.38495693648369
H          -21.46219171522647       61.69566800512478        6.34176044168542
C          -24.53381636001227       59.35064672596544        7.09059080507374
H          -24.75327874842989       58.28733908166816        7.05116546697722
H          -25.42714977948006       59.86643234748166        7.44532710992550
H          -23.74896611358611       59.50460167732127        7.82816125680826
C          -20.88181256695998       64.31600869412979        2.06075348312909
H          -19.82434956127135       64.07748897037999        1.93204986990852
H          -21.09315522565216       64.35719176406089        3.12514865563034
H          -21.05736333819796       65.30798551585328        1.64915639051839
C          -21.54827844159766       63.99235809055509       -1.08723521024498
H          -21.96647693993900       63.70471890059148       -2.04391157692642
C          -20.68032517765960       65.00384924259797       -1.10155108589727
H          -20.17194812557831       65.37077397835137       -0.23025145594882
H          -20.43047104379150       65.50692521060942       -2.02045837093048
C          -23.91118881372305       60.33733573735619       -4.12236954913288
H          -23.05578380794746       60.99756503758376       -4.01432221014239
H          -24.70601472125774       60.89028376556622       -4.62508117364002
H          -23.61926069873568       59.51304856369060       -4.77000485217308
C          -25.54861478586212       57.75519271877034       -3.58234935567434
H          -25.75653502340734       58.21322422416279       -4.54402466023535
C          -25.69224944892001       56.43728833919577       -3.46055367884311
H          -25.42053037852159       55.91477179400210       -2.55780381503982
H          -26.04379369335194       55.82345655306111       -4.27184599277004
C          -27.81196733667197       55.50991298389577        0.90957617447108
H          -27.22957553670448       54.64164334008272        0.59885041765508
H          -28.29532024106373       55.92344548786621        0.02823515084141
H          -28.58609573221590       55.16725490444885        1.59188657180390
C          -27.46952912226651       55.92831426620614        3.99993734655955
H          -27.52234325028224       54.87538175228184        3.72766025155733
H          -28.49108714013548       56.28204861036872        4.14909463477568
H          -26.94580347409352       56.00670693339748        4.94744062545302
O          -25.99552995497985       61.25792528690842        1.62122835857301
H          -25.73176034200838       62.17701229872537        1.81035916309668
H          -26.92013224377101       61.09027312913044        1.87493975248475
C          -21.69531400853865       58.08588840378667        2.70958441749489
H          -21.24568779499311       59.00762496060091        3.05995300321857
H          -20.93842381880208       57.32330037954613        2.56675351307952
H          -22.46539554424757       57.76631101813893        3.39940512824422
S          -22.45867823629160       58.48915842903571        1.10311523960172
H          -23.08901872456712       57.31315319855446        0.95831140821053
72
 energy: -105.970935585531 gnorm: 0.023664796526 xtb: 6.7.1 (edcfbbe)
Fe         -24.28542332299560       59.86699912367314        1.46667886774025
N          -23.99954367913146       60.10451053568226        3.44598660175876
N          -23.14657670311800       61.49207948599083        1.10537394331825
N          -24.59556409179694       59.61900791757968       -0.50450679328402
N          -25.48603280416436       58.29650497253303        1.85054819340296
C          -24.56089075003553       59.38270688425851        4.45110364924944
C          -24.11033970709277       59.86541732948132        5.73709103179245
C          -23.25807128629010       60.89520202177189        5.47981349554678
C          -23.20348252687838       61.03015001928274        4.04161686973149
C          -22.46097186020360       62.22835856381565        2.02036656147575
C          -21.74342529453544       63.29773368250378        1.37969577458395
C          -22.01505163267460       63.19717118404162        0.03454015492430
C          -22.89496305040029       62.04496176676168       -0.10383764056928
C          -24.08524970754331       60.39272911071427       -1.49460857519349
C          -24.38185143871872       59.82659090621588       -2.78277125812131
C          -25.08174599575717       58.66997050122856       -2.54588034723238
C          -25.22773492664452       58.58200091522071       -1.10690627857510
C          -26.11672310837232       57.52611300432564        0.92735303139632
C          -26.94518472678936       56.53964447631422        1.57561074916017
C          -26.78696472221239       56.72385657367523        2.91606700215868
C          -25.87248978147471       57.83062669220622        3.06784807756810
C          -25.44061941455975       58.33040781901699        4.28196926831090
H          -25.82618083387129       57.86217191633169        5.17469459324797
C          -22.46935745377926       61.99911522941736        3.38654331872921
H          -21.87022720774955       62.64949893105532        4.00626932566411
C          -23.35064206262436       61.54995892090659       -1.30956387620862
H          -23.07403258684854       62.08870611836112       -2.20440558900150
C          -25.98346261722322       57.63475696410919       -0.44426440458391
H          -26.54168439618581       56.93219240510535       -1.04294585607473
C          -22.53522999347918       61.75494878649304        6.45677695190660
H          -22.76054635529528       61.44259479461842        7.47401308992536
H          -22.83408485300166       62.79818214835085        6.34908998878932
H          -21.45650410474536       61.69589023047001        6.30781579437818
C          -24.53139060647837       59.34160220033610        7.06709960049096
H          -24.74688858518333       58.27631189675958        7.02532747476446
H          -25.42930433949786       59.85616988331196        7.41567539028739
H          -23.74702875435228       59.50030329016361        7.80561784675560
C          -20.89963263730649       64.30592847625604        2.07478607223133
H          -19.84016927439652       64.08113391009307        1.92960733084667
H          -21.10072979527569       64.32273806401872        3.14400226116485
H          -21.09557455439153       65.30184992944000        1.67793774261689
C          -21.55933293054892       63.98909416016269       -1.07693275557171
H          -22.00357280270569       63.71939938500816       -2.02800356429008
C          -20.67570480479388       64.98719696165902       -1.09310733407156
H          -20.14789392060280       65.34596673774155       -0.22829234094809
H          -20.44455561492747       65.49271699852800       -2.01622900336547
C          -23.92761699449247       60.34046342825096       -4.10515293886634
H          -23.06780881389385       60.99744311330546       -3.99885160242857
H          -24.72438933820382       60.89781590640141       -4.60174453437061
H          -23.64279010962380       59.51195618493902       -4.75243177736072
C          -25.54932071120110       57.75393839582426       -3.55820095908884
H          -25.78048926058953       58.22673179783661       -4.50721144213917
C          -25.67258671673466       56.43284289091149       -3.45530917739962
H          -25.41425076825765       55.89643310834816       -2.55810498601803
H          -26.03813368905355       55.83704644495287       -4.27554849330916
C          -27.79986584549922       55.52506249890379        0.89946350114115
H          -27.20799668353811       54.66334172120363        0.58477644300887
H          -28.28130785002465       55.94417922487053        0.01803678150369
H          -28.57336957411799       55.17583294748267        1.58051783177266
C          -27.44888992730689       55.94690783263808        4.00146329741156
H          -27.49940875662161       54.89317835386360        3.73011528607430
H          -28.46978703905119       56.30378079336212        4.15486769098356
H          -26.91560048610693       56.03238783852193        4.94426587699561
O          -25.99800462479135       61.25147125141290        1.57236748032726
H          -25.75238939389469       62.15962539952326        1.80380701478457
H          -26.90652890271804       61.09331871066880        1.89090927367658
C          -21.68330468281028       58.07294118207823        2.73286653065723
H          -21.22605634655142       58.99201471195663        3.08252037044071
H          -20.93092660994932       57.30397934767359        2.58829258882120
H          -22.45324077061075       57.75568354522918        3.42687227176879
S          -22.44287727552571       58.48377682607300        1.12383609608944
H          -23.07242721217821       57.30967471877788        0.96991313869893
72
 energy: -105.971345564368 gnorm: 0.020531773444 xtb: 6.7.1 (edcfbbe)
Fe         -24.28724091854281       59.86872347111132        1.46340738018676
N          -24.00609907154477       60.10742737805643        3.43263932296532
N          -23.15035598772089       61.48273119189626        1.10533651813548
N          -24.58338482504774       59.61628171013407       -0.49298404523587
N          -25.48607367732250       58.30837262465739        1.84468408482052
C          -24.56244399607740       59.38280817655007        4.44061799543845
C          -24.10589636827067       59.86107683766553        5.72461566443255
C          -23.25595387744436       60.89006425016364        5.46786491239068
C          -23.20801362532098       61.03112756605496        4.03241809614343
C          -22.46879170846030       62.22548004249270        2.02049667419456
C          -21.75204922303538       63.29402470932705        1.38229608629598
C          -22.01788853940539       63.19151051362215        0.03929182845973
C          -22.88996513659547       62.03693256213606       -0.10347687565497
C          -24.07528712165141       60.38825362980818       -1.48714551233328
C          -24.38358074701748       59.82491190411784       -2.77304809612930
C          -25.08632957613414       58.67384452592716       -2.53317453304786
C          -25.22587284430661       58.58488837013920       -1.09672249982240
C          -26.12321693574228       57.53750603305737        0.92406801480949
C          -26.94783821716832       56.55108169418052        1.57398985937303