78
 energy: -115.932226723457 gnorm: 0.283604033959 xtb: 6.7.1 (edcfbbe)
Fe         -17.10500000000000        1.93700000000000       26.07500000000000
N          -18.18800000000000        2.17500000000000       27.81000000000000
N          -17.23700000000000        4.13800000000000       25.91400000000000
N          -16.59400000000000        1.93000000000000       24.14200000000000
N          -17.46200000000000       -0.04600000000000       26.06600000000000
C          -18.57200000000000        1.13400000000000       28.61100000000000
C          -19.04300000000000        1.63300000000000       29.90400000000000
C          -18.95400000000000        2.95300000000000       29.86600000000000
C          -18.41100000000000        3.32500000000000       28.55700000000000
C          -17.66100000000000        5.03000000000000       26.85300000000000
C          -17.50200000000000        6.38700000000000       26.33600000000000
C          -17.01899999999999        6.26800000000000       25.10600000000000
C          -16.83600000000000        4.86300000000000       24.84500000000000
C          -16.15400000000000        3.00000000000000       23.37200000000000
C          -15.51300000000000        2.51300000000000       22.14800000000000
C          -15.56700000000000        1.14600000000000       22.18000000000000
C          -16.24400000000000        0.78900000000000       23.42300000000000
C          -17.14000000000000       -0.91200000000000       25.03700000000000
C          -17.55600000000000       -2.25200000000000       25.35900000000000
C          -18.17800000000000       -2.14200000000000       26.68300000000000
C          -18.06100000000000       -0.71500000000000       27.03100000000000
C          -18.51000000000000       -0.16400000000000       28.21600000000000
H          -18.87100000000000       -0.88400000000000       28.94900000000000
C          -18.13600000000000        4.63200000000000       28.07400000000000
H          -18.33200000000000        5.43800000000000       28.78000000000000
C          -16.32000000000000        4.32500000000000       23.73000000000000
H          -15.97800000000000        5.04600000000000       22.98900000000000
C          -16.50200000000000       -0.53400000000000       23.84100000000000
H          -16.17800000000000       -1.33600000000000       23.17700000000000
C          -19.32999999999999        3.93600000000000       30.99900000000000
H          -18.41000000000000        4.25700000000000       31.53200000000000
H          -20.00800000000000        3.43400000000000       31.72200000000000
H          -19.82900000000000        4.83100000000000       30.56900000000000
C          -19.52800000000000        0.72800000000000       31.06700000000000
H          -18.99500000000000       -0.24600000000000       31.02600000000000
H          -20.62000000000000        0.54600000000000       30.97100000000000
H          -19.30900000000000        1.21700000000000       32.04000000000000
C          -17.81700000000000        7.71200000000000       27.06400000000000
H          -16.86800000000000        8.24000000000000       27.30000000000000
H          -18.35700000000000        7.50000000000000       28.01100000000000
H          -18.43700000000000        8.36100000000000       26.41000000000000
C          -16.66400000000000        7.40100000000000       24.07800000000000
H          -16.55800000000000        7.15900000000000       23.01000000000000
C          -16.47800000000000        8.70100000000000       24.46200000000000
H          -16.57400000000000        8.99000000000000       25.51899999999999
H          -16.23000000000000        9.47300000000000       23.71800000000000
C          -14.82800000000000        3.41500000000000       21.01300000000000
H          -13.72700000000000        3.27100000000000       21.03900000000000
H          -15.05500000000000        4.48700000000000       21.19700000000000
H          -15.20700000000000        3.11300000000000       20.01400000000000
C          -15.03900000000000        0.09600000000000       21.15300000000000
H          -15.21600000000000       -0.96700000000000       21.36900000000000
C          -14.38600000000000        0.35700000000000       20.02500000000000
H          -14.16700000000000        1.39500000000000       19.73400000000000
H          -14.05600000000000       -0.46200000000000       19.36900000000000
C          -17.46000000000000       -3.60600000000000       24.68000000000000
H          -16.93800000000000       -3.49600000000000       23.70500000000000
H          -18.48000000000000       -4.00800000000000       24.49900000000000
H          -16.88300000000000       -4.30700000000000       25.32000000000000
C          -18.78500000000000       -3.38000000000000       27.37800000000000
H          -17.99500000000000       -4.14700000000000       27.52600000000000
H          -19.59000000000000       -3.80900000000000       26.74400000000000
H          -19.19600000000000       -3.09100000000000       28.36900000000000
O          -19.58800000000000        1.67400000000000       25.68500000000000
H          -20.01300000000000        1.95400000000000       26.49500000000000
H          -19.99600000000000        1.38200000000000       24.95100000000000
C          -11.43300000000000        2.68500000000000       26.47100000000000
H          -10.73600000000000        1.83300000000000       26.31700000000000
H          -11.03900000000000        3.33000000000000       27.28500000000000
H          -11.50500000000000        3.26600000000000       25.52700000000000
N          -13.00200000000000        1.41300000000000       27.94500000000000
H          -12.28700000000000        1.14500000000000       28.59100000000000
C          -12.79600000000000        2.15900000000000       26.85100000000000
C          -14.30200000000000        1.09200000000000       28.02800000000000
H          -14.74200000000000        0.48900000000000       28.82100000000000
N          -14.93300000000000        1.63800000000000       26.98300000000000
C          -14.03300000000000        2.30300000000000       26.23600000000000
H          -14.32600000000000        2.82500000000000       25.33400000000000
78
 energy: -115.998437111309 gnorm: 0.121771474452 xtb: 6.7.1 (edcfbbe)
Fe         -17.19188754391008        1.96083724943226       26.04205804281412
N          -18.14403975596192        2.18246863077450       27.85150282835884
N          -17.22873262114602        4.14094224450344       25.91556154543076
N          -16.54645377045835        1.91102947747037       24.12807096479725
N          -17.45098981002290       -0.04515294333968       26.05114376479051
C          -18.55532208034607        1.13074880725657       28.62341878642803
C          -19.04127281722019        1.62163742266384       29.90774124009037
C          -18.94919490240103        2.96996388572331       29.86785401340668
C          -18.39230950959526        3.33193343422172       28.56517131596081
C          -17.65340835673839        5.02758680687461       26.85739795187609
C          -17.50173118322950        6.39354356589970       26.34694770581369
C          -17.00447641740559        6.28712430356975       25.08704976819536
C          -16.83318764412143        4.86438461561613       24.83743820100783
C          -16.13539777218395        2.97839385117622       23.35448016006143
C          -15.50233336998672        2.50279135950510       22.13066987141175
C          -15.56048626954186        1.12810514002475       22.16552323078765
C          -16.22720239545604        0.77385922724867       23.41868814644159
C          -17.13389546128399       -0.91474579105259       25.03732203330564
C          -17.56203180187692       -2.24735670285518       25.39108181049452
C          -18.16292612894979       -2.14624390249661       26.65916195673700
C          -18.05614203774031       -0.73694914790505       27.02644914808186
C          -18.51121258719281       -0.18673419837002       28.22555035859228
H          -18.88169102753205       -0.90020939186159       28.95144675406948
C          -18.13996882523313        4.63031213403255       28.09247330707214
H          -18.34774251369206        5.43391740648824       28.79088769566730
C          -16.30627304490866        4.31602122275560       23.69830123110144
H          -15.96957730068820        5.03932956939628       22.96589949498797
C          -16.50287364797370       -0.53072312434902       23.84526103451631
H          -16.19318052944039       -1.33071706804904       23.18247621902312
C          -19.32240486829447        3.93132729821448       30.98094380293310
H          -18.42233321142390        4.25400209037844       31.51915295440369
H          -19.99315093114693        3.44425943118564       31.69852903440947
H          -19.82095873779371        4.81747347363233       30.57518928367861
C          -19.51955745279870        0.73771083480183       31.04898138705044
H          -19.00220089503268       -0.22751374589432       31.02559660866119
H          -20.59829728035931        0.55173395577244       30.97051736134257
H          -19.31359780209226        1.21111293499150       32.01564657260962
C          -17.82202630503318        7.68639182552978       27.07044192826747
H          -16.89085289708076        8.21811366513842       27.30986699031757
H          -18.35697575145085        7.49901829352537       28.00433972677528
H          -18.43087937636299        8.33678101803157       26.42860699199787
C          -16.66753942023604        7.39486510745468       24.11358891144166
H          -16.56563507368620        7.14096147929787       23.05669863562630
C          -16.48102288412234        8.67436947263967       24.46345487136829
H          -16.55681465781712        8.99205445220631       25.49247049685820
H          -16.23404133096955        9.44065719012762       23.73194562197220
C          -14.85056173740320        3.39525193639501       21.04589061521192
H          -13.75966451909894        3.26606343989955       21.05231268498035
H          -15.06092799055245        4.45836323337020       21.20471320155140
H          -15.21689083971200        3.12022102769555       20.04956404424268
C          -15.05183554143115        0.12013840876539       21.17044196266945
H          -15.23211962310848       -0.93157610007864       21.39559985970831
C          -14.39568858272054        0.36800638757904       20.03965759886657
H          -14.16257846332205        1.37618226054487       19.72808070389433
H          -14.06948437973420       -0.44069687643488       19.38846361932296
C          -17.45631077054079       -3.57431779052373       24.68181988107552
H          -16.94462386003541       -3.49126729904815       23.71611828690063
H          -18.45589465704382       -3.99535126699760       24.50444256439548
H          -16.89781633712744       -4.28732020353184       25.30434881094656
C          -18.77056101988519       -3.34495666379444       27.37028006711775
H          -18.00788802695197       -4.12213541249557       27.52086840545980
H          -19.56875651055375       -3.78877579079894       26.75883700743049
H          -19.18801489992732       -3.08614649567858       28.35017281340819
O          -19.56579070041068        1.70340025152193       25.67799584126594
H          -20.01771639677737        1.94959207398968       26.48427399036714
H          -20.02101443490034        1.37167272736380       24.92639615643194
C          -11.43900498089946        2.68197181794850       26.46857921524877
H          -10.74256179135238        1.84766194176993       26.31586187489601
H          -11.04224458459134        3.32250347775687       27.26610302178829
H          -11.50348428773517        3.25856011097244       25.54230074764748
N          -13.00716216039468        1.41357765656635       27.94022040111464
H          -12.29052368893329        1.14033250839356       28.59256082227130
C          -12.79460616136413        2.16750545473352       26.83746497948611
C          -14.31955253168917        1.10387705613112       28.00861059254516
H          -14.75054026870088        0.50509641530774       28.79422964606167
N          -14.95937001377180        1.64547542331043       26.98050222026640
C          -14.03147014842124        2.30230055085355       26.24177487637625
H          -14.31611008897076        2.82137287712541       25.34451372601524
78
 energy: -116.022442913594 gnorm: 0.037169862951 xtb: 6.7.1 (edcfbbe)
Fe         -17.23838354885113        1.98577303033937       26.02866080267667
N          -18.11116498832576        2.18365949299344       27.86647516122758
N          -17.23469123098684        4.12973645209445       25.90909508407125
N          -16.52609764537537        1.89668864573163       24.11671129856352
N          -17.44872985676753       -0.03381968149276       26.04002958620314
C          -18.52441818574773        1.12939676457116       28.62772621188144
C          -19.02689717518054        1.61394013859373       29.90227537144870
C          -18.93473435751331        2.97759361006145       29.86232794973640
C          -18.36169294533121        3.32793869622328       28.56699710345997
C          -17.64551523029259        5.01335814749128       26.85789918082942
C          -17.49641140254015        6.38080764487390       26.36043065445869
C          -16.98991850479698        6.28740107277121       25.08171536608892
C          -16.83137491943145        4.85396683254684       24.83285458378599
C          -16.12186853503800        2.95946451485980       23.35111254537305
C          -15.49712478765032        2.49546663034879       22.12609264627547
C          -15.55371447315802        1.11516735053530       22.16043688940723
C          -16.21212238102134        0.76601106361944       23.42338633623315
C          -17.13036023563194       -0.90686417819127       25.03999290519252
C          -17.56450451896642       -2.23941798354669       25.41622501243040
C          -18.14554635892321       -2.14061812932411       26.64119683131030
C          -18.05307237966153       -0.74489643027235       27.02644044643373
C          -18.50428665901380       -0.20237679404555       28.23290452325312
H          -18.89494868043614       -0.91085024156967       28.94930353699080
C          -18.13543088486597        4.62299256620911       28.10654178671769
H          -18.36704690667701        5.42560375896526       28.79568928718489
C          -16.29348658717822        4.30462814745247       23.67896409275236
H          -15.96419966846045        5.02805439490703       22.94783229862006
C          -16.50125196235554       -0.52646149973143       23.85341851004342
H          -16.21533482956302       -1.32895216164647       23.18653013295972
C          -19.31212762083398        3.92423838321873       30.95730341647159
H          -18.42565304832596        4.25271713967035       31.50140777069032
H          -19.97964033499276        3.44510266982980       31.67093004934567
H          -19.81211042836898        4.80689422912915       30.56764126086474
C          -19.50876027761084        0.75173292723198       31.02704121229095
H          -19.00203865068654       -0.21015503204329       31.01769287144931
H          -20.58116943819256        0.56305151956026       30.95843919656275
H          -19.31379783501514        1.21846332924301       31.99040620179669
C          -17.82528690367452        7.64916975225287       27.07931098364337
H          -16.90897602237371        8.18926998844120       27.32722965115927
H          -18.36448247914102        7.47548287931154       28.00302150326813
H          -18.42692846005384        8.30208525782623       26.44397752885586
C          -16.67027240043802        7.36468864734494       24.15715837760531
H          -16.57485321474716        7.09705542004476       23.10846546577957
C          -16.48002752226431        8.64250500029425       24.47295645690986
H          -16.53488728365782        8.99892495494026       25.48172550348605
H          -16.24071035042087        9.39756071497022       23.73922504785504
C          -14.87678491989596        3.36773795748165       21.07917333600060
H          -13.79059073987585        3.24875042398309       21.07317768687827
H          -15.08217809545921        4.42342648340758       21.23622995565005
H          -15.24029987830046        3.11327530447041       20.08345034559999
C          -15.06718688294680        0.14908633166478       21.19653170232953
H          -15.25650979496072       -0.89292709978049       21.43123863728847
C          -14.40861713655607        0.38117930099459       20.05979846278467
H          -14.15737618451887        1.36625904206655       19.72281560127593
H          -14.09044565438773       -0.42501821941814       19.41585659528993
C          -17.44929288743488       -3.54214999189156       24.68025392129160
H          -16.94488992194585       -3.45957452290034       23.72295876183896
H          -18.43937412619623       -3.96982974909076       24.50606771817791
H          -16.90118782750480       -4.26310320546983       25.29188718717115
C          -18.75329100352205       -3.30713044787721       27.36361417262080
H          -18.00616588275357       -4.08996130909753       27.51727336921159
H          -19.54998182221059       -3.75538937524416       26.76412308603393
H          -19.17211475053714       -3.05195524837594       28.33286922035811
O          -19.54037647314458        1.80274601550127       25.62547564424479
H          -20.02172247300977        1.91990909183928       26.46126868815952
H          -20.04012781686082        1.34737238018215       24.92729176125371
C          -11.44683431177223        2.67915099538059       26.46371706089296
H          -10.75173188820350        1.85404960298842       26.31316789676379
H          -11.04934733648653        3.31656344524759       27.25288219568620
H          -11.50531397507175        3.25504028083339       25.54787451229161
N          -13.01913896286283        1.41203744931854       27.93535700990725
H          -12.30627046237938        1.13101077643668       28.59271402578038
C          -12.79752473087541        2.17489778562087       26.82355687300060
C          -14.34176417308415        1.12200496806340       27.98670439840649
H          -14.77112985447395        0.52489406329858       28.76516070231959
N          -14.97835685332574        1.66083893565962       26.97259600967476
C          -14.02910807684009        2.31113006935761       26.24139389447861
H          -14.30391299206228        2.82949882871582       25.34632093369453
78
 energy: -116.029641735644 gnorm: 0.066992510471 xtb: 6.7.1 (edcfbbe)
Fe         -17.25511489819998        1.99725109860179       26.02610837999757
N          -18.06713695576452        2.17575819645385       27.87715087565018
N          -17.22505361749306        4.10795445703072       25.91571009930966
N          -16.51496203349680        1.89151257174561       24.12522089564459
N          -17.44980209899918       -0.01937357418889       26.04066241842223
C          -18.49155322631582        1.12601593099195       28.63383915467364
C          -19.00150124570790        1.61058358499034       29.90060366979439
C          -18.91009763700907        2.97370624203675       29.86097781440695
C          -18.32947777643408        3.31723307830273       28.57344905803475
C          -17.63500923881459        4.99010296065090       26.86609319616496
C          -17.48762416512559        6.35182922100927       26.38161211410544
C          -16.97795957187127        6.26470327025832       25.10256140116724
C          -16.82496976851539        4.83459469554141       24.84135741994060
C          -16.11816471942974        2.95123560905764       23.36074819864360
C          -15.50091816148871        2.48921705057063       22.13869146681654
C          -15.55383126566619        1.11116251471359       22.17133933391061
C          -16.20773536939070        0.76440566932718       23.43324021973959
C          -17.12667722915636       -0.89149080309203       25.04398362070710
C          -17.55324908425746       -2.22588822596759       25.41704167972961
C          -18.13397728500182       -2.12702186255272       26.64432548823212
C          -18.04675506326868       -0.73633813056306       27.03256451671717
C          -18.49209504177589       -0.20672327470998       28.23987411604757
H          -18.90240016498289       -0.91506069661054       28.94728011359106
C          -18.12448940868250        4.61148578921210       28.11652053672792
H          -18.38178916136127        5.41381556279866       28.79748635516854
C          -16.28892833701603        4.29498483905848       23.68066108407793
H          -15.96441641042841        5.01603208700126       22.94396943670260
C          -16.50310758302057       -0.52451611207414       23.85738000929008
H          -16.23765587523960       -1.33114333485851       23.18647417923993
C          -19.30017551411563        3.92471356785186       30.94151401789239
H          -18.41802999510303        4.26107609956584       31.48857664620301
H          -19.97034423679256        3.44209472924864       31.64931079866911
H          -19.80347744078611        4.80268466299985       30.54442222911852
C          -19.49863940629047        0.75618307508838       31.01746810900163
H          -18.99468922778177       -0.20737344574830       31.01561548669652
H          -20.57149728113438        0.57454509266820       30.93755889440951
H          -19.31066793799532        1.23108353117223       31.97783943149119
C          -17.83398834985034        7.60865345075248       27.10414838530970
H          -16.92489484080184        8.15220969356317       27.37011554208438
H          -18.38849519770613        7.42635583824419       28.01815938570392
H          -18.42953464977460        8.25909668291965       26.46079026099683
C          -16.66499631010515        7.33340352933323       24.18394738378311
H          -16.57584591495587        7.04944737037232       23.14037789810980
C          -16.47140984731893        8.61915276589923       24.47793142389449
H          -16.49966522123093        9.00276713207667       25.48072419195650
H          -16.23958311825351        9.35481442668950       23.72500335498985
C          -14.89784197629878        3.35977109672570       21.09468178305904
H          -13.81272506893986        3.23504714392921       21.08148132361271
H          -15.10667379734124        4.41153643701840       21.26851687376080
H          -15.27774040923249        3.10689665597834       20.10539479520492
C          -15.07847090543659        0.15394666121192       21.21011238136089
H          -15.27961863132440       -0.88249742183769       21.45383370041399
C          -14.42015533939417        0.37954946864433       20.07149171266588
H          -14.15145496516922        1.35814991835441       19.72463658910349
H          -14.11466565076846       -0.43218129987129       19.43231080168584
C          -17.43647865248381       -3.51488669346825       24.66807974260181
H          -16.93440010068736       -3.41282510202021       23.71293508920948
H          -18.42764157308331       -3.93811952047387       24.49436661735619
H          -16.88782340791649       -4.23989166135218       25.27293740088297
C          -18.74286743069044       -3.27961529760746       27.37238550610693
H          -17.99626369557432       -4.06089011822216       27.52740302435290
H          -19.54067663983719       -3.72178091645154       26.77176799152491
H          -19.15770992886675       -3.00545276932554       28.33655638031912
O          -19.54028447873408        1.93658844767443       25.53975369885147
H          -20.02355732935844        1.87847931728375       26.42303379378293
H          -20.04388410988372        1.32897788587668       24.91438721676144
C          -11.45557566208640        2.67659616527787       26.45656069175385
H          -10.76250152926564        1.84992622263134       26.30620349249104
H          -11.05675161601064        3.31283339837664       27.24595431727413
H          -11.50867872676770        3.25547871224756       25.54139666781107
N          -13.04615273269363        1.41393328697273       27.92152968364423
H          -12.34162233270085        1.12016224869122       28.58206561667181
C          -12.81023603109594        2.18164564584437       26.81019082540224
C          -14.37502309899457        1.14564169747457       27.95998277458236
H          -14.81610342619364        0.54910121704253       28.73213759978512
N          -14.99890073309931        1.69619818673511       26.94941081382218
C          -14.03482679808161        2.33638216867250       26.22474850245064
H          -14.29530633807692        2.86036220053716       25.32932229873009
78
 energy: -116.035341214524 gnorm: 0.046463375248 xtb: 6.7.1 (edcfbbe)
Fe         -17.26956480096532        2.01267497511357       26.02673012490401
N          -18.01731345908374        2.16321976382368       27.88185979225519
N          -17.21416270573104        4.07607363921162       25.92251503905581
N          -16.50371597171526        1.88655203843231       24.14018670372054
N          -17.45463365119656        0.00257604439383       26.04253503105684
C          -18.45173521271601        1.12125551694611       28.63820057754354
C          -18.96989012235440        1.60716510082529       29.89492159736128
C          -18.87977039522600        2.96673040089856       29.85538716056184
C          -18.29123179112470        3.30156231906697       28.57730520247400
C          -17.62319118367753        4.95802618191300       26.87427913148580
C          -17.47720028302463        6.31121720525711       26.40690613063499
C          -16.96569286617494        6.23078793186499       25.13036250164890
C          -16.81772005251285        4.80717777123039       24.85185773095397
C          -16.11557604949315        2.94194778095179       23.37549963654752
C          -15.50774289930488        2.48103823277274       22.15799429564281
C          -15.55502994111530        1.10742659686531       22.18873259513897
C          -16.20275207208732        0.76371044637432       23.44836722374351
C          -17.12280419123935       -0.86900120328738       25.05028885995275
C          -17.53633842275720       -2.20682479840371       25.41598658706159
C          -18.11851857126538       -2.10813998360025       26.65096217168728
C          -18.03877787796682       -0.72271052425877       27.04125193165405
C          -18.47749791206969       -0.21180345440201       28.24815968255282
H          -18.91057170175744       -0.92011343861866       28.94520686343452
C          -18.11158157609612        4.59612531997708       28.12552419539387
H          -18.40026098147388        5.39673606606776       28.79737143675569
C          -16.28476794768231        4.28304235201946       23.68417903609366
H          -15.96598519867116        4.99966271581006       22.93849652791851
C          -16.50544973277160       -0.52235049255513       23.86302356174221
H          -16.26465679603915       -1.33470972584574       23.18867894312471
C          -19.28533009657609        3.92469228997017       30.92053821804901
H          -18.40790137700245        4.27188099315174       31.47096307221675
H          -19.95885392198836        3.43753315195805       31.62237859594564
H          -19.79387614874528        4.79722108179349       30.51327380309084
C          -19.48593233241607        0.76137874603332       31.00524850329419
H          -18.98501642112392       -0.20492184410473       31.01300714066641
H          -20.56024457373843        0.58830710906595       30.91093725303835
H          -19.30625232993987        1.24744218492022       31.96229417137543
C          -17.84344170830293        7.55918513262231       27.13067292212150
H          -16.94289932216086        8.10844299769507       27.41615149848538
H          -18.41714110594582        7.36671986469547       28.03423145732145
H          -18.43263222539181        8.20595626300492       26.47680196867659
C          -16.65907338492146        7.29341543756554       24.21588948648127
H          -16.58013475766020        6.99278872300722       23.17768248048043
C          -16.46120815780740        8.58835875772005       24.48917205279181
H          -16.46644022286225        9.00214506409097       25.48513120528096
H          -16.24202614462817        9.30044935974381       23.71079761387089
C          -14.92202108030423        3.35000595107719       21.11193271520310
H          -13.83800550411359        3.21792194907338       21.09058343181374
H          -15.13541989862542        4.39768593980106       21.30608792332736
H          -15.32270028110603        3.09665286022951       20.13092692597355
C          -15.09079540710297        0.15826267612102       21.22642168335904
H          -15.30721380981351       -0.87134685775969       21.48124306445028
C          -14.43277298486436        0.37873429962316       20.08684440747398
H          -14.14505985999254        1.35110649453041       19.72812361960117
H          -14.14305491089955       -0.44077790622099       19.45351401085729
C          -17.41954601607514       -3.48083763274233       24.65498149397502
H          -16.91985161976469       -3.35411929034793       23.70152346463221
H          -18.41290056299937       -3.89827886694643       24.48092763085896
H          -16.86942986711108       -4.21117364040669       25.25122475261579
C          -18.72875575734861       -3.24729476758070       27.38315271133376
H          -17.98245563681235       -4.02671653930762       27.54067800620194
H          -19.52849088501550       -3.68150263869150       26.78053680655858
H          -19.13884675671531       -2.94847589337409       28.34170405662729
O          -19.53316772702297        1.87910952446551       25.52351047399456
H          -20.02065331241758        1.95835458626648       26.32334295556802
H          -20.03910939024807        1.41460286738831       24.87524234883898
C          -11.46741104834058        2.67466059725834       26.44808285492499