78
 energy: -115.933178080476 gnorm: 0.359897313615 xtb: 6.7.1 (edcfbbe)
Fe          28.18900000000000       93.94100000000000       53.02100000000000
N           29.23100000000000       95.60700000000000       52.39300000000000
N           29.26800000000000       93.89100000000001       54.78199999999999
N           27.14800000000000       92.27900000000000       53.68500000000000
N           27.05900000000000       94.01200000000000       51.28000000000000
C           28.98200000000000       96.34099999999998       51.30000000000000
C           29.74299999999999       97.49400000000000       51.28899999999999
C           30.44200000000000       97.48399999999999       52.48199999999999
C           30.07500000000000       96.31999999999999       53.12800000000000
C           30.18500000000000       94.79200000000000       55.15100000000000
C           30.81100000000000       94.45099999999999       56.33900000000000
C           30.29200000000000       93.17799999999998       56.66199999999999
C           29.32400000000000       92.89899999999999       55.68700000000000
C           27.45300000000000       91.50500000000000       54.73699999999999
C           26.56400000000000       90.43899999999999       54.85000000000000
C           25.65200000000000       90.61099999999999       53.76599999999999
C           26.14000000000000       91.69000000000000       53.03100000000000
C           26.11800000000000       93.12300000000000       50.92500000000000
C           25.71900000000000       93.33199999999998       49.60800000000000
C           26.40600000000000       94.45799999999998       49.18600000000000
C           27.19500000000000       94.85599999999999       50.27000000000000
C           28.04900000000000       95.96899999999998       50.30900000000000
H           27.98200000000000       96.64000000000000       49.45399999999999
C           30.51400000000000       95.92400000000001       54.39700000000000
H           31.22200000000000       96.60200000000000       54.87100000000000
C           28.49400000000000       91.77300000000000       55.63500000000000
H           28.68100000000000       91.00800000000000       56.38800000000000
C           25.67100000000000       92.09600000000000       51.77000000000000
H           24.82700000000000       91.52300000000000       51.38800000000000
C           31.38700000000000       98.55100000000000       52.98199999999999
H           30.92800000000000       99.07800000000000       53.84499999999999
H           31.58400000000000       99.28699999999999       52.17300000000000
H           32.34000000000000       98.08400000000000       53.31099999999999
C           29.75100000000000       98.58700000000000       50.22800000000000
H           28.74800000000000       98.65100000000000       49.75399999999999
H           30.50400000000000       98.34699999999998       49.44800000000000
H           29.99000000000000       99.56499999999998       50.69800000000000
C           31.86400000000000       95.32599999999999       57.02099999999999
H           31.48400000000000       96.36700000000000       57.10500000000000
H           32.79600000000000       95.33100000000000       56.41700000000000
H           32.07300000000000       94.93600000000001       58.03999999999999
C           30.63300000000000       92.28400000000001       57.68500000000000
H           30.00800000000000       91.38699999999999       57.79099999999999
C           31.72800000000000       92.38800000000001       58.64600000000000
H           32.41100000000000       93.25000000000000       58.62299999999999
H           31.88200000000000       91.60599999999999       59.40400000000000
C           26.52400000000000       89.49200000000000       56.06400000000000
H           26.48600000000000       90.09000000000000       57.00000000000000
H           27.43800000000000       88.86000000000000       56.07700000000000
H           25.61900000000000       88.84999999999998       56.00900000000000
C           24.48500000000000       89.91200000000001       53.38100000000000
H           23.86800000000000       90.37800000000000       52.60100000000000
C           23.97200000000000       88.63599999999998       53.88000000000000
H           24.51300000000000       88.08400000000000       54.66300000000000
H           23.03900000000000       88.21400000000000       53.47800000000000
C           24.74900000000000       92.50600000000000       48.76499999999999
H           23.70400000000000       92.77600000000000       49.02999999999999
H           24.90400000000000       91.42399999999999       48.96600000000000
H           24.91300000000000       92.71899999999999       47.68699999999999
C           26.31600000000000       95.09900000000000       47.81500000000000
H           25.30400000000000       94.92500000000000       47.39000000000000
H           27.07300000000000       94.64699999999999       47.13900000000000
H           26.48800000000000       96.19300000000000       47.90000000000000
O           26.86900000000000       95.16400000000000       53.84399999999999
H           27.08900000000000       96.04100000000000       53.52799999999999
H           26.20400000000000       94.95500000000000       54.39500000000000
C           30.75800000000000       90.28700000000001       49.74500000000000
H           30.89700000000000       89.27300000000000       50.17799999999999
H           31.68900000000000       90.58400000000000       49.21700000000000
H           29.90800000000000       90.25999999999999       49.02999999999999
N           31.18000000000000       91.61600000000000       51.91100000000000
H           32.06900000000000       91.21899999999999       52.14000000000000
C           30.46000000000000       91.27900000000000       50.86000000000000
C           30.55400000000000       92.53500000000000       52.59000000000000
H           30.93200000000000       92.99800000000000       53.49999999999999
N           29.41800000000000       92.78700000000001       51.98600000000000
C           29.31500000000000       92.04400000000000       50.92999999999999
H           28.44500000000000       92.09300000000000       50.28699999999999
78
 energy: -116.012223662253 gnorm: 0.149865459482 xtb: 6.7.1 (edcfbbe)
Fe          28.18453852959792       93.93328870953073       53.00827941980988
N           29.19582274652073       95.59992727833738       52.40462092579042
N           29.26060641960994       93.88856633591534       54.76107131089193
N           27.17166057620286       92.28557863263273       53.66237676523058
N           27.05871262265688       94.01498873489848       51.30611501919632
C           28.96491787249586       96.32831429681330       51.28695234384641
C           29.74351900407640       97.51218251212330       51.28806177788309
C           30.44727965481286       97.50156079592242       52.47180337590050
C           30.07451108724334       96.31109617027255       53.14067947001157
C           30.17948682895718       94.80630077892357       55.14083851150284
C           30.82240294696138       94.44474849559946       56.34673543747637
C           30.31304980217174       93.18362309947867       56.67936440570017
C           29.31777406605204       92.89493378943048       55.68069185691198
C           27.45773076306340       91.51625502702544       54.74031856790506
C           26.54293458321638       90.43770891189114       54.85693931870719
C           25.64754024104334       90.58000271431585       53.77895636643782
C           26.13107886631695       91.70330587653712       53.02978666324310
C           26.12410862428812       93.10700473927547       50.93916985091161
C           25.71282544473945       93.33549677877566       49.59553813313400
C           26.39340186679155       94.45654964967115       49.17525176014776
C           27.21047333780906       94.86006589701356       50.27163719178069
C           28.05234592454872       95.96863518645114       50.29492672835297
H           27.98596730958202       96.63788800717235       49.44683979092152
C           30.51895083677426       95.93557653624022       54.40189375433709
H           31.22757830427668       96.60623949408868       54.86976792005834
C           28.49664402504240       91.77286316607395       55.63806998754012
H           28.67291284508589       91.01216504639547       56.38887809791891
C           25.66107783792157       92.09281880309692       51.77350828439786
H           24.83233115986757       91.51809541098292       51.37968199078380
C           31.38591513782935       98.55124694405615       52.98009514732564
H           30.93861719726729       99.07416958578277       53.83589914121422
H           31.58912946788623       99.27972164747945       52.18911962450832
H           32.32944990145184       98.09663218676117       53.30566948293681
C           29.74956202574236       98.58366109577611       50.23314394962573
H           28.76385028737306       98.65390656550748       49.75895211273748
H           30.49281648376114       98.35446943848980       49.45871455444139
H           29.98755530947092       99.55270390035240       50.68500588751128
C           31.85405338928216       95.31551005533025       57.01935793997446
H           31.48750979565143       96.34746234861871       57.10163434353996
H           32.78179686929171       95.32805288224323       56.43130351423756
H           32.06997678564915       94.95215440515302       58.02582513515561
C           30.66273215609669       92.28822666212204       57.72503470025516
H           30.03642444440363       91.39869792743087       57.80774045802874
C           31.69822257166985       92.38413416832311       58.62313663826126
H           32.39109385599172       93.21781423159098       58.61589651478323
H           31.86286249535114       91.61941155088901       59.37557004067517
C           26.51926653597213       89.50104984742808       56.04740030185971
H           26.48692796237550       90.08151261804313       56.97969943125882
H           27.41943482403736       88.87113107248261       56.07104293447003
H           25.63607007792177       88.85957828225463       56.01486714881460
C           24.47108334025896       89.86545503263790       53.40085490653799
H           23.87000591758425       90.34630479905033       52.62559992063285
C           23.98762757575614       88.66897946976933       53.87016808389085
H           24.50570031045661       88.10072644837301       54.63454922643155
H           23.06698988502536       88.24252420389976       53.48151289043205
C           24.75365641845113       92.51223114386300       48.77334128704113
H           23.71652212701518       92.76935290006737       49.02678676624174
H           24.90133133866755       91.44170223292713       48.96173429787451
H           24.90945774912625       92.71095388135984       47.70704898088073
C           26.31254133834880       95.09709248416452       47.82032023620976
H           25.31824245536142       94.93173828877325       47.39076007747212
H           27.06184413767100       94.65920626155446       47.14693576299547
H           26.48713931955904       96.17630892112550       47.89334912296824
O           26.87472850252096       95.18008949276121       53.84876271226163
H           27.06756051080650       96.06463470506642       53.54010257058301
H           26.16497716768613       94.96919943008749       54.42407125397695
C           30.76634055211976       90.28086803497786       49.74790963109283
H           30.90119615485514       89.27775017525053       50.16821849306838
H           31.68021359505676       90.57406538494121       49.21848268935175
H           29.92845715912977       90.26108099475185       49.04431570726339
N           31.20136602193535       91.59809039310223       51.89567919124382
H           32.09227675195243       91.19969642291257       52.12699059559532
C           30.45124472668220       91.26436428454683       50.83079196004232
C           30.56537783090927       92.53435649918748       52.59647771749364
H           30.93937915292044       92.99182575714366       53.49217404641367
N           29.41840684783218       92.79717121931444       52.01463628386283
C           29.31633365811892       92.04051917337331       50.92641295580638
H           28.45354775198950       92.08968367401697       50.28914860398999
78
 energy: -116.032794116292 gnorm: 0.052906902327 xtb: 6.7.1 (edcfbbe)
Fe          28.18019106621004       93.92751912427387       52.99381331281755
N           29.15666332156677       95.59982329386173       52.41919127746279
N           29.25838819018428       93.88730497981545       54.73877589879601
N           27.19274720461942       92.29284497748776       53.63809491180290
N           27.06595819202618       94.01146034694357       51.32676813282389
C           28.94310908933456       96.31986856287432       51.28378873516171
C           29.73813979212922       97.52199293756280       51.29195635201299
C           30.44199866611866       97.51031854355361       52.46247543031443
C           30.06103000430182       96.30616250674343       53.15247136516872
C           30.17348771272948       94.81702512732238       55.12678113704547
C           30.82502337799335       94.43574021209480       56.34664532047631
C           30.32527447651337       93.19084463799543       56.67927632686076
C           29.31536249404031       92.89335940753232       55.66605829630206
C           27.46468400669198       91.53281467080662       54.73655409805756
C           26.52490275792075       90.45015043131056       54.85826913005192
C           25.65109894751792       90.57087907370305       53.79176626492349
C           26.13146085619350       91.71348912892228       53.02408385194185
C           26.13151451420038       93.09579943399673       50.95491269396803
C           25.71045811113350       93.34019253941960       49.59392761269660
C           26.38444404743743       94.45225425456908       49.17594273276135
C           27.22406424921776       94.85904785451390       50.27815497107440
C           28.05385849043769       95.96740997075921       50.28310485184267
H           27.99761465896882       96.62744425754747       49.43040496008344
C           30.51994431444787       95.94892989690453       54.40503769635612
H           31.23605116013469       96.61257820160611       54.86465420726135
C           28.49883280544671       91.77592572507963       55.63717210895520
H           28.65717010695723       91.02332103190490       56.39639535175660
C           25.65356378108038       92.08552733853142       51.77367228951729
H           24.83700546916639       91.50553564790178       51.36916594393079
C           31.38230605598370       98.54657023726681       52.97695772579299
H           30.94599048901113       99.06854065355178       53.83023174049679
H           31.59646075048122       99.27582143217676       52.20142723399604
H           32.32066730383469       98.09969977866024       53.30070625249058
C           29.74602106817041       98.57752993873403       50.23800040936867
H           28.77178531081662       98.65505863153479       49.76132501672032
H           30.48425146875729       98.35446077790813       49.46665731325508
H           29.98785794125579       99.54399141996760       50.67392182104404
C           31.84064582503148       95.30282528976643       57.01665297681335
H           31.47995197719617       96.32950336083054       57.09057168122759
H           32.76939747016843       95.31901437690787       56.44240381626393
H           32.06086847120672       94.96078065316414       58.01948326522767
C           30.67987086365999       92.29016134914195       57.74596474351939
H           30.04363156302549       91.41278474240981       57.81677314414359
C           31.67502111408573       92.38055928165775       58.60347602781947
H           32.38192571295834       93.19098730293163       58.61058217498222
H           31.84377314659878       91.62643063225515       59.35471568470629
C           26.51286767550281       89.51598018846097       56.02737271494723
H           26.49019686626383       90.08372101145831       56.95953454798364
H           27.40562966940612       88.88766120283488       56.04889649721729
H           25.64330569446535       88.87051563853355       56.01192684744360
C           24.46514441403927       89.83890398226491       53.41657592379521
H           23.87788076366460       90.33096695302434       52.64451611792215
C           24.00827317792175       88.69018407113801       53.86407129494672
H           24.50786976299778       88.10379530664135       54.61503118120360
H           23.09023812578513       88.26543793926915       53.48868773515350
C           24.75833650512338       92.51784805667670       48.78778323704046
H           23.72449225052444       92.76511242690887       49.03312531670705
H           24.90355873042863       91.45450256315942       48.96929708131142
H           24.90756301939885       92.70526745998993       47.72658921967292
C           26.31019161132934       95.09552076214455       47.83113014397989
H           25.32788768607662       94.93782150108865       47.39197716365039
H           27.05613518031338       94.66858935006606       47.15797878190613
H           26.48791237644729       96.16602289563984       47.89494336505731
O           26.87237130581278       95.20115260784426       53.88138552573633
H           27.01190443831932       96.09849728463345       53.57151700132280
H           26.12598041113442       94.99856325972137       54.44224954731435
C           30.77310094483029       90.27596323046807       49.74845876155109
H           30.91078692529466       89.27937383568946       50.16216861187007
H           31.67955935273060       90.56297641218973       49.21899691374675
H           29.94723545303137       90.25200785259835       49.04529362794592
N           31.22869596861396       91.57782133986865       51.87369046750080
H           32.12189925337282       91.17588473452648       52.09980986068343
C           30.44213599968234       91.25633599027222       50.80746633035731
C           30.59013671159190       92.51955390937505       52.59702244828241
H           30.96971683904401       92.97197746810156       53.48310321394553
N           29.42964048097734       92.79716784630776       52.05110083964090
C           29.32201941106665       92.03751940777524       50.93650169197775
H           28.46186459784646       92.09006953692506       50.30363169809416
78
 energy: -116.039491563854 gnorm: 0.027008765980 xtb: 6.7.1 (edcfbbe)
Fe          28.17809805750586       93.93304658787527       52.99285743641249
N           29.12905070261493       95.61041960902776       52.42949728413851
N           29.26237742607521       93.88984328913156       54.72353935807683
N           27.20146466223925       92.30042720359958       53.62113552559047
N           27.07319213711472       94.00900062280358       51.33514246933865
C           28.92494785701132       96.32389350520504       51.28757806957633
C           29.72625687821369       97.52943098149888       51.29505440788405
C           30.42928253432555       97.51798550802081       52.46081731492923
C           30.04129539738448       96.31360452905521       53.15951840147348
C           30.17309731891246       94.82194208011548       55.11563274693652
C           30.82390075933068       94.43162362619714       56.34004380530858
C           30.32285618999584       93.19473585176289       56.67022250921393
C           29.31518144697860       92.89646294670266       55.65084081496030
C           27.46699871397661       91.54886888229096       54.72773852547468
C           26.51762563187754       90.46861969149326       54.85516328919489
C           25.65520902625418       90.57916408475052       53.79141724837327
C           26.13631609020819       91.71959522676687       53.01448630294566
C           26.13818028496844       93.09359626138698       50.96138435909153
C           25.71118443179434       93.34290485307250       49.59866420076156
C           26.38315235648634       94.45039918718230       49.18038149991684
C           27.23054234597568       94.85602994775638       50.28214538856109
C           28.05513510586367       95.96546604024175       50.27475461180101
H           28.01595512912358       96.60942307054651       49.40821738984283
C           30.51658315337187       95.96034671841528       54.40528331159700
H           31.24187482699852       96.61966856879424       54.85724391994066
C           28.49503160709357       91.78487318837176       55.63205252105752
H           28.63360051587789       91.04276914489699       56.40583003090066
C           25.65350341271445       92.08022009907054       51.76719170226347
H           24.84700380805200       91.49205947375960       51.35374451961932
C           31.37959983810036       98.54391158106102       52.97624115991947
H           30.95080324737385       99.06584592627844       53.83234105003805
H           31.60339940125844       99.27627957423293       52.20672934146893
H           32.31490242420844       98.09025745490068       53.29632546050933
C           29.74014278760921       98.57604091556581       50.23518784997684
H           28.76834559836068       98.65765142501269       49.75662198288782
H           30.47805277964823       98.34572151019981       49.46689596419422
H           29.98905226927760       99.54405929820288       50.66255813833303
C           31.82977026257441       95.29940814874008       57.01515712088667
H           31.46585439209280       96.32458292319116       57.07180378511297
H           32.76526097509404       95.30811313023567       56.45344833413100
H           32.03895277576620       94.97215186071982       58.02482595721369
C           30.66631428198577       92.29097927201954       57.74552270889222
H           30.02076820068372       91.42311161234836       57.81789666085903
C           31.67788028219129       92.36825439240690       58.60379928915841
H           32.40447994625718       93.15975183465682       58.60730105369838
H           31.83115427878762       91.61539699321025       59.35758716299891
C           26.51107875429035       89.53281200693235       56.01581730428135
H           26.49970154269936       90.09587841454915       56.94939932977579
H           27.40202155970385       88.90396883063606       56.01939865198724
H           25.64202074841509       88.88776042121917       56.00782304570222
C           24.46789995173222       89.84135550546040       53.41872582700793
H           23.87571628156530       90.33613528128053       52.65683364820614
C           24.01577125814348       88.67687421064723       53.86964631700411
H           24.52294002976377       88.07573467535819       54.60191762006868
H           23.09539761418301       88.25911555432299       53.49731953175143
C           24.75734699756060       92.51760232910473       48.80394621038220
H           23.72413250660972       92.76128359820028       49.05159174527687
H           24.90737305838617       91.45675574686460       48.98858720011567
H           24.90191269546713       92.69913776766226       47.74198863796153
C           26.31010565571534       95.09817187831139       47.83951232411084
H           25.33069807909646       94.94384710613825       47.39409420868532
H           27.05820307371923       94.67545851332881       47.16753282483581
H           26.48907056982119       96.16719772018159       47.90503223579515
O           26.86673521321257       95.22585962873545       53.94220307710058
H           26.93208220852556       96.12834831474250       53.59898762761483
H           26.07450108697094       95.01985078908625       54.45223389210302
C           30.78028114807821       90.26833594501971       49.74059569862327
H           30.92463175411460       89.27428763802504       50.15789798910736
H           31.68780348818342       90.55347297045321       49.21258575458540
H           29.96068940450088       90.23369523146577       49.03195659555632
N           31.25871296161598       91.56101923649518       51.85124945850720
H           32.15590053576001       91.15448678647246       52.05936448578544
C           30.44472196972601       91.25097179544883       50.79519176293335
C           30.62833608111157       92.49865999495309       52.59582334407047
H           31.02742443734753       92.94372606318959       53.47789618627557
N           29.45463784247269       92.78991317426855       52.08088748620255
C           29.33200778939470       92.03292648542750       50.95534111401702
H           28.46551215250359       92.09041775324405       50.33179687911019
78
 energy: -116.043625733456 gnorm: 0.049023884275 xtb: 6.7.1 (edcfbbe)
Fe          28.18391048599653       93.93608967383804       52.99992581622693
N           29.10609773299005       95.62022352446022       52.43880684466648
N           29.27412917877744       93.89005384004916       54.70712523006856
N           27.20207112984224       92.31124163155413       53.60864988394195
N           27.08244838269062       94.00701216734264       51.34486719337330
C           28.90760793789799       96.32936814248279       51.29487604092709
C           29.71216253582500       97.53643134993014       51.29871420551938
C           30.41246869383744       97.52612132281361       52.46213213261802
C           30.01925242995827       96.32232349638322       53.16621079764744
C           30.17918662857030       94.82294273748698       55.10221354965218
C           30.82554987115974       94.42725471747826       56.33107809865962
C           30.32313991139551       93.19464051106492       56.65693685243428
C           29.31788615038677       92.89958880397627       55.63464534610513
C           27.46453760751363       91.56931113032330       54.72048580076999
C           26.51185989150416       90.48987637729411       54.85320982112452
C           25.65868883933227       90.58784164020473       53.78730476098669
C           26.14041405129830       91.72372295228035       53.00366453236622
C           26.14595059298003       93.09468096574749       50.96808671083692
C           25.71280115413031       93.34647613302280       49.60694826871882
C           26.38491288024759       94.44983487938778       49.18768348455124
C           27.23689052930927       94.85264179900102       50.28850920025626
C           28.05947750370375       95.96165078904835       50.26744931809774
H           28.04096976332179       96.58561335748054       49.38491161606848
C           30.51500365258191       95.97013028043463       54.40369706665253
H           31.24574020044275       96.62836753263008       54.84804643500527
C           28.48638728146988       91.79787990665946       55.62888682699707
H           28.60395247583147       91.06682738416016       56.41599929767474
C           25.65537250963747       92.07259101651259       51.75726909362277
H           24.85933556791007       91.47774283048510       51.33434370531310
C           31.37573357256522       98.54042160514111       52.97793691752074
H           30.95626898751782       99.06189331956693       53.83984709199669
H           31.60711129579525       99.27610197185679       52.21154869978609
H           32.30804137434733       98.07198722726515       53.29005221476863
C           29.73196110267640       98.57373050059053       50.22868829634398
H           28.75992031085859       98.65937903766201       49.74936374586596
H           30.46922752443234       98.32918283798689       49.46260100834594
H           29.99102443643485       99.54466197434746       50.64727066517450
C           31.82046507627312       95.29675024949177       57.01756785886164
H           31.45503208409002       96.32324610217862       57.05090100431268
H           32.76846647279305       95.29317514142417       56.47514130199391
H           32.00385573395052       94.97559568472539       58.03678537414934
C           30.65295015618981       92.28990250600727       57.73735484957012
H           29.98683649366484       91.44204781675658       57.83259250527141
C           31.67615854494908       92.35456458966472       58.59230552218303
H           32.42025231979034       93.12958464067350       58.58413562671476
H           31.80544013931082       91.60137511815526       59.35186263966076
C           26.51166990495537       89.55152864780047       56.00896550140001
H           26.51725779361972       90.10947142555972       56.94593745301739
H           27.39949481482022       88.91728977229452       55.98813833188795
H           25.63541635084652       88.91421833521049       56.00343660110108
C           24.47271371728925       89.84485741142844       53.42031827434574
H           23.85971989865370       90.34215409283276       52.68045959173484
C           24.03644292797888       88.66517793587852       53.86615367161025
H           24.55596429274292       88.05828639718818       54.58360273534544
H           23.10668309082467       88.25975960989894       53.50264047762506
C           24.75343942603419       92.51541800877854       48.82547124017108
H           23.72104309894292       92.75692582207135       49.08155435476812
H           24.91073608251697       91.45579613314943       49.01669122669832
H           24.88890033392400       92.69141781245577       47.76025664977502
C           26.31246940731724       95.10425429552690       47.85003533038186
H           25.33411666003312       94.94968094596939       47.39977180521378
H           27.06507975719622       94.68553475595644       47.17913451214731
H           26.48840843182244       96.17432387550905       47.92221547230948
O           26.87009752648175       95.25987391595881       54.04314525193191
H           26.81378233684516       96.15094956563993       53.61884866392862
H           25.98625649306258       95.04789411541853       54.43292684110497
C           30.78852090518371       90.25863485618731       49.72908379264595