78
 energy: -115.965964456262 gnorm: 0.278752482224 xtb: 6.7.1 (edcfbbe)
Fe          47.79299999999999       27.46500000000000       65.44400000000000
N           48.96700000000000       28.16100000000000       63.97500000000000
N           48.90200000000000       25.75400000000000       65.55000000000000
N           46.55700000000000       26.72100000000000       66.90600000000001
N           46.68700000000000       29.08600000000000       65.32200000000000
C           48.89299999999999       29.38100000000000       63.33100000000000
C           49.98899999999999       29.55800000000000       62.41800000000000
C           50.77600000000000       28.42400000000000       62.58499999999999
C           50.13700000000000       27.57300000000000       63.54199999999999
C           49.99900000000000       25.47600000000000       64.76500000000000
C           50.50100000000000       24.17899999999999       65.15900000000001
C           49.67800000000000       23.72400000000000       66.17000000000000
C           48.60200000000000       24.70700000000000       66.37300000000000
C           46.63499999999999       25.46600000000000       67.56300000000000
C           45.56700000000000       25.31100000000000       68.48099999999999
C           44.82200000000000       26.50400000000000       68.42199999999998
C           45.42100000000000       27.35700000000000       67.40800000000000
C           45.56100000000000       29.34000000000000       66.02600000000000
C           44.98899999999999       30.60100000000000       65.59399999999999
C           45.75599999999999       31.08700000000000       64.55300000000000
C           46.85000000000000       30.09900000000000       64.37100000000000
C           47.84900000000000       30.27800000000000       63.45900000000000
H           47.82300000000000       31.15400000000000       62.81200000000000
C           50.63800000000000       26.31800000000000       63.85199999999999
H           51.55499999999999       25.97900000000000       63.36999999999999
C           47.61700000000000       24.52600000000000       67.31300000000000
H           47.60900000000000       23.60000000000000       67.88699999999999
C           44.97200000000000       28.60600000000000       66.99500000000000
H           44.09000000000000       29.01900000000000       67.48399999999999
C           52.11600000000000       28.09800000000000       61.95500000000000
H           52.42600000000000       28.93300000000000       61.29100000000000
H           52.03100000000000       27.16900000000000       61.35100000000000
H           52.88200000000000       27.96600000000000       62.74900000000000
C           50.28599999999999       30.69600000000000       61.55800000000000
H           50.93099999999999       31.41600000000000       62.10600000000000
H           49.34200000000000       31.20500000000000       61.26899999999999
H           50.82400000000000       30.35000000000000       60.65000000000000
C           51.75400000000000       23.49600000000000       64.64400000000001
H           52.61899999999999       23.77700000000000       65.28200000000000
H           51.95600000000000       23.82000000000000       63.60099999999999
H           51.62300000000000       22.39300000000000       64.68100000000000
C           49.79500000000000       22.42400000000000       66.96100000000000
H           48.89800000000000       21.82200000000000       67.17100000000001
C           50.93500000000000       21.99600000000000       67.40200000000000
H           51.85600000000000       22.56700000000000       67.21400000000000
H           50.99700000000000       21.05600000000000       67.97000000000000
C           45.37100000000000       24.13600000000000       69.31600000000000
H           46.04400000000000       24.19100000000000       70.19799999999999
H           45.61100000000000       23.21900000000000       68.73599999999999
H           44.31799999999999       24.09700000000000       69.66800000000001
C           43.61800000000000       26.71400000000000       69.24200000000000
H           43.35100000000000       26.00000000000000       70.03500000000000
C           42.86900000000000       27.71400000000000       69.05300000000000
H           42.77400000000000       28.15900000000000       68.05100000000000
H           42.30200000000000       28.15300000000000       69.88800000000001
C           43.70100000000000       31.19600000000000       66.16800000000001
H           43.82400000000000       31.36400000000000       67.25900000000000
H           42.85700000000000       30.49200000000000       66.00500000000000
H           43.48499999999999       32.16800000000000       65.67600000000000
C           45.44299999999999       32.29500000000000       63.67800000000000
H           45.88300000000000       33.20700000000000       64.13400000000000
H           44.34300000000000       32.42600000000000       63.59900000000000
H           45.88100000000000       32.15000000000000       62.66700000000000
O           46.48600000000000       26.60100000000000       63.91399999999999
H           45.86899999999999       26.03800000000000       64.38100000000000
H           46.51199999999999       26.73700000000000       63.03600000000000
C           50.97399999999999       31.21800000000000       68.19700000000000
H           52.07399999999999       31.08200000000000       68.27000000000000
H           50.57700000000000       31.49100000000000       69.19799999999999
H           50.75900000000000       32.02900000000000       67.46899999999999
N           50.44900000000000       28.77000000000000       68.42600000000000
H           51.03599999999999       28.63600000000000       69.22400000000000
C           50.34500000000000       29.94600000000000       67.73499999999999
C           49.66300000000000       27.85300000000000       67.87900000000000
H           49.52300000000000       26.84400000000000       68.26299999999999
N           49.10100000000000       28.39000000000000       66.80900000000000
C           49.50900000000000       29.69400000000000       66.69600000000000
H           49.16600000000000       30.32400000000000       65.88500000000001
78
 energy: -116.021860977343 gnorm: 0.094379938296 xtb: 6.7.1 (edcfbbe)
Fe          47.80045050210870       27.47264070529053       65.45071173795272
N           48.97806660654054       28.16313184162993       63.98354628679237
N           48.88514055592852       25.75866244046602       65.53329128551108
N           46.54809273343474       26.71675329748449       66.89906664637282
N           46.68682234020214       29.08988502216651       65.29855623971527
C           48.88934701297318       29.36002272860257       63.32352004666402
C           50.00283893993007       29.53675070271868       62.42857134691334
C           50.78575138775289       28.42104917719870       62.58692483348667
C           50.12931840262851       27.56986532138811       63.53893872998680
C           49.99913004093639       25.46886516230200       64.79385636723917
C           50.50599857228326       24.16829553316777       65.18050202221821
C           49.67570180233754       23.69938429441711       66.16471246871102
C           48.63489888000041       24.70667813153431       66.36191375064114
C           46.64162128901332       25.48838630059888       67.54434115031617
C           45.57014310554752       25.32150103579809       68.46517396254055
C           44.80011854704415       26.46886188595628       68.39377418489198
C           45.42948201313742       27.33438498527150       67.41076003467650
C           45.57313368608540       29.35714350117724       66.01968752144474
C           44.97755255788313       30.60756310070153       65.58237268986127
C           45.73544019568952       31.07628333613161       64.55036132372310
C           46.83153580533759       30.11242108122370       64.38576103452755
C           47.84448734180023       30.26701213009598       63.46800476331654
H           47.82799691098589       31.14241483174333       62.82807225756157
C           50.61457420949246       26.31332981161048       63.87379720396536
H           51.52658432044886       25.97850054529301       63.39059284114626
C           47.63184525425483       24.54773406713257       67.29736386899864
H           47.61474013357983       23.62534755189532       67.87080577248643
C           44.99544590572123       28.59530874196917       67.00522940172537
H           44.12383774059264       29.01491400365886       67.48400040435115
C           52.10843541392756       28.10369891763841       61.95256572143809
H           52.42659090334326       28.92019668423648       61.29725977760382
H           52.03874176602687       27.18408391039306       61.35881455064290
H           52.87035702579703       27.96605899358851       62.72935405045464
C           50.28560153382933       30.69690296471975       61.55991421349099
H           50.92225601810210       31.41928754911710       62.08921648362418
H           49.36095025827513       31.20502027457513       61.26406175608284
H           50.81471905399106       30.36970271708401       60.65783621715714
C           51.74294929274442       23.50143679915021       64.64780279327499
H           52.60871573750867       23.77193556254690       65.26608807121401
H           51.94994258133126       23.81168338566019       63.61790016194278
H           51.62665329519901       22.41230267391301       64.67869879226478
C           49.79147301733974       22.43734936345250       66.93925265400482
H           48.89167573480209       21.85883069100796       67.15096192703641
C           50.94639253443975       21.99359939960185       67.39950312029634
H           51.85994586230051       22.54941796319963       67.23011453769014
H           51.00992001328825       21.06882339207664       67.96479187598324
C           45.37046601030932       24.13510422762036       69.31785716439093
H           46.03280262121286       24.17892081764762       70.19342279078784
H           45.60221270662858       23.22301565056370       68.75631682762054
H           44.33476248755579       24.08099297678842       69.66901171502515
C           43.63456308314173       26.70437117047274       69.23333329000182
H           43.43134921294454       26.02501414636713       70.06590168675463
C           42.82752673245493       27.73604181096067       69.05327421018029
H           42.76729865886426       28.21596721607141       68.08685523441373
H           42.22125503669891       28.12497779813208       69.86492883065968
C           43.71448257368053       31.19425521335613       66.16180390389266
H           43.82402643370345       31.36313678197626       67.23999104262191
H           42.87200202123825       30.50871079598994       66.00629019830102
H           43.48586025753323       32.15138746807877       65.68447639157064
C           45.45203647404895       32.28085436750049       63.69006417295147
H           45.87936791175093       33.19217056843174       64.12795954738978
H           44.36929498598349       32.42318502601560       63.59819701667952
H           45.87157362335157       32.15218203407974       62.68646728722701
O           46.48815463631377       26.59115267558077       63.93766503985570
H           45.85110242589263       26.02532678497424       64.36900731526056
H           46.50206235517533       26.73140658502672       63.00849056862383
C           50.98301725221915       31.21426469853792       68.19558067656469
H           52.06919970664505       31.09335349929655       68.27340057868150
H           50.58983349067637       31.49446892817364       69.18064698411153
H           50.76453768027881       32.01472743293767       67.48368458367861
N           50.44900207871157       28.78068571742376       68.44137663854848
H           51.03865664386272       28.64236090686040       69.24305687735873
C           50.34654934617514       29.95008313786841       67.73999130803855
C           49.66240531052732       27.85931803082288       67.86405112896553
H           49.52497654314777       26.85881135721261       68.23930740097259
N           49.08338153235004       28.38288297638463       66.80463199788002
C           49.50055960124133       29.68100715448722       66.70480807502081
H           49.16426372976456       30.30843953377409       65.89980263403012
78
 energy: -116.038746937069 gnorm: 0.032138501379 xtb: 6.7.1 (edcfbbe)
Fe          47.81065592945762       27.47420857285257       65.45174827190003
N           48.98532700689367       28.16132737808054       63.98593205466332
N           48.88061037189296       25.76392116085524       65.53587162777615
N           46.54756550894755       26.71813793748125       66.89667813230461
N           46.69174929747391       29.09555818747016       65.28335351722146
C           48.88744412555084       29.34537922279006       63.32224839557701
C           50.01219999917222       29.52267298108432       62.43555311003584
C           50.79272848924684       28.41708205536029       62.58639218468701
C           50.12603473144090       27.56761569309645       63.54116454833126
C           50.00023946527935       25.46717657763736       64.82000383184008
C           50.51779679748917       24.17049293055933       65.20090463794739
C           49.68233296501291       23.69071094310314       66.17003158469946
C           48.65505054986218       24.70216923685325       66.35352693504375
C           46.64640433255483       25.50806635313984       67.52394053689694
C           45.57098394466658       25.33080572381154       68.45040739863543
C           44.78823408287882       26.45877450333107       68.37635973350301
C           45.43621364046336       27.32063278258421       67.39987571433605
C           45.58517146030337       29.36799226781715       66.01568494381131
C           44.97343570685368       30.60989167993083       65.57822418347061
C           45.72706747472030       31.06732356705420       64.54701668184394
C           46.81752792376908       30.11711184688879       64.38974883984815
C           47.84379562282042       30.25314103945761       63.47433609057001
H           47.83998443585848       31.13096007662359       62.84394073040631
C           50.59581006928789       26.31223869474591       63.89630361449152
H           51.50242563461182       25.97726384768476       63.41267797278986
C           47.63774555724580       24.56625726818820       67.28024636468091
H           47.61675690684125       23.65311014191330       67.85971656194096
C           45.02078939112342       28.58682259505796       67.00594118524010
H           44.16845228442921       29.02044205441421       67.49128968908667
C           52.10439902822910       28.10525155963457       61.94973004794419
H           52.42162785843519       28.91458234570000       61.29913000693233
H           52.04183648474227       27.19074514993419       61.36085293273704
H           52.86645614968122       27.96397304397743       62.71583036233167
C           50.28293742218446       30.69902355782011       61.56145215665891
H           50.91285693206382       31.42305026277133       62.08170176546916
H           49.36515004338265       31.20013756480788       61.26581089354987
H           50.80650615030192       30.38390267908676       60.66104590047967
C           51.73701519983472       23.50986417867583       64.64946135770863
H           52.60912574227489       23.77518114627577       65.24942787001990
H           51.93206875798145       23.81192271196053       63.62360376285065
H           51.62437293961234       22.42779006220928       64.68219421396135
C           49.79500046396797       22.45622966787024       66.92503621041347
H           48.88693562964500       21.89978559157146       67.12945626927295
C           50.94982404216535       21.99247330147144       67.39309152982872
H           51.86617122648618       22.53256711904365       67.24167591027323
H           51.00934378123884       21.07662167974759       67.95599140108756
C           45.37095045179139       24.13330264347723       69.31355449812831
H           46.02952222651172       24.17370883808929       70.18355008088970
H           45.59595029397316       23.22139047463848       68.76476092772363
H           44.34523196593405       24.07402560701566       69.66614093101734
C           43.65444763664772       26.72818929294288       69.22857116128390
H           43.52190076069673       26.07543509766639       70.09250195687406
C           42.79257744859002       27.73949730118455       69.06341690069920
H           42.74257996384799       28.26123841026066       68.12993548400082
H           42.11744470370831       28.05137941689915       69.85086936537105
C           43.72549159379941       31.19142527426784       66.15572856783413
H           43.83363060109781       31.35962472508510       67.22674819491608
H           42.88216873392496       30.51656786212017       66.00501395704777
H           43.49170898383322       32.14215474005037       65.68566866465196
C           45.46160654104619       32.26824609102997       63.69729602453473
H           45.88927160085372       33.17226234133456       64.13291170829467
H           44.38762378428373       32.42146161645069       63.60066591999524
H           45.87395250532478       32.14512314584768       62.69918725674366
O           46.49799120734497       26.56510552556087       63.94955885059040
H           45.81788162115744       26.00896017035875       64.33292222611030
H           46.48196962898509       26.72087128628795       63.00629758154389
C           50.98973847064693       31.20998823059888       68.19139589226842
H           52.06882029193566       31.09481442421090       68.27104230040491
H           50.60327441871645       31.49861341687966       69.16897080820935
H           50.77120460239781       32.00436730375789       67.48648556385899
N           50.44082525738778       28.78515932193656       68.45539484324556
H           51.02970515926615       28.64304688070054       69.26007092585198
C           50.34011808190752       29.95105826765473       67.74538484678536
C           49.65662172365414       27.86244992137808       67.85342663730209
H           49.52762025967149       26.86325588848115       68.21525672363896
N           49.06787680116435       28.37560902322482       66.80083013978728
C           49.48642601215224       29.67172313911246       66.71554902410220
H           49.15570510937106       30.30155537907077       65.91628037119536
78
 energy: -116.044525405576 gnorm: 0.030626175950 xtb: 6.7.1 (edcfbbe)
Fe          47.81563788498266       27.46945424564512       65.44714820540594
N           48.99177381975607       28.15890437772442       63.98856449515005
N           48.88470797227968       25.76945068615676       65.54534932586101
N           46.54677221787280       26.71951376285583       66.88659093813573
N           46.69102473629764       29.09297041530178       65.27205226896623
C           48.88949703854262       29.33971572740163       63.32403660918303
C           50.01645539738286       29.51864289933473       62.43719491030237
C           50.79763268147505       28.41507814368935       62.58502687925098
C           50.13035147128449       27.56754395430008       63.54491459986200
C           50.00802692675539       25.47560378661484       64.83705616415384
C           50.53211981522124       24.18451681388647       65.21505768631401
C           49.69265239775370       23.69797014769966       66.17839937005620
C           48.66447071368628       24.70392595317998       66.35724204644136
C           46.64875264957819       25.51741283278876       67.51167374945321
C           45.57341598543393       25.33875090311449       68.44463588156815
C           44.79383125532335       26.46989686744362       68.37612725423979
C           45.44459716192307       27.32453239424387       67.39433755790812
C           45.59098382150725       29.37147210717715       66.01421372154566
C           44.97578347099660       30.60789240423124       65.57530476978910
C           45.72724598633763       31.05942668222003       64.53825923801035
C           46.81396428729201       30.11404831333925       64.38331431646122
C           47.84884072928919       30.24525454554583       63.47500541327343
H           47.85581664946842       31.12724466553434       62.85212162284329
C           50.59605386805407       26.31712975063493       63.91075287966871
H           51.50036170087494       25.97817195979249       63.42899024741038
C           47.64066305771915       24.57697925423262       67.27600479649487
H           47.61626979411810       23.66924072504537       67.85978921298111
C           45.03825365093196       28.59092060381345       67.01139255808212
H           44.20003144376714       29.03406751319980       67.51217863238554
C           52.10511922713898       28.10363028473539       61.94408318495793
H           52.41839573364140       28.91388561071782       61.29297824544746
H           52.04228632969588       27.18938068034867       61.35535701601434
H           52.87143838307698       27.96082904097878       62.70531443709066
C           50.27822478894847       30.70134346509515       61.56231089598872
H           50.90236375211816       31.42973732170693       62.08163842615001
H           49.35582844939189       31.19373358991691       61.26976175951274
H           50.80130116668285       30.39349739658763       60.65957611956237
C           51.73916677445212       23.52135197606611       64.64858533369689
H           52.62510946679480       23.78657861288354       65.22832272336601
H           51.91140928430087       23.81705867728546       63.61710250001504
H           51.62369340793747       22.43993164336331       64.68989897288336
C           49.79974987283386       22.46542206219410       66.92355176534925
H           48.87973880262982       21.92835168217810       67.12460679365131
C           50.94958026124971       21.98274652521027       67.38846482457896
H           51.87509694115931       22.51191327473652       67.24818632045155
H           51.00123813567458       21.06536443783613       67.94732449274535
C           45.37239732573112       24.13510005073802       69.30685383807730
H           46.03422740600382       24.17256971214299       70.17361592465669
H           45.59167919695069       23.22181653484243       68.75869682699071
H           44.34795079197556       24.07759334675521       69.66245949388821
C           43.66952851413725       26.75438534484716       69.23242190861384
H           43.60420869170696       26.12410412833573       70.12486040384341
C           42.75546028033691       27.72535617538620       69.07594342593246
H           42.70827105920338       28.30152864125892       68.16950501976436
H           42.01301346229528       27.95667610743645       69.84402032879920
C           43.73339543519910       31.19171805686713       66.15334653162941
H           43.84530069407573       31.35986458923292       67.22351431948752
H           42.88752080395890       30.51977954955105       66.00529048878933
H           43.49959012313062       32.14230919040444       65.68286860160011
C           45.47317386076310       32.26336654131276       63.69573791963597
H           45.91137328566134       33.15795755573711       64.13903327091337
H           44.40128873775246       32.42870097937534       63.59933454489657
H           45.88566163956888       32.13920803405329       62.69867811518103
O           46.52588872303055       26.49849219272268       63.94561004100741
H           45.76670685716265       26.00646099618177       64.29420036266507
H           46.44625124551135       26.71973057708490       63.00805365834217
C           50.99097914977439       31.20374315473985       68.18681462447411
H           52.06961406944041       31.08126061338388       68.26117147145200
H           50.61511591805142       31.50474406045047       69.16473088778962
H           50.77639512871781       31.99576444291160       67.47831066831274
N           50.42532431431898       28.78162086802334       68.46306857670028
H           51.01010075812977       28.63728711892214       69.27071859809476
C           50.32509728708546       29.94861711881704       67.75171402789671
C           49.64528062572722       27.85953681528065       67.84868708060706
H           49.52723516510052       26.85446300818392       68.19634923299083
N           49.05344403762204       28.37191276487630       66.79916856245927
C           49.46863953395065       29.66970088561060       66.72442348074371
H           49.13815651429262       30.30614212654494       65.93099860110475
78
 energy: -116.046970731020 gnorm: 0.051006556550 xtb: 6.7.1 (edcfbbe)
Fe          47.81741113604972       27.46021256254818       65.44006872257607
N           48.99785497585387       28.15449901435150       63.99094961031132
N           48.89469585658554       25.77824688561079       65.55946104400678
N           46.54937905951345       26.72322469397551       66.87672975330318
N           46.68274312438913       29.08255547303495       65.25704109756333
C           48.89200570149072       29.33452150558609       63.32556665400478
C           50.01968576416337       29.51669113176970       62.43760860463688
C           50.80282958669348       28.41469829670809       62.58384017229103
C           50.13784346135137       27.56808043081856       63.54820507741130
C           50.02126337092307       25.48868295914565       64.85561199484870
C           50.54939754766730       24.20218593677870       65.23188395624776
C           49.70705050021258       23.71046553702909       66.19117352679905
C           48.67447657185440       24.70981048293058       66.36678405257582
C           46.64890108038220       25.52324789287540       67.50038854778029
C           45.57749494063634       25.34949001632951       68.44366456015871
C           44.80965076738225       26.49000293304756       68.38702830717455
C           45.45647106339293       27.33497964734813       67.39475552681407
C           45.59099388389220       29.37190570915316       66.01050321420497
C           44.97927630905365       30.60582094165171       65.57083614488218
C           45.72878776555663       31.05185012436498       64.52774771577286
C           46.80941092569928       30.10573486258702       64.37156723649424
C           47.85344166133140       30.23754619099796       63.47306757376289
H           47.87170006962693       31.12555715599881       62.85919942424054
C           50.60574777100310       26.32476012361365       63.92485626490086
H           51.51031140339536       25.98147333343111       63.44792818104283
C           47.64258369266582       24.58477309240338       67.27485532804992
H           47.61460626812865       23.68123410272218       67.86320657669441
C           45.05196922315254       28.59995371130762       67.02119077225817
H           44.22666137058400       29.04776773837807       67.54232608676574
C           52.10670291485012       28.10265664016192       61.93634040414950
H           52.41593396327286       28.91375244927821       61.28322509914013
H           52.04111628960095       27.18839584861403       61.34713548612520
H           52.87875790973639       27.95867421512854       62.69202538199518
C           50.27143508399130       30.70347797218550       61.56368102936148
H           50.88713146118790       31.43889348108563       62.08350849334453
H           49.34262162390316       31.18560193027398       61.27253450716331
H           50.79680032254967       30.40444563622226       60.65896934612824
C           51.74453533361780       23.53488365552067       64.64810564078611
H           52.64734398822676       23.80468857801383       65.20086042959682
H           51.88838737560905       23.82031154618532       63.60807798193765
H           51.62827775952684       22.45365234287081       64.70296591212782
C           49.80591383662993       22.47282390303542       66.92822172296866
H           48.87350113842331       21.95477118538944       67.12381554322559
C           50.94894983729544       21.96843278347030       67.38582889409044
H           51.88598196122680       22.48045905137367       67.24743249075939
H           50.99009479160121       21.04419066704386       67.93508962952158
C           45.37336695026882       24.14057363575007       69.29951035511131
H           46.04058235092130       24.16937564219355       70.16279680024576
H           45.58385924501057       23.22772518247457       68.74613987633282
H           44.34967886327946       24.08699588107666       69.65987959416769
C           43.68623411129471       26.78195329745232       69.24458785859780
H           43.66677676171036       26.16723514094208       70.14455406400918
C           42.72023040319134       27.70113827056390       69.08729023036817
H           42.64166801414430       28.30631598343259       68.20367408729500
H           41.96640385802807       27.88732697116140       69.83816383399439
C           43.74162837640889       31.19535827145608       66.15099522263442
H           43.85830421357920       31.36383415045648       67.22082239387429
H           42.89247059120348       30.52617152993000       66.00626802513183
H           43.50980199547194       32.14647596221113       65.67957186965710
C           45.48859270236986       32.26166271175921       63.69163796901221
H           45.94155638046345       33.14571607069185       64.14229836487560
H           44.41922973151677       32.44362087702626       63.59606333936684
H           45.90058244968792       32.13614889787213       62.69436284591639
O           46.56733105238600       26.40424357706472       63.93139440316825
H           45.72041424565855       26.01746830006847       64.26211377200497
H           46.38251576338375       26.72905805452149       63.01223126905992
C           50.98871527024522       31.19414945745617       68.18245922628084