78
 energy: -116.057657207074 gnorm: 0.000073834857 xtb: 6.7.1 (edcfbbe)
Fe          47.84939079005993       27.44382873457754       65.42162872607851
N           49.01964761443359       28.12269851060505       63.96088010098835
N           48.97054027385532       25.80084567085060       65.58190328438171
N           46.60433483233808       26.73591716745712       66.83900842333323
N           46.68784539782936       29.07797123403219       65.24258958523239
C           48.87970743580987       29.28058800301605       63.26459519692647
C           49.92952123802508       29.41563455699750       62.27668703315683
C           50.71203896015912       28.31198639076219       62.40072566811374
C           50.12682571759531       27.51634684048000       63.45974140627893
C           50.09425315728549       25.51294287440308       64.87393124442114
C           50.65851756821817       24.25461825502587       65.29291696221253
C           49.84508983382654       23.78001684744239       66.28687968306156
C           48.78968713313777       24.76408534829904       66.44048944231940
C           46.74712406041347       25.57435328018935       67.53711527437657
C           45.67933450074069       25.41586915002800       68.48623342259285
C           44.86066676887129       26.50416754881876       68.33477655278377
C           45.47834836467236       27.33006307546174       67.31802734601293
C           45.60463166989254       29.39802828610386       66.00232703521419
C           45.09874599962091       30.70402301493367       65.64457771961341
C           45.90007571105093       31.16444910096255       64.64595193274010
C           46.88989990835257       30.13752366583024       64.41363376484894
C           47.89696950600275       30.23126115179351       63.47049911028689
H           47.92532322389519       31.12020341384618       62.85893459119039
C           50.64150655115598       26.30861986177349       63.88269957170799
H           51.54018642823284       25.95590969629388       63.40019676159910
C           47.76816079198331       24.65499501392179       67.36381473240904
H           47.75923116565368       23.78456244501781       68.00221363095251
C           45.02940781518737       28.58926630793642       66.96342515115505
H           44.17393412263741       28.97597327385104       67.49420933959885
C           51.93240675366185       27.92785812662538       61.63688093361182
H           52.17834824387853       28.68303425078444       60.89432098111324
H           51.77831293870360       26.97885497191800       61.12309253704406
H           52.78475904828959       27.81517767608707       62.30731301583393
C           50.05993119744828       30.56814500644197       61.34064174337714
H           50.19006579134583       31.49958463259019       61.89262856803170
H           49.16635118762750       30.66315535757210       60.72344303947338
H           50.91660936511963       30.43774062320691       60.68414172615746
C           51.84929203748742       23.60270932986697       64.68182971240358
H           52.77310985077349       24.02127434017444       65.08497053392919
H           51.85555028514723       23.74924339106748       63.60295200333637
H           51.83702941458949       22.53440890086018       64.88798690942765
C           49.94128905802471       22.54951565921439       67.04025558186591
H           48.99713263859045       22.09774312690802       67.32219516828121
C           51.07248411490476       21.95550451180265       67.40713060352691
H           52.03787218421184       22.38138008462316       67.19591546380821
H           51.06979409188673       21.02843272000952       67.95619124794176
C           45.50608576173189       24.24630830356320       69.39266260036574
H           46.39479125257440       24.09970748861619       70.00734647006691
H           45.34225592746739       23.33480057093373       68.81660597641914
H           44.65016430574714       24.39261373465835       70.04670115813298
C           43.62420795711363       26.76456640410241       69.04279005362179
H           43.61858043764072       26.47096630623482       70.08721686132309
C           42.51967587563523       27.27815333537428       68.51339015029541
H           42.45142328946370       27.53655953796795       67.47021899859347
H           41.63252097846301       27.43660106209647       69.10384145021470
C           43.91856789681203       31.35132819198375       66.28376100022828
H           44.07533308797449       31.45720534238880       67.35727452175291
H           43.02137565446563       30.75026979853857       66.13279929109983
H           43.74329000670658       32.33850055466972       65.86317291852860
C           45.83393373899485       32.45215654311559       63.89848602791890
H           46.75460700915931       33.02092076651405       64.03144911007765
H           45.00284986821509       33.05985063365643       64.24774287967814
H           45.70105395079053       32.27019417369100       62.83169061696356
O           46.44247479215942       26.45239391320395       63.90274365018062
H           45.86471891357850       25.97020130945412       64.50438759382294
H           45.95638451917068       27.22955168746440       63.60612997073054
C           50.83250533030195       31.12464957194583       68.36375102423685
H           51.88645796627950       30.91118237569934       68.54149088437249
H           50.39960927956039       31.49934819393505       69.29121553203639
H           50.75705319399630       31.89899191741847       67.60688104611849
N           50.04685521556547       28.76495522414829       68.65583582984003
H           50.45530839376784       28.63387455659620       69.56665458804343
C           50.11819477682515       29.90736012760767       67.90259740923702
C           49.33214529334881       27.85593772218644       67.95531266902651
H           49.11666381524793       26.86611840825961       68.30168750953122
N           48.94705164727438       28.35301274112058       66.80490863757817
C           49.42880716948262       29.62822868548423       66.75752694360642
H           49.24776795184769       30.25497938690474       65.90922416360596
