72
 energy: -105.867733514662 gnorm: 0.237017126280 xtb: 6.7.1 (edcfbbe)
Fe          25.13300000000000       22.12300000000000       29.12500000000000
N           25.23500000000000       22.29900000000000       27.19500000000000
N           26.94300000000000       22.98900000000000       29.18300000000000
N           25.09000000000000       21.87500000000000       31.14800000000000
N           23.50400000000000       21.23100000000000       29.07100000000000
C           24.32200000000000       21.65300000000000       26.31500000000000
C           24.58800000000000       21.96100000000000       24.98100000000000
C           25.74500000000000       22.71100000000000       25.02500000000000
C           26.14100000000000       22.90000000000000       26.39200000000000
C           27.59800000000000       23.59200000000000       28.17500000000000
C           28.76600000000000       24.25300000000000       28.67500000000000
C           28.76700000000000       24.01599999999999       30.04200000000000
C           27.57300000000000       23.21700000000000       30.33800000000000
C           26.03200000000000       22.37400000000000       31.99200000000000
C           25.63600000000000       22.19600000000000       33.35500000000000
C           24.33900000000000       21.64500000000000       33.33800000000000
C           24.04600000000000       21.43500000000000       31.92700000000000
C           22.74700000000000       20.76000000000000       30.09000000000000
C           21.54600000000000       20.08700000000000       29.59500000000000
C           21.64300000000000       20.12900000000000       28.23800000000000
C           22.88300000000000       20.81000000000000       27.93800000000000
C           23.22900000000000       20.98000000000000       26.61300000000000
H           22.60600000000000       20.56300000000000       25.82300000000000
C           27.22600000000000       23.61300000000000       26.84300000000000
H           27.80500000000000       24.20700000000000       26.13700000000000
C           27.25600000000000       22.89500000000000       31.61300000000000
H           28.00800000000000       23.05500000000000       32.38600000000000
C           22.92100000000000       20.87100000000000       31.45400000000000
H           22.15700000000000       20.50700000000000       32.13900000000000
C           26.46100000000000       23.22500000000000       23.83100000000000
H           26.20300000000000       24.29400000000000       23.67600000000000
H           26.15600000000000       22.64700000000000       22.93300000000000
H           27.55800000000000       23.13800000000000       23.98500000000000
C           23.79900000000000       21.47900000000000       23.75800000000000
H           22.71500000000000       21.66400000000000       23.91900000000000
H           23.96099999999999       20.39000000000000       23.61200000000000
H           24.12900000000000       22.03600000000000       22.85500000000000
C           29.84700000000000       25.01700000000000       27.86600000000000
H           29.59100000000000       24.98800000000000       26.78500000000000
H           30.83700000000000       24.53500000000000       28.01400000000000
H           29.88600000000000       26.07600000000000       28.19900000000000
C           29.73400000000000       24.41000000000000       31.07200000000000
H           29.68000000000000       24.01000000000000       32.09500000000000
C           30.71300000000000       25.28600000000000       30.75000000000000
H           30.69000000000000       25.82100000000000       29.78900000000000
H           31.54400000000000       25.47500000000000       31.44500000000000
C           26.41300000000000       22.73700000000000       34.56200000000000
H           26.79500000000000       23.75500000000000       34.33200000000000
H           27.27400000000000       22.07100000000000       34.78300000000000
H           25.74100000000000       22.79600000000000       35.44500000000000
C           23.54300000000000       21.37100000000000       34.59700000000000
H           24.02199999999999       21.00100000000000       35.51500000000000
C           22.23600000000000       21.58700000000000       34.58000000000000
H           21.74299999999999       21.95700000000000       33.66900000000000
H           21.62700000000000       21.39900000000000       35.47700000000000
C           20.48300000000000       19.43400000000000       30.45600000000000
H           20.03500000000000       20.19400000000000       31.13200000000000
H           20.94000000000000       18.63000000000000       31.07100000000000
H           19.68400000000000       19.01100000000000       29.81000000000000
C           20.70800000000000       19.57400000000000       27.21400000000000
H           19.77000000000000       19.24400000000000       27.70900000000000
H           21.17700000000000       18.70100000000000       26.71200000000000
H           20.46400000000000       20.35700000000000       26.46500000000000
O           27.78600000000000       19.76700000000000       28.20600000000000
H           28.60300000000000       20.26500000000000       28.23400000000000
H           27.70200000000000       18.90700000000000       27.99800000000000
C           23.58500000000000       24.91900000000000       28.02000000000000
H           23.27300000000000       25.98200000000000       28.10000000000000
H           22.72000000000000       24.33599999999999       27.63900000000000
H           24.41500000000000       24.85900000000000       27.28400000000000
S           24.11600000000000       24.27500000000000       29.60700000000000
H           25.22900000000000       24.99300000000000       29.65700000000000
72
 energy: -105.916609889335 gnorm: 0.095333510795 xtb: 6.7.1 (edcfbbe)
Fe          25.14305064501217       22.10658707651028       29.13594983964738
N           25.22997348313616       22.26868163246966       27.18805272192164
N           26.92447683254654       23.00179963589508       29.18256344061524
N           25.08615787774848       21.88501717205666       31.16147014207915
N           23.49166852806790       21.19298427655160       29.07712451457228
C           24.32310443801283       21.67663254976111       26.31296967489790
C           24.62101141828681       21.96603107457415       24.95866785602890
C           25.75634167555294       22.72080690461346       24.99861615579160
C           26.12345047992826       22.89981987994440       26.38188847867138
C           27.60234819280632       23.60497286550996       28.17554165547338
C           28.78098723011815       24.25987011113463       28.68462659726598
C           28.78761527669210       24.02254058188572       30.04347245229805
C           27.59340781222306       23.22758768731470       30.33072082901029
C           26.04111969382039       22.35083062671054       32.00564809961978
C           25.63263696217818       22.20662860936870       33.37348342111773
C           24.36868827256917       21.64853679930395       33.35989857444294
C           24.06029374958083       21.44873759409712       31.95384637415888
C           22.71472099224467       20.74878247710847       30.09966699008478
C           21.53032216904034       20.07072376839315       29.60268559773158
C           21.62010009171531       20.10806126760231       28.25100539001842
C           22.84701214608647       20.79234466820886       27.94935852789325
C           23.21018336247553       20.97843321884586       26.63524701471540
H           22.60162016534806       20.56185337279310       25.84730747441639
C           27.21892970721916       23.61063866623014       26.84334060342665
H           27.80477691398139       24.18578105540927       26.13809771574820
C           27.25917059810300       22.88585888503902       31.61672246495881
H           27.98917568560338       23.06989836262993       32.39144216519900
C           22.91845086628240       20.87684170089208       31.46070775143382
H           22.16734638577406       20.50192242123180       32.13815037661642
C           26.47924547500893       23.24141558478242       23.81741487987440
H           26.22302464075253       24.29529348847361       23.65965218159082
H           26.18307408482906       22.66838414957818       22.93435919516615
H           27.55829610607086       23.14938957045443       23.96604968344758
C           23.81895213786651       21.48991079493961       23.77056329488091
H           22.74635340345165       21.66770396913219       23.91923847003825
H           23.96372677900368       20.41389574614037       23.61575989893737
H           24.12555646781308       22.02323565787337       22.86741394044664
C           29.82058369656104       25.00133784849514       27.86440110297348
H           29.58723706655200       24.97682328223284       26.79691501932248
H           30.80725063264370       24.54435129978414       28.01291858526042
H           29.86828619812037       26.05408980355002       28.16582201309769
C           29.75164185447592       24.42179720282687       31.05047295212081
H           29.69112969824639       23.99829722514815       32.05166615466132
C           30.72715170123570       25.28901958181343       30.76901429864605
H           30.73528752488372       25.81459136860703       29.83155344266841
H           31.52847173443235       25.49318171630546       31.46560619843314
C           26.40489858557541       22.73119945994759       34.55508774844919
H           26.78618060908646       23.73525710248510       34.33706671312687
H           27.25720262229488       22.08008702725654       34.78216295152111
H           25.75471151908289       22.79076425092284       35.43197080425850
C           23.54523993527094       21.36861881631743       34.56008694800502
H           24.03690397662470       21.01740091230896       35.46699517442102
C           22.23447644595631       21.58275437326143       34.57054977138197
H           21.73193076345574       21.96386148156195       33.69103478249790
H           21.63455646219885       21.40558943089392       35.45881953313627
C           20.48146608006203       19.43820975131095       30.45824546421861
H           20.03399626557378       20.18129149052272       31.12750505437261
H           20.92445782723888       18.64046021484614       31.06384721394022
H           19.69432671785476       19.01385253118239       29.82889737884870
C           20.69696371925611       19.56800430815033       27.21781915181311
H           19.76929622838697       19.23966941524555       27.69168084606349
H           21.15850214850187       18.71218125270707       26.71125026223591
H           20.45824466849916       20.33639652899204       26.47360023710871
O           27.76260248159121       19.80757252820020       28.21396539549579
H           28.59946352951054       20.26472442915739       28.23274339344848
H           27.70802316201371       18.89471620416916       27.99267967349776
C           23.58409095534477       24.93187211101383       27.99999678623203
H           23.27330081972419       25.97728643029095       28.10236534564197
H           22.73543396445388       24.33919754492573       27.64650271224211
H           24.40357451143790       24.85578346444158       27.28014921694705
S           24.11272004254878       24.26705833512558       29.59115217327242
H           25.22702510435374       24.99426737253938       29.66073105640242
72
 energy: -105.933524957933 gnorm: 0.034884218215 xtb: 6.7.1 (edcfbbe)
Fe          25.15343214387613       22.09941828456775       29.14438459392712
N           25.21816275670196       22.24867546916772       27.17455049161361
N           26.91041522576226       23.01211657540900       29.19019793374013
N           25.08922851332085       21.88483702257520       31.16943157635040
N           23.47882738312042       21.15422563417141       29.08466351485010
C           24.32492567511889       21.68839240716522       26.31298542493520
C           24.64426134015519       21.97052433857658       24.94475498510614
C           25.76785154335321       22.73139094108171       24.98051580039067
C           26.11363915045384       22.89666026506069       26.37564413783620
C           27.60123440057464       23.61448628031675       28.17871069514169
C           28.78724494123741       24.26312345143737       28.68592326504986
C           28.80542650215948       24.02335026335593       30.03963364830761
C           27.61312718908939       23.24071588902347       30.32874570746078
C           26.05222256864248       22.33747950592231       32.01116085905867
C           25.63827425607924       22.20864335151814       33.38384317418324
C           24.38858650541501       21.65835427196950       33.36773944138233
C           24.07171487157007       21.45775424765622       31.96690891592957
C           22.68935975505361       20.72766844975159       30.11150917423968
C           21.51027135210769       20.05523051312104       29.61503462343170
C           21.59472945823824       20.08664333279431       28.26367699951492
C           22.81894282032303       20.76968331723653       27.95799023577309
C           23.20498184415766       20.97344719493837       26.65590154706883
H           22.60004213476235       20.56773335863309       25.86649588365832
C           27.21178001352268       23.60033130125800       26.84729853406729
H           27.80755841242968       24.15217586294152       26.13659286747677
C           27.26050770201604       22.88830332196402       31.61797098253000
H           27.97079348434672       23.09794661074859       32.39940696336581
C           22.92479528816064       20.87539146941734       31.46482596465317
H           22.18404632743203       20.49602036158565       32.14477050001437
C           26.50437435414159       23.26130289853993       23.80699103283963
H           26.25519183088809       24.30819333716759       23.64423421720297
H           26.21780532233695       22.69637232568673       22.92559989610693
H           27.57494576216641       23.16836832350104       23.94960023082432
C           23.84078976802699       21.49960173969594       23.77816833178381
H           22.77760055873038       21.67972048216133       23.93260596531043
H           23.97518906796301       20.42892276835622       23.62365370514493
H           24.13545738856565       22.01785225855406       22.87153535621906
C           29.79589125008900       24.98760943792750       27.86043941450892
H           29.56626482150262       24.94601311893444       26.80161029268028
H           30.78358919123749       24.54978849403972       28.01298398286904
H           29.84417820158746       26.04036328178244       28.13900743856745
C           29.77654047664395       24.42252289442816       31.02511376965970
H           29.70635734012545       23.97017726827236       32.00653394040236
C           30.75211374974872       25.29642164549317       30.79021518662213
H           30.80500749986109       25.81910351132007       29.86161244629994
H           31.51245055877449       25.52474701110121       31.51423355486003
C           26.40291994299364       22.72269436810175       34.55230290598677
H           26.78251034055291       23.72080457424552       34.34248371699260
H           27.25130326836484       22.07932116531553       34.78161271251231
H           25.76301510540385       22.77990417019484       35.42682772732852
C           23.54753923419367       21.38639771449164       34.52239400882353
H           24.05309333889185       21.03208018652140       35.41395247030953
C           22.23453961447596       21.59080532239767       34.56001914547549
H           21.71251575357218       21.97518281301480       33.70361736272440
H           21.64620108692148       21.39772728893372       35.44116585992748
C           20.46790754829601       19.43613425177540       30.46800232862424
H           20.02517036882792       20.17298187135276       31.13361269264909
H           20.90379153474656       18.64258262048645       31.07104227755530
H           19.68556862846841       19.01034837531239       29.84852811280280
C           20.67513178429314       19.55463778275923       27.22480349023444
H           19.74888948949722       19.22354241013806       27.67893270751199
H           21.13613589101096       18.71239918125036       26.71067968149205
H           20.44561286475606       20.32006033552702       26.48608234395132
O           27.71605691900453       19.85630211183278       28.21576616602960
H           28.58226530457933       20.26290020988244       28.23155535872985
H           27.71320179627887       18.92079917451307       27.99768611038988
C           23.58207098001836       24.94158837150604       27.97518923095808
H           23.27597034905338       25.97567941210360       28.10057150711748
H           22.74144149922911       24.34309245295450       27.64240606781960
H           24.39594039312727       24.85692766162312       27.26586081400313
S           24.10473283630173       24.25576996769624       29.57496820040662
H           25.21934342557005       24.99153211574205       29.66852979668491
72
 energy: -105.940052104874 gnorm: 0.023619544673 xtb: 6.7.1 (edcfbbe)
Fe          25.16500667520351       22.08573624596296       29.14804444015905
N           25.21729351786558       22.23662619697760       27.16525758402319
N           26.90881072710626       23.01657902200616       29.20215793175188
N           25.10160893192885       21.88305289144158       31.16871561369351
N           23.47082420629227       21.12068065926806       29.08748293279339
C           24.32458441141787       21.68834536708491       26.31027299848668
C           24.65672213097649       21.97462592796942       24.93801670956008
C           25.78043577785069       22.73727906220951       24.97481114945227
C           26.11761011684012       22.89095259061128       26.37472123724907
C           27.59890068729161       23.61557825837862       28.18373555829521
C           28.78755713253491       24.26074734653606       28.67979376632860
C           28.82200395409152       24.02187457406563       30.03321808905513
C           27.62924398506317       23.25127694173802       30.33285854019134
C           26.06466444403929       22.33872018044171       32.01009912653535
C           25.64709105417121       22.21249729573056       33.38324065271701
C           24.39403233546352       21.66992545148934       33.35931951774385
C           24.08064397701855       21.46237862004483       31.96116407444232
C           22.67971743083982       20.70179297291479       30.11793812068961
C           21.49537948640646       20.03681355487947       29.62560515318140
C           21.57550709872450       20.06532439890041       28.27211593391137
C           22.80389316592616       20.74640239138629       27.96009086866730
C           23.20180030679217       20.96858778175306       26.66352718584018
H           22.59205772837855       20.57327817582310       25.87167246149129
C           27.21211384665524       23.58705685094388       26.85253158260040
H           27.81882358623160       24.11716905102862       26.13400146920179
C           27.26589658329560       22.90152327259294       31.62117007711763
H           27.96008035825093       23.13767020848532       32.41195622947509
C           22.93586534098637       20.86669929626985       31.46453734571697
H           22.20380937629147       20.48824211943258       32.15681412681211
C           26.52982522026751       23.27892243068047       23.80747449132874
H           26.28973467364871       24.32863893223790       23.64477684360585
H           26.25480721800598       22.72474861609877       22.91439288691937
H           27.60120530247344       23.18583413210615       23.95130178245377
C           23.85744882787186       21.50599524075308       23.77411701058847
H           22.79767267459640       21.69490991482483       23.93522172214008
H           23.98612827166376       20.43374425975945       23.62621913372622
H           24.15451468184412       22.01664217224270       22.86355101576888
C           29.78066314663822       24.97924739249293       27.84031268265299
H           29.54694877392832       24.90392868527264       26.78342018611816
H           30.77538225193756       24.56126995782156       28.00476609101631
H           29.81167867697803       26.04020703317162       28.09293820105865
C           29.80318460631626       24.41707909996103       31.00983154482788
H           29.72608555965309       23.93696742599310       31.97733381584452
C           30.78265557900165       25.30129269788483       30.81965241532060
H           30.88715229750439       25.83740982690168       29.89741555382442
H           31.49984764436654       25.54283309735487       31.58821700477069
C           26.40925691859488       22.71500202085333       34.55645151458316
H           26.78837584075996       23.71536918600513       34.35644427389174
H           27.25784605644529       22.07041386532978       34.78211712235321
H           25.76895645212850       22.76363944244348       35.43199003752413
C           23.54385421041155       21.39482972422302       34.49714051390671
H           24.05989894858565       21.04505327721923       35.38430457060198
C           22.23038970280905       21.58955817380971       34.54725138713774
H           21.69370444664350       21.99966673181873       33.70917103438703
H           21.65469962078717       21.39178784217845       35.43415599007479
C           20.44769318925887       19.42967789226445       30.48401573828209
H           20.00980780586454       20.17102846492530       31.14826704175260
H           20.87728170755116       18.63636724360158       31.09273330600107
H           19.66025253570650       19.00327226366869       29.87083833792967
C           20.64877748467789       19.53804789493503       27.23431867538419
H           19.71943999676277       19.20083581374613       27.67936022992681
H           21.10898253151274       18.70107019828769       26.71063295876992
H           20.42059763949158       20.30867201844902       26.50070269790476
O           27.65463109215419       19.92579685685318       28.20390174778274
H           28.54521571610844       20.28699077214648       28.23979767265302
H           27.68593848611764       18.97930749332593       28.01230505375791
C           23.58015612320867       24.94422095482216       27.95039692866018
H           23.27983919210237       25.97682391958947       28.09413323799421
H           22.73791952684686       24.34833481517666       27.62091750044593
H           24.39390751828380       24.85984163722751       27.24198740285752
S           24.09569887794284       24.23444706217914       29.55177714277525
H           25.20296459861157       24.98283681299513       29.67307502351205
72
 energy: -105.944429432780 gnorm: 0.020159505452 xtb: 6.7.1 (edcfbbe)
Fe          25.18125223501973       22.06934937653803       29.15020343811286
N           25.22058892625127       22.22189306332454       27.15826004348058
N           26.91777615903278       23.01507563588919       29.21629805788490
N           25.12037012074653       21.88054397292763       31.16275213488992
N           23.46567506857687       21.08479992300975       29.08650207530838
C           24.32342655790341       21.67980933226496       26.30505986825731
C           24.66471994669248       21.97647522972233       24.93258006832186
C           25.79217950296350       22.73578200710073       24.97398322089844
C           26.12603071271965       22.87812266929821       26.37607214660084
C           27.60172469682161       23.60840223968868       28.18957121614414
C           28.79331056570386       24.25048891496611       28.67160822228946
C           28.84342361418625       24.01637549189783       30.02582763952845
C           27.64952450033568       23.25731547437237       30.34001334105368
C           26.07840320687804       22.34422269088348       32.00755696349514
C           25.65548622274670       22.21673371358081       33.37875239719142
C           24.39624681530401       21.68298208443032       33.34547907420238
C           24.09249498307652       21.46482675353768       31.94757594492023
C           22.67738806749791       20.67201548890642       30.12138427822499
C           21.48467483907765       20.01512866114576       29.63451042628120
C           21.55938452828749       20.04262517034401       28.27895900218390
C           22.79429821854985       20.71879626630660       27.95857555342596
C           23.19856151201773       20.96054695592241       26.66526259205270
H           22.57962742895599       20.57853355458606       25.87080250952391
C           27.21773358872080       23.56638567632591       26.85825868022493
H           27.83150109910711       24.07890917103743       26.13274151433331
C           27.27464173731997       22.91933220141989       31.62729674914253
H           27.95190250971114       23.17930239972485       32.42744775627325
C           22.95084379588646       20.85497928462434       31.46176030920696
H           22.22790203990212       20.48354898420829       32.17090850494915
C           26.55446587544364       23.29156478375405       23.81692197103725
H           26.32385641162653       24.34680680977577       23.66303449574394
H           26.29150807833400       22.75287914422772       22.90822410943935
H           27.62722611535083       23.19602611466041       23.96815978653106
C           23.87088659615174       21.51136458756343       23.76403029242945
H           22.81226244430470       21.71129008688581       23.92226559699358
H           23.99290655414137       20.43650993659354       23.62366211041105
H           24.17961142183243       22.01506176940815       22.85236765374259
C           29.77863643211213       24.97132956898718       27.82485786274274
H           29.54637999377406       24.86490239325472       26.76835972070372
H           30.78097577615541       24.57681993546446       28.00007267467934
H           29.78662995822822       26.03731510147234       28.06013651622167
C           29.83008626876181       24.41474514956769       30.99730156419558
H           29.75232798293526       23.91570057833348       31.95518733189832
C           30.80427011570246       25.30969389836900       30.84061490425449
H           30.94909091901293       25.85969980777292       29.92725560655864
H           31.49809838237940       25.53311608322113       31.63320337416139
C           26.41589332574385       22.70535104043310       34.56150885519554
H           26.79493620556306       23.71014115439255       34.37742365924895
H           27.26543150742886       22.05721665638439       34.77867861244999
H           25.77407899824647       22.74023997527329       35.43837459877675
C           23.53981801052466       21.41426057163339       34.47961517349270
H           24.05721793000955       21.04901892899570       35.36029684505206
C           22.22805842742603       21.61124108071122       34.53784456784113
H           21.67512714045848       22.01040838581745       33.70503633375304
H           21.65869605638387       21.38097771693540       35.42278337745543
C           20.42859750711970       19.42430627299490       30.50118989726029
H           19.99834446509210       20.17639019314982       31.16114535905475
H           20.84842860379726       18.63114486121148       31.11966990079657
H           19.63258760108160       19.00004781904807       29.89490213418167
C           20.62019996923922       19.52079203942693       27.24693605586431
H           19.69173727701370       19.17812577824563       27.69344827624914
H           21.07517139088990       18.68635448548831       26.71205882325449
H           20.38532614311307       20.29748085850691       26.52001562552448
O           27.56801930742184       20.03181844544193       28.19096974094857
H           28.47275900347114       20.35698901446762       28.26473675957480
H           27.63732879532035       19.07739472561019       28.03605059025715
C           23.57930465498692       24.94098008665298       27.92235376698982
H           23.28902884510682       25.97461851009879       28.08238249803048
H           22.73202119724158       24.35664294882672       27.58431394185179
H           24.39499281303818       24.86048282696245       27.21417752824546
S           24.08121737952575       24.20431896085421       29.52305251663438
H           25.17836491851208       24.96512852513746       29.67337526186631
72
 energy: -105.948363647251 gnorm: 0.018099577180 xtb: 6.7.1 (edcfbbe)
Fe          25.20358244556635       22.04430597530139       29.14859696061928
N           25.22459678105412       22.20200005093683       27.15343578890896
N           26.93232736980068       23.01021645586701       29.22946821761523
N           25.14152459744858       21.87822420161985       31.15298195756515
N           23.46423131318247       21.04793702356902       29.08081903613418
C           24.32093170486969       21.66398534063381       26.29867446563683
C           24.66781367175089       21.97298071094954       24.92850176532517
C           25.80049572291757       22.72542742731630       24.97612229406518
C           26.13420961336928       22.85771477025114       26.37875988962852
C           27.60923902222018       23.59339166297625       28.19424214689314
C           28.80353994497531       24.23478754005897       28.66274230364053
C           28.86464898169687       24.00945963804952       30.01858860253401
C           27.66927726977508       23.25995402420788       30.34776154298913
C           26.09079355043803       22.35156772931848       32.00482761111247
C           25.65790866077274       22.22451692848701       33.37249357732333
C           24.39570125564092       21.69246814955853       33.32870639082644
C           24.10514027445500       21.46550563111162       31.92903403595884
C           22.68039640403076       20.64301983516478       30.12049290906934
C           21.47797276878947       19.99519805860121       29.63997491805270