72
 energy: -105.980474425532 gnorm: 0.000047350942 xtb: 6.7.1 (edcfbbe)
Fe          51.52979569015721       11.49870148017609       20.80415121114250
N           49.67071617745348       10.78905104666926       20.76691281308026
N           51.74323558292649       11.03354753688203       18.85279308508884
N           53.44254639340214       12.13724562416335       20.84707274385593
N           51.35492763598602       11.89901312103107       22.74393490123319
C           48.78863437901678       10.77213895751870       21.79659074832037
C           47.53277645634155       10.18033074992581       21.38696179773196
C           47.68499007473344        9.82745509265703       20.08374158050116
C           49.02854061581951       10.21819808669226       19.71336482592904
C           50.81657406159618       10.44119974087399       18.04729743054867
C           51.31912143896392       10.30086220094040       16.70695049296075
C           52.58242044234061       10.83316123580857       16.70989878186297
C           52.82981606832635       11.27010609959842       18.06817733427008
C           54.29838607746600       12.23289747392191       19.78935979396484
C           55.56163739083181       12.78407414961571       20.20332309035837
C           55.45376333899749       13.02636538447309       21.54775171246334
C           54.11749580783034       12.61553453004284       21.92402770461393
C           52.30670303665302       12.41241901070653       23.56473078222952
C           51.78591641895726       12.59136218928468       24.90397460518762
C           50.49174033266767       12.18095281781661       24.86606873828100
C           50.24328204994432       11.74891809910391       23.50676766213670
C           49.03771748969761       11.23506315217649       23.07400066842831
H           48.23639560619451       11.16841556916157       23.79329301514815
C           49.55084777141146       10.04729138277384       18.44753778718723
H           48.91644425889338        9.58715681817118       17.70619222811667
C           54.01108319941310       11.84943705081535       18.49102002544204
H           54.77777818364276       12.00772903284094       17.74905603576499
C           53.59591296369339       12.74294643588891       23.19763856308268
H           54.23816004891914       13.15589431886758       23.95949948799196
C           46.71590067097900        9.17275816491331       19.16079710933880
H           46.51021809982306        9.81189582534506       18.30153858157798
H           45.77649416970314        8.96965240806117       19.66857693260189
H           47.11710074129677        8.22857361241417       18.79222314080696
C           46.35182185555478       10.01612860777278       22.27972668047368
H           46.02651450767259       10.98186139466963       22.66702601392776
H           46.60064981352375        9.37804811253342       23.12770867133538
H           45.52106214605099        9.56446225424709       21.74332068319535
C           50.59644708184902        9.63863963862669       15.58705275931711
H           49.88992397770691       10.32558992711889       15.11793929252695
H           50.03867903621956        8.77499425316508       15.94592612255853
H           51.30508801835794        9.30667554243596       14.83106903342038
C           53.53443747846734       10.93218691179900       15.62542516976112
H           54.57672243437344       10.83110246014106       15.90498352212714
C           53.22704611441349       11.14082526806525       14.34971311937919
H           52.21390430391450       11.29540872896695       14.02183767333698
H           53.98773708604249       11.19077758926796       13.58866144572494
C           56.74820059755507       12.96319563151705       19.32283170327123
H           56.67135104098594       13.88901401907564       18.75044473057213
H           56.83518281203613       12.13778671731347       18.61767842865002
H           57.65460167265244       13.00473283388947       19.92321664939601
C           56.43959805341130       13.55541138096124       22.46478179023672
H           56.40062968501681       13.15907960067931       23.47282599520389
C           57.35449162357325       14.47131300468309       22.16606441349506
H           57.40671742774366       14.93402201513264       21.19606527198653
H           58.06869876485251       14.81246708351831       22.89681484068169
C           52.57507644936697       13.13138799711694       26.04604784267676
H           52.92885505677562       14.13823662677417       25.82373322168733
H           53.44371277142811       12.50281653766013       26.24334816902920
H           51.97027630474563       13.17194112515221       26.94838373093016
C           49.47773189872142       12.14488813460872       25.95651614985637
H           49.89505120742455       12.52604657730061       26.88509515943134
H           49.13590957265793       11.12386906820176       26.12696644365256
H           48.61192267012495       12.75283118470733       25.69391101753818
O           52.35942700523154        9.46693699960423       21.26698566085908
H           52.56096684532309        9.14598073754789       20.38047213611974
H           53.19761018666183        9.70030925607777       21.68210943012780
C           49.42206108008558       13.59651091690886       19.14967022614994
H           49.55484431230460       12.79327737062274       18.43318437196247
H           49.29069587790902       14.55262460344114       18.65240561973227
H           48.56905864640192       13.38413053142809       19.78564160415022
S           50.88070609477229       13.68812403128075       20.24649570567209
H           51.76151581403018       13.87601692665607       19.25769408856586
