72
 energy: -105.884205604123 gnorm: 0.240156514895 xtb: 6.7.1 (edcfbbe)
Fe          51.56900000000000       11.65000000000000       20.70400000000000
N           49.72700000000000       10.84900000000000       20.68600000000000
N           51.81000000000000       11.04400000000000       18.82800000000000
N           53.49300000000000       12.18000000000000       20.78700000000000
N           51.41900000000000       11.90100000000000       22.68500000000000
C           48.81099999999999       10.79600000000000       21.73500000000000
C           47.55899999999999       10.15500000000000       21.31600000000000
C           47.72700000000000        9.77700000000000       20.01100000000000
C           49.06499999999999       10.22900000000000       19.62400000000000
C           50.86599999999999       10.40800000000000       17.98500000000000
C           51.41100000000000       10.15400000000000       16.65400000000000
C           52.72500000000000       10.59700000000000       16.69700000000000
C           52.94700000000000       11.15700000000000       18.04200000000000
C           54.39900000000000       12.22300000000000       19.73200000000000
C           55.70200000000000       12.73700000000000       20.15200000000000
C           55.60200000000000       12.97100000000000       21.49900000000000
C           54.22700000000000       12.61200000000000       21.88200000000000
C           52.38900000000000       12.36600000000000       23.55700000000000
C           51.84800000000000       12.56200000000000       24.88600000000000
C           50.52800000000000       12.20900000000000       24.82800000000000
C           50.28300000000000       11.76800000000000       23.47100000000000
C           49.06499999999999       11.24100000000000       23.02700000000000
H           48.25200000000000       11.17400000000000       23.75100000000000
C           49.59399999999999       10.03500000000000       18.36800000000000
H           48.96300000000000        9.55200000000000       17.62200000000000
C           54.14600000000000       11.72900000000000       18.45600000000000
H           54.95000000000000       11.79500000000000       17.72300000000000
C           53.70400000000000       12.70000000000000       23.18700000000000
H           54.37100000000000       13.05500000000000       23.97200000000000
C           46.69000000000000        9.10500000000000       19.10800000000000
H           46.36100000000000        9.82100000000000       18.32400000000000
H           45.80800000000000        8.80100000000000       19.71100000000000
H           47.14000000000000        8.21500000000000       18.61799999999999
C           46.27900000000000       10.04400000000000       22.13700000000000
H           46.28700000000000       10.81000000000000       22.94200000000000
H           46.21600000000000        9.03600000000000       22.60000000000000
H           45.39800000000000       10.21800000000000       21.48300000000000
C           50.68700000000000        9.57100000000000       15.42000000000000
H           50.23999999999999       10.39800000000000       14.82700000000000
H           49.87799999999999        8.88500000000000       15.74900000000000
H           51.41299999999999        9.02300000000000       14.78300000000000
C           53.70000000000000       10.48000000000000       15.69400000000000
H           54.65799999999999        9.99900000000000       15.94100000000000
C           53.54399999999999       10.93800000000000       14.37700000000000
H           52.61100000000000       11.42900000000000       14.06300000000000
H           54.35300000000000       10.81200000000000       13.64300000000000
C           56.88099999999999       13.04400000000000       19.21400000000000
H           56.72200000000000       14.03100000000000       18.72900000000000
H           56.94800000000000       12.26300000000000       18.42700000000000
H           57.82600000000000       13.07700000000000       19.79700000000000
C           56.56400000000000       13.52800000000000       22.34500000000000
H           56.76600000000000       13.03600000000000       23.30800000000000
C           57.30900000000000       14.68700000000000       22.06200000000000
H           57.15900000000000       15.23000000000000       21.11700000000000
H           58.05000000000000       15.06400000000000       22.78200000000000
C           52.62299999999999       13.05800000000000       26.10400000000000
H           53.03200000000000       14.07000000000000       25.89600000000000
H           53.46500000000000       12.36600000000000       26.32000000000000
H           51.94499999999999       13.11700000000000       26.98200000000000
C           49.47900000000000       12.29400000000000       25.93900000000000
H           49.72700000000000       13.13700000000000       26.61900000000000
H           49.47400000000000       11.34900000000000       26.52300000000000
H           48.47600000000000       12.47200000000000       25.49500000000000
O           51.91399999999999        9.91500000000000       21.03500000000000
H           51.06500000000000        9.47300000000000       21.03900000000000
H           52.70600000000000        9.53400000000000       21.16900000000000
C           49.18300000000000       13.93400000000000       20.06400000000000
H           48.67099999999999       13.00000000000000       19.74900000000000
H           48.88999999999999       14.74100000000000       19.35900000000000
H           48.82500000000000       14.19400000000000       21.08300000000000
S           50.98899999999999       13.72800000000000       20.06600000000000
H           51.04800000000000       13.21700000000000       18.84500000000000
72
 energy: -105.935548886039 gnorm: 0.095984619985 xtb: 6.7.1 (edcfbbe)
Fe          51.56749694500181       11.63502494678513       20.70615070909886
N           49.69071313075285       10.85623322568558       20.68213303961413
N           51.79708040233901       11.05646241652219       18.79021464185913
N           53.51138910473435       12.17083687802527       20.78648572391903
N           51.41090958503756       11.92608521372112       22.69414286477353
C           48.80298312429106       10.80279824014072       21.73346072251974
C           47.55874260947875       10.17408246639299       21.31556547153440
C           47.72486254898479        9.79588466825470       20.01373563997876
C           49.05474785248683       10.23172472151387       19.62834198410864
C           50.86620477710116       10.42221408239311       17.97559938617384
C           51.41187831517011       10.17242903953871       16.65742071868251
C           52.71703646831092       10.60638487441042       16.69809177527245
C           52.93775225179004       11.15224671523287       18.03646382180655
C           54.39195649191549       12.21610367079193       19.72999533385828
C           55.67708657661760       12.75355581032110       20.14127030969560
C           55.58004795885581       12.98905918859287       21.48927305912687
C           54.21864963531666       12.60373805757552       21.87875532223325
C           52.38500314035601       12.38612722608474       23.54418977589394
C           51.84902681079438       12.56322602680262       24.88051453243749
C           50.52989860313858       12.21340847608900       24.82234932222325
C           50.28141330616487       11.78167258138585       23.46266913532263
C           49.07121947453641       11.25330583458149       23.01781323790926
H           48.26929166037338       11.17303748918325       23.74352224354134
C           49.59504626314360       10.04257797064466       18.36967739794516
H           48.97017800823094        9.55483398415148       17.63100616541595
C           54.13003737380245       11.72749891636604       18.45571451622071
H           54.93250696106796       11.78938445971867       17.72861936409117
C           53.69462963632560       12.69636246459867       23.17027368076127
H           54.35919494939994       13.04974216210721       23.95256338620566
C           46.71234488194909        9.11781231030272       19.11986344679600
H           46.37237954167824        9.80781633788190       18.33696180198139
H           45.83794113452521        8.80672950003783       19.70117900433922
H           47.13687538658854        8.23248121055059       18.63208535045048
C           46.30057301178752       10.04714144142131       22.13535293851268
H           46.28575328309124       10.79621135652191       22.93281183014072
H           46.21990218744967        9.05310770065049       22.59244844261860
H           45.42220103897551       10.21028318504855       21.50023241708418
C           50.69853747159670        9.58161424125564       15.45437271542386
H           50.24994160840716       10.38198151826324       14.85124694378871
H           49.89771455587235        8.89624030198250       15.75152237256010
H           51.40454331484798        9.04135424666198       14.81250594976709
C           53.70634499569542       10.49706945595239       15.66783474668004
H           54.65488128012156       10.02500181924882       15.92986406792540
C           53.54560237681488       10.92104759383968       14.39907960730170
H           52.63433344537146       11.41592993516936       14.08193917619932
H           54.33527955748507       10.80788373274892       13.66550971387243
C           56.85368850630947       13.03518519785684       19.22964881976675
H           56.71770851217116       14.00749119732705       18.73908347814976
H           56.94466326943132       12.27420562454985       18.44700454466596
H           57.79250870329439       13.07328745094726       19.79494816074340
C           56.57412525718067       13.55414070839807       22.34951753115450
H           56.75879253611672       13.06193557512456       23.30603006749209
C           57.30038212172511       14.65631271990192       22.06553069334373
H           57.15113153360628       15.20860620150423       21.14401642272487
H           58.02937726756584       15.04510109135891       22.76752241445575
C           52.61603840852764       13.05481545175027       26.08263960992179
H           53.02728792947132       14.05411425262335       25.89588758979106
H           53.44776342413444       12.37877938522958       26.31347336541790
H           51.96101168765639       13.11191121764806       26.95839168912447
C           49.49572180701126       12.29221260064894       25.92166211088657
H           49.72536742019624       13.11939178801023       26.60266557409926
H           49.47305576545708       11.36522310653532       26.50794603645605
H           48.49854409311482       12.46721637025049       25.50427811021308
O           51.93220292451051        9.86460410925739       21.06525386441884
H           51.08373568131906        9.40805474043275       21.05357501317373
H           52.76695878233040        9.45276883440315       21.19369984258060
C           49.16659850620674       13.93326960078212       20.05302291956600
H           48.68165107946736       13.00080623204451       19.75220241456255
H           48.89311859786331       14.73450089614770       19.35984506632640
H           48.83952674364279       14.19350832231130       21.06343903321647
S           50.97658268718718       13.74484599804116       20.05573244628339
H           51.04232371672589       13.24196363176522       18.82715937379967
72
 energy: -105.953581516205 gnorm: 0.037825892869 xtb: 6.7.1 (edcfbbe)
Fe          51.57011320611063       11.61204079185005       20.71274054399828
N           49.67070518076955       10.85011007266723       20.68196899269869
N           51.78953705341437       11.04807421599983       18.76836730340622
N           53.52376239555019       12.15708154832394       20.78473689093797
N           51.40240807099448       11.95086726735195       22.69648074271438
C           48.79684743507054       10.81514404545650       21.72768846327600
C           47.55753412241286       10.19272616159418       21.31631807195430
C           47.72271220640771        9.81403788495255       20.01538264276136
C           49.04607189539095       10.24183479222833       19.63093573622254
C           50.86392278724541       10.43816293321572       17.96998750199640
C           51.41250645841804       10.18575905482401       16.66005402439452
C           52.71150499433976       10.61203291237551       16.70399078231197
C           52.92574093325174       11.15369391996552       18.03262260466015
C           54.38304421953222       12.20951544574402       19.72936496916372
C           55.65509625577799       12.76417721650211       20.13655334984733
C           55.55560933156443       12.99893324847877       21.48258647283911
C           54.20547212247038       12.60298435483212       21.87069074882554
C           52.37797745770609       12.40409111151779       23.52933883166742
C           51.84720646575506       12.57168938468085       24.87140392832104
C           50.53070381319009       12.22234666877335       24.81433913916677
C           50.27928364377630       11.80168474658737       23.44980423357000
C           49.07531251525487       11.27442708666421       23.00590668862878
H           48.28454650996595       11.17783890659836       23.73635002748055
C           49.59213907249391       10.06031111173461       18.37004872241085
H           48.97358310081464        9.56163206003264       17.63924467143427
C           54.11293809396047       11.73042460724928       18.45542006287619
H           54.91357004448053       11.78634081247291       17.73158171443571
C           53.68193570144106       12.69930759555630       23.15283754543560
H           54.34637236367659       13.04919327305153       23.93220056907136
C           46.73032926087586        9.13101858742419       19.13036073815107
H           46.38790714286971        9.80581091856962       18.34486227579557
H           45.86318636813346        8.81352785713748       19.70427512602631
H           47.15547230213026        8.25055674640567       18.65121671042060
C           46.31750867164797       10.05214654763916       22.13695438980594
H           46.29268345092275       10.79036149177651       22.93272148659267
H           46.23974726733382        9.06218902056439       22.58673825465687
H           45.43959536978375       10.20363740658587       21.51065469246145
C           50.70777913108995        9.59212842219968       15.48325723308032
H           50.25349121321224       10.37902686685563       14.87815871119962
H           49.91860724444283        8.90447662910653       15.77675703878166
H           51.41187195294973        9.05828315912013       14.84622153754619
C           53.71419610457888       10.51240713422587       15.65691560627789
H           54.65540297630324       10.05097494725312       15.94148339613668
C           53.54961938027161       10.92122728271772       14.41498427852529
H           52.64352887037018       11.40161289386898       14.08845665190518
H           54.31983909442710       10.80225346534355       13.67266704768341
C           56.82431505237987       13.03122250319979       19.24405122218384
H           56.70335443811199       13.99458736340081       18.74542173681253
H           56.92594126817772       12.27229903251659       18.47118108212999
H           57.75177704195650       13.06768467054921       19.81320595404826
C           56.56716254028979       13.56991650823067       22.35625076986562
H           56.73011943299318       13.07028329638740       23.30639746064373
C           57.28037155189352       14.64341749494472       22.07270830220025
H           57.14847136388438       15.19267892855741       21.15649886510326
H           58.02320980703737       15.02770338769864       22.75123643571885
C           52.61108044118956       13.05514995080977       26.06046484838143
H           53.02415623525081       14.04684982222314       25.88145295118582
H           53.43731183114824       12.38513703301772       26.29457023726798
H           51.96560246193744       13.10781088373574       26.93379892632861
C           49.51068673492365       12.29048660863934       25.90600950262807
H           49.73602966536624       13.10820399841388       26.58766172711527
H           49.48276683371576       11.36865639358021       26.48783156134350
H           48.51727071889499       12.46299558378326       25.49942191778386
O           51.96394296457974        9.79521820181639       21.11904536032741
H           51.13054502799258        9.30670350160175       21.06807235536212
H           52.81161489812983        9.35718526313482       21.21024725720151
C           49.15422796423294       13.93383128792492       20.03893402698447
H           48.69229497929739       12.99774094740631       19.75078808585535
H           48.88790555053493       14.72787799806703       19.35018219450215
H           48.85058939287295       14.19553480320408       21.04574483333106
S           50.97121017193869       13.75676093077426       20.04185820947185
H           51.04111837868999       13.28596099830606       18.79633302466946
72
 energy: -105.962267965659 gnorm: 0.039916487556 xtb: 6.7.1 (edcfbbe)
Fe          51.57575655875942       11.57990279748010       20.72398639492896
N           49.66798573863265       10.84871497927737       20.68367538119470
N           51.78695485012329       11.03956258377548       18.76819330221470
N           53.52024301523216       12.14355901977555       20.78413335175492
N           51.39423850155919       11.97188705015234       22.68914296585646
C           48.79519460783869       10.82822823414025       21.72384831164774
C           47.55521828759666       10.21306284604180       21.31623990820051
C           47.71997348138687        9.83437680686167       20.01580252905078
C           49.04436665949537       10.25140726379993       19.63314630323181
C           50.86251436189210       10.44420033697724       17.97265970701664
C           51.41257542711842       10.19756315057970       16.66276710977091
C           52.70928874269238       10.62313079459095       16.70908392162217
C           52.92018819575548       11.15397417498653       18.03609574123486
C           54.37242278982690       12.20442633190792       19.73098569813498
C           55.63567268147190       12.77294248465600       20.13809732999288
C           55.53104546706242       13.00946540886253       21.48112640090777
C           54.18999121347652       12.60459670863892       21.86462120505243
C           52.36827866170368       12.42238921455948       23.51592359588924
C           51.84250733460868       12.58599186412017       24.85935594412000
C           50.52894824619148       12.23628996484743       24.80389605915321
C           50.27501573531018       11.82214683646636       23.43734312368181
C           49.07445211593670       11.29387312502129       22.99841286440275
H           48.28881765928769       11.19220945309441       23.73154064852271
C           49.58976746519352       10.07052688259152       18.37207394208738
H           48.96923939984905        9.57566289867972       17.64200199496764
C           54.10441980370001       11.72959841543364       18.45797404163894
H           54.89972148502638       11.79066869541846       17.73083884454218
C           53.66988452990896       12.70825067549639       23.14289317503961
H           54.33502161083135       13.05997823183773       23.91832864742592
C           46.74106252146338        9.14097706146207       19.13454182270578
H           46.39816031612785        9.80570497992839       18.34190175810112
H           45.87700301562066        8.81833456556145       19.70766023788110
H           47.18061656978114        8.26240407979320       18.66660398540118
C           46.32679401385595       10.05687692124230       22.14363474262862
H           46.29826240649316       10.78962846646387       22.94316547004512
H           46.26591070106344        9.06379430682299       22.58780863576046
H           45.44355957923523       10.19809551224187       21.52399036731298
C           50.71060855297475        9.59551724171511       15.50007038789251
H           50.24286781280090       10.37484296827501       14.89713223980487
H           49.93420057046249        8.89980356846525       15.80458122231155
H           51.42130321462124        9.07026382159070       14.86560082255723
C           53.72148577909124       10.52520947692001       15.66177268038592
H           54.66440913193414       10.08245437937843       15.96568199787261
C           53.54499795399634       10.91055686141481       14.41005356393449
H           52.63968895125862       11.39017175055563       14.08323516776346
H           54.31638899541497       10.80540258854981       13.66764483959157
C           56.80383088209976       13.02829991162672       19.25428276441756
H           56.68941032899068       13.98559087671441       18.74424430376689
H           56.90882098035182       12.26012948610997       18.49218765827374
H           57.72159336576220       13.06669536879871       19.83631248912122
C           56.54577616039613       13.57540723302350       22.36552855953468
H           56.68520743812271       13.07315817584883       23.31655882515747
C           57.28346726895730       14.63305197175240       22.06891107223510
H           57.14609961284605       15.18912778734169       21.15873098078983
H           58.02271507693019       15.02262879265948       22.74717292677327
C           52.61162215223781       13.05985744236151       26.04186576697470
H           53.02789267341240       14.04950655544993       25.86406890773689
H           53.43514160620222       12.38540368738820       26.26946189230722
H           51.96949027612281       13.10910041014680       26.91654845541036
C           49.51780243144304       12.28990217993059       25.89620429312498
H           49.74558947531478       13.10110452493774       26.58324448931899
H           49.49499193685313       11.36256744951628       26.46793267429990
H           48.52333264359643       12.46209259637667       25.49462855668658
O           52.00104960874943        9.72492835371647       21.19646665979145
H           51.19375048399499        9.19358715180192       21.06776691757408
H           52.85333206864409        9.26078829562579       21.21369914802581
C           49.15001978948150       13.93112794289096       20.02343338514546
H           48.69762858247388       12.98934188294463       19.74430736052577
H           48.88150727436211       14.72161380554590       19.33325740062577
H           48.85953164894494       14.19723988439529       21.03171941680317
S           50.97137378389348       13.75313246728582       20.02518946403756
H           51.04399773615316       13.34598998535713       18.75200724630641
72
 energy: -105.968619379596 gnorm: 0.054442937442 xtb: 6.7.1 (edcfbbe)
Fe          51.57816843204292       11.55643427489554       20.73154532077198
N           49.67346385182619       10.85446471309133       20.68492273762777
N           51.79222411378858       11.01632238693510       18.78309149221280
N           53.50900991215040       12.12819977980315       20.78474734844815
N           51.38574531118389       11.99260311619605       22.67264862882000
C           48.79664027041052       10.84267607997975       21.71965140589377
C           47.55324575523912       10.23604605120826       21.31413464405129
C           47.71773374564489        9.85705164979950       20.01482241961776
C           49.04683814002276       10.26230083247632       19.63500926436432
C           50.86377506737843       10.44140884681320       17.97954734493283
C           51.41150705226495       10.21000233194142       16.66443519075082
C           52.70803959523397       10.63617293225309       16.71263991591711
C           52.92041761961950       11.14568612926497       18.04514289834166
C           54.36189490725196       12.19809715473526       19.73437275309551
C           55.61630072366804       12.78423359175148       20.14073740302515
C           55.50569035108850       13.02418026152418       21.48120146159741
C           54.17419471084687       12.60316399838057       21.86028167525048
C           52.35739137088810       12.43875561794678       23.50098844859392
C           51.83610868417318       12.60242986513560       24.84390531800987
C           50.52523983325730       12.25247006771547       24.79026931294684
C           50.27016970499378       11.84174324098244       23.42273461993094
C           49.07045057088685       11.31425236247525       22.99136585624357
H           48.28688566964975       11.21417359257651       23.72568076889769
C           49.58729619810304       10.07878586444498       18.37361859232720
H           48.95956806668643        9.59713749471660       17.64083966903933
C           54.10102619604065       11.72626083466124       18.46172221431010
H           54.88832309536907       11.80051341903909       17.72775094347939
C           53.65826850999343       12.71909437506563       23.13631549281970
H           54.32306531254644       13.07814702566220       23.90693378488290
C           46.74959708087043        9.15120294030020       19.13447175228267
H           46.40600126704856        9.80464342589817       18.33222266193626
H           45.88627861708397        8.82372320633469       19.70623144700179
H           47.20689830489624        8.27349554603013       18.67924820705577
C           46.33479779668585       10.06291683767471       22.15144347892257
H           46.30341041044570       10.79096390908653       22.95629570194276
H           46.29820991162521        9.06546858859538       22.59186364894957
H           45.44207125772041       10.19144354269011       21.54176889443551
C           50.70925489295102        9.59734830220430       15.51063723159088
H           50.21944273854870       10.36677091020526       14.91173393532991
H           49.95051450180983        8.88754977922350       15.83089256188146
H           51.42711142351715        9.08468757592900       14.87355444035100
C           53.72788264065410       10.54642094213273       15.67061056088384
H           54.67556912281082       10.12648359052229       15.98794594897636
C           53.54519143419441       10.91555592693908       14.41176208129552
H           52.62281105219454       11.35817619377031       14.07697385909348
H           54.31190449619855       10.79871904013337       13.66509906759785
C           56.78767463327475       13.02697613613791       19.26249946042688
H           56.67899660738264       13.97627040468611       18.73599381985800
H           56.89527406768190       12.24370870515258       18.51502915109377
H           57.69671317153598       13.07173577885326       19.85820628782341
C           56.51353060300298       13.58570442567139       22.37641084376174
H           56.63274718256103       13.08303216344433       23.32848813047061
C           57.26898060627545       14.63288279851596       22.07534991322475
H           57.15495136981342       15.16950151470798       21.15022173433475
H           58.02744186492068       15.00419425820898       22.74421019203051
C           52.61488497270928       13.06688950873725       26.02198774043639
H           53.03653189613433       14.05507243534458       25.84455549483720
H           53.43601988463507       12.38458321718407       26.23884228802405
H           51.97792846749434       13.11469733026373       26.90118522214438
C           49.52112338375051       12.28888084704076       25.88747749726961
H           49.75266714616075       13.09112506856688       26.58477585300657
H           49.50704321905706       11.35155182952174       26.44468394300992
H           48.52325795066447       12.46280020009750       25.49348738050265
O           52.04290337345181        9.65258903241521       21.30941558064870
H           51.28202461531973        9.06604815400707       21.05772914675827
H           52.89365892442476        9.15514188903617       21.19562644396824
C           49.14742372184597       13.92857884789715       20.01013230927950
H           48.70083789286775       12.98075395006220       19.73959803175705
H           48.87215925676217       14.71436862319125       19.31632057719520
H           48.86593605774275       14.19999336934418       21.02011628188298
S           50.97289514638532       13.75912619399854       20.01064432759038
H           51.05276426264113       13.40541516877129       18.71819994293712
72
 energy: -105.972307471198 gnorm: 0.025581870099 xtb: 6.7.1 (edcfbbe)
Fe          51.58412436176973       11.53082059429632       20.73232415702221
N           49.68524540397576       10.85726844089162       20.68549554278579
N           51.80064001570898       10.99466965943884       18.79832515569490
N           53.49715636912436       12.11840496595241       20.78478112533670
N           51.38086099514290       11.99906268498957       22.65591641891340
C           48.79895309272922       10.85364600641258       21.71577364673813
C           47.55271429310096       10.25024969663588       21.31044084726420
C           47.71713895849640        9.87081736570148       20.01222207391914
C           49.05093179308732       10.26927707396840       19.63401009241526
C           50.86565768066175       10.43324232019521       17.98407583536983
C           51.40985746455085       10.21471880042903       16.66452339221885
C           52.70716684356974       10.64391783300836       16.71087540234273
C           52.92390561222523       11.13856305518742       18.04964697108038
C           54.35596611879036       12.19538124668955       19.73526087125608
C           55.60613604984761       12.78933250144406       20.14217192679060
C           55.49207863896301       13.03446045085591       21.48106164422687
C           54.16348022018423       12.60681715565287       21.85716840999670
C           52.34884427971367       12.44933262744621       23.48998872398450
C           51.83001491557540       12.61599698743169       24.83090178855407