78
 energy: -116.058077361458 gnorm: 0.000154126896 xtb: 6.7.1 (edcfbbe)
Fe          11.60710693219380       -2.67577786931764        1.54148888567902
N           12.21678314486386       -1.02671507544318        2.52249757080851
N            9.93576871615515       -2.71121163578033        2.66944285771361
N           10.96595214615786       -4.27316741333580        0.53562043840051
N           13.23535284121105       -2.59131185270798        0.39832358045389
C           13.38276789817487       -0.35215005799248        2.33764306141662
C           13.48653410407734        0.75284282140006        3.26302310536159
C           12.35406184886424        0.72952190186337        4.01700196215732
C           11.57546913153982       -0.39268029828834        3.54426278801508
C            9.59999118405277       -1.84943182270494        3.67171113393828
C            8.35560390195582       -2.23432893876574        4.28275197207773
C            7.94339420378586       -3.37037003050451        3.63521687464058
C            8.94615725648223       -3.64195235608515        2.62532194298726
C            9.82981451156922       -4.98486490239797        0.76875736538867
C            9.72023978573240       -6.09230955764410       -0.14798714619233
C           10.82858202288328       -6.03755419685477       -0.94954600383832
C           11.58802349751872       -4.88517852186791       -0.50153336520366
C           13.55927414580693       -3.43205584249253       -0.61714277701060
C           14.83035612321526       -3.06307068466130       -1.20389181969838
C           15.26710598436757       -1.97792032934832       -0.51261738748097
C           14.25578851286565       -1.69897017959586        0.48514591767290
C           14.34029571049202       -0.65747799175628        1.38853581565878
H           15.21821085070144       -0.03114859821493        1.34856442152566
C           10.35538571273354       -0.76083156533431        4.07767203848349
H            9.97263831801892       -0.16646787602619        4.89325099979491
C            8.89481042406996       -4.70927560616270        1.75011399815074
H            8.05824818539459       -5.38497076987098        1.84016557059006
C           12.80138189485043       -4.50506338721602       -1.04433482681151
H           13.19090702132058       -5.09373359564485       -1.86092603284413
C           11.93380475666461        1.64022943007941        5.11974820147335
H           12.68047422177831        2.41203613439934        5.28904311938120
H           11.79910330266008        1.08451547322551        6.04830658166521
H           10.98813033889912        2.12615001837595        4.87767148809713
C           14.63852816499264        1.69636423556514        3.31964511655472
H           14.75548435277587        2.21579790086056        2.36823833861223
H           15.56397688138750        1.15845090339585        3.52611296270853
H           14.49286112439337        2.43975786894376        4.09962353685381
C            7.65530053240969       -1.47541928579084        5.35588913073344
H            7.77396825679993       -0.40255234662938        5.21099994504749
H            8.05502407215840       -1.72895207333818        6.33942914838792
H            6.59327686017411       -1.71230947881736        5.34690877609322
C            6.74878177696972       -4.15763222419182        3.84429517282341
H            6.33168474846243       -4.61979810697642        2.95709830293452
C            6.14902867960304       -4.35541763907033        5.01382326249409
H            6.54298064684367       -3.96209077140447        5.93466643683291
H            5.25073131874295       -4.94493764346745        5.09309297582004
C            8.56978124194156       -7.03450450894802       -0.22149793145747
H            7.63014625879465       -6.50879017346411       -0.05819347939767
H            8.65602655821555       -7.81494235083655        0.53649056626817
H            8.53742048742552       -7.50781379899177       -1.20065630210971
C           11.20692266983827       -6.89689021514824       -2.04949409082933
H           11.73070127175132       -6.41026124323970       -2.86409525754094
C           10.97081076121505       -8.20270114390353       -2.12482868552692
H           10.49737095904035       -8.74644579543047       -1.32594199942521
H           11.26872327420399       -8.78052211061913       -2.98410252746846
C           15.46893284444574       -3.77852699222433       -2.34445386972073
H           14.82254618531669       -3.75134408210155       -3.22183298144443
H           15.65001356479622       -4.82326105592217       -2.09024417825437
H           16.41953007554944       -3.31999591880850       -2.60564379131340
C           16.51525309824786       -1.18318073069639       -0.69004528780380
H           17.12030879328817       -1.58858396124583       -1.49723001360367
H           17.11009654464983       -1.19389282056405        0.22363462735371
H           16.27829961676670       -0.14576593226466       -0.92717675184484
O           10.46689501836960       -1.25513728298146        0.14606961169365
H           10.80835817205842       -0.41310833055699        0.46667418683856
H            9.57719067304110       -1.35364918557609        0.50230862806940
C           14.62404830018954       -6.64390499472693        4.03702954376671
H           14.09050332865209       -7.38075427809702        4.63732603540001
H           15.52129013335119       -6.34709407590965        4.57999567893553
H           14.92030469904977       -7.10673839618535        3.10101065866085
N           13.24536490971301       -4.67992847129910        4.75359173084681
H           13.38734937348979       -4.81134108209013        5.74158567608336
C           13.76241333391874       -5.46730195060491        3.75836154214003
C           12.51291382482479       -3.70671406344216        4.16706567911642
H           11.98984761483749       -2.94304722013105        4.70445075375582
N           12.53481807364103       -3.82972748205678        2.86223882055062
C           13.30866169047050       -4.92025568376866        2.59243327500882
H           13.48501060212699       -5.23644083058237        1.58504469490751
