77
 energy: -118.875407133441 gnorm: 0.256335981601 xtb: 6.7.1 (edcfbbe)
Fe          10.62200000000000       49.31800000000000        8.15600000000000
N           10.27600000000000       48.95700000000000       10.09000000000000
N            9.20300000000000       48.05500000000000        7.63700000000000
N           11.15200000000000       49.49000000000000        6.25700000000000
N           12.23700000000000       50.36499999999999        8.69200000000000
C           10.77600000000000       49.66800000000000       11.15900000000000
C           10.23100000000000       49.10800000000000       12.37500000000000
C            9.42200000000000       48.10400000000000       12.01400000000000
C            9.43300000000000       47.99000000000000       10.57200000000000
C            8.51700000000000       47.18900000000000        8.46400000000000
C            7.53600000000000       46.45200000000000        7.69600000000000
C            7.61700000000000       46.89700000000000        6.42900000000000
C            8.66500000000000       47.89700000000000        6.37900000000000
C           10.37000000000000       49.13600000000000        5.18300000000000
C           11.10700000000000       49.36800000000000        3.95800000000000
C           12.30500000000000       49.82800000000000        4.33100000000000
C           12.34600000000000       49.93500000000000        5.76100000000000
C           13.18900000000000       50.86200000000000        7.82000000000000
C           13.98700000000000       51.85000000000000        8.48600000000000
C           13.44300000000000       51.97999999999999        9.84000000000000
C           12.38600000000000       51.02099999999999        9.91300000000000
C           11.66000000000000       50.73600000000000       11.04900000000000
H           11.78600000000000       51.38700000000000       11.91400000000000
C            8.70900000000000       47.08400000000000        9.82200000000000
H            8.26300000000000       46.23400000000000       10.33800000000000
C            9.10900000000000       48.58900000000000        5.26900000000000
H            8.43100000000000       48.70700000000000        4.42400000000000
C           13.36700000000000       50.44700000000000        6.52400000000000
H           14.36000000000000       50.52700000000000        6.08200000000000
C            8.58600000000000       47.19100000000000       12.91100000000000
H            8.59200000000000       47.58500000000000       13.95000000000000
H            9.01800000000000       46.16699999999999       12.91100000000000
H            7.53800000000000       47.16100000000000       12.54400000000000
C           10.53000000000000       49.60700000000000       13.79900000000000
H            9.69300000000000       50.24800000000000       14.15100000000000
H           11.46600000000000       50.20500000000000       13.79800000000000
H           10.63400000000000       48.74000000000000       14.48600000000000
C            6.57400000000000       45.39899999999999        8.25900000000000
H            6.61600000000000       45.41499999999999        9.36900000000000
H            6.87100000000000       44.39000000000000        7.90100000000000
H            5.53600000000000       45.62700000000000        7.93400000000000
C            6.76900000000000       46.50300000000000        5.21600000000000
H            6.85500000000000       47.11700000000000        4.30800000000000
C            5.93300000000000       45.48800000000000        5.14600000000000
H            5.78800000000000       44.82400000000000        6.01100000000000
H            5.36900000000000       45.29200000000000        4.22200000000000
C           10.58900000000000       49.10500000000000        2.52400000000000
H            9.55300000000000       48.70600000000000        2.57100000000000
H           11.24000000000000       48.35899999999999        2.02100000000000
H           10.58300000000000       50.05400000000000        1.94700000000000
C           13.46000000000000       50.17799999999999        3.41500000000000
H           14.40500000000000       50.54400000000000        3.84100000000000
C           13.37900000000000       50.05900000000000        2.08700000000000
H           12.45400000000000       49.69700000000000        1.61400000000000
H           14.23600000000000       50.32200000000000        1.45000000000000
C           15.12200000000000       52.68099999999999        7.89600000000000
H           14.85300000000000       52.99799999999999        6.86600000000000
H           16.05000000000000       52.07200000000000        7.85400000000000
H           15.28800000000000       53.58500000000000        8.51900000000000
C           13.85400000000000       52.97999999999999       10.90300000000000
H           13.23400000000000       53.89700000000000       10.80900000000000
H           14.92300000000000       53.25200000000000       10.76900000000000
H           13.69800000000000       52.54099999999999       11.91200000000000
O           12.01100000000000       47.57599999999999        8.04400000000000
O           12.88200000000000       47.47900000000000        8.87800000000000
C            8.34300000000000       54.47099999999999        7.40900000000000
H            8.72800000000000       55.20799999999999        8.14600000000000
H            7.24800000000000       54.61700000000000        7.29200000000000
H            8.85400000000000       54.63400000000000        6.43600000000000
N            8.12500000000000       52.58400000000000        9.09500000000000
H            7.52900000000000       53.09000000000000        9.71900000000000
C            8.62000000000000       53.07699999999999        7.90100000000000
C            8.57100000000000       51.34500000000000        9.26400000000000
H            8.31700000000000       50.71500000000000       10.11600000000000
N            9.35100000000000       51.02199999999999        8.25000000000000
C            9.39300000000000       52.08899999999999        7.38600000000000
H            9.97600000000000       52.04500000000000        6.47400000000000
77
 energy: -118.936809941722 gnorm: 0.122218309204 xtb: 6.7.1 (edcfbbe)
Fe          10.68384624707567       49.23589060306180        8.16078713273721
N           10.27003999257982       48.96110733747508       10.09034362226579
N            9.18282269639877       48.05252356571543        7.63410872972042
N           11.14459563080925       49.50283399286243        6.24423742288702
N           12.21853766163479       50.39980603898371        8.68626808377963
C           10.76573022896779       49.66849661061129       11.15374591658976
C           10.22709536296596       49.11881104371506       12.38169990539704
C            9.42062724932528       48.08878642216904       12.02344247962812
C            9.44701609275160       47.99046006546473       10.58023150495696
C            8.51683036922672       47.18184803322060        8.45463131530727
C            7.52927635485623       46.44377104422541        7.69329869220338
C            7.59185219237068       46.90909191003951        6.41120930410331
C            8.64269972398443       47.91185763015575        6.38570662703842
C           10.36715547669944       49.15716819291369        5.17721485815136
C           11.09692898045106       49.37786018813679        3.94476827888433
C           12.33199393412573       49.82353273518405        4.31021361260555
C           12.34871325309597       49.92266675006792        5.75442141421522
C           13.19857602275349       50.86101656841041        7.84991258588112
C           13.98695412365138       51.85727161816938        8.51839192398484
C           13.44824244600547       51.98893965695004        9.81123817328686
C           12.37965088603998       51.03708327876999        9.89450938145314
C           11.65348193955918       50.73363887011610       11.03911179800951
H           11.80439169824384       51.36073143458312       11.91280060237724
C            8.71532861655113       47.08659889757830        9.82234589976319
H            8.24695128679383       46.25884866420484       10.34354796976756
C            9.10225721172436       48.59432289123760        5.26972965021663
H            8.44959951970491       48.66093631115528        4.40576142906904
C           13.36729240159683       50.44774100265785        6.52982981904849
H           14.34471220616426       50.57047779195190        6.07495278206211
C            8.59252515379947       47.19548086853926       12.90797335917463
H            8.59000587570571       47.57789142882555       13.93374108694379
H            9.00704319167921       46.18108523800885       12.92122994390223
H            7.55783709153233       47.15598961768045       12.54915303194933
C           10.52619970373594       49.60630095497565       13.78230380954738
H            9.70605060277833       50.23866253557524       14.14589580973942
H           11.44995182325573       50.19154766449760       13.79787307782568
H           10.63446075568022       48.75846084869993       14.46787467011647
C            6.58707866052933       45.41039144754768        8.26119219703608
H            6.61694922945324       45.41313717605107        9.35456114459542
H            6.86654138017034       44.40962140300444        7.91005861443519
H            5.55916800883845       45.62502583475460        7.94474296161004
C            6.77950155476273       46.51380898049562        5.22951900145117
H            6.87869910284592       47.12886602888578        4.33625056931669
C            5.93881802391382       45.48967574496687        5.15269228997829
H            5.78470448242308       44.81865905226729        5.98569004206805
H            5.37910439363958       45.29365539736401        4.24289228352086
C           10.57262411476423       49.10315689241894        2.54947213401061
H            9.55487865834244       48.70927195862421        2.58021324155322
H           11.20508312273061       48.36087894185010        2.04536068504545
H           10.56636482586420       50.03283808556421        1.96514239184091
C           13.45390496989416       50.17341017633430        3.41431062215058
H           14.37905847396700       50.53425033395305        3.85878649749763
C           13.39498365549012       50.06849618313057        2.08872426121054
H           12.50725483117855       49.71807803050518        1.59458057216251
H           14.23941547090712       50.32350315594930        1.46174834018396
C           15.10412236346472       52.66838705541839        7.90935386648684
H           14.85253098829867       52.98531418032565        6.88897176137511
H           16.03070993203236       52.08191011365350        7.85943976792181
H           15.28766344912743       53.56573933449788        8.50856972222054
C           13.85296983729011       52.96572886718528       10.88180711302450
H           13.24672799977632       53.87989978489512       10.80903878597404
H           14.90591562983251       53.24510136051325       10.77357811577403
H           13.70486924559902       52.54548079389167       11.88412371146561
O           11.96399211856397       47.62163496075198        8.03970293612735
O           12.87618354629319       47.48850616545336        8.88821273876348
C            8.34372009021645       54.46287091254149        7.41589963759100
H            8.71979989125689       55.20159960617161        8.13402522306319
H            7.26546184479889       54.61849534215236        7.29144891272998
H            8.84169772487203       54.62749955745403        6.45604375872240
N            8.12547501340120       52.58875404396676        9.08514347838780
H            7.52445063748114       53.09485880859164        9.71373111489292
C            8.62755578873541       53.07908968553404        7.90297029811292
C            8.58582267909023       51.33835423695152        9.25004614746925
H            8.33055870798544       50.71860445726517       10.09463421439419
N            9.37028143585762       50.99663394172085        8.24700107874124
C            9.39862250322685       52.07421739184119        7.39617949803583
H            9.97146160880992       52.03705626896640        6.48763456446943
77
 energy: -118.970826601339 gnorm: 0.054111669134 xtb: 6.7.1 (edcfbbe)
Fe          10.77689162607881       49.13005147276642        8.16951857653705
N           10.27743729818012       48.94959524565854       10.08977633533816
N            9.17636236204191       48.03867644635154        7.63168864124391
N           11.14607884484059       49.50209530565900        6.23228655161111
N           12.21547241560260       50.42046216169854        8.68220420258702
C           10.75887881406313       49.66398705734885       11.14431495117491
C           10.22368686282153       49.12890190406778       12.38288682808427
C            9.41972609584658       48.07564372046291       12.03006658012925
C            9.46276394318672       47.98642196310200       10.58678646187871
C            8.51987223597025       47.17325471373464        8.44640835177964
C            7.52480524097712       46.43797212986564        7.69399518356442
C            7.56835297804619       46.92219057043629        6.39858556415551
C            8.62933358298897       47.92350837470408        6.39559332429148
C           10.36751700544175       49.17301374647111        5.17495544034168
C           11.08484552666248       49.38715814119700        3.93781081159189
C           12.35297616340540       49.81963507214439        4.29219626804904
C           12.35085657223757       49.90949469020197        5.74842742913547
C           13.20175867638025       50.86063410889114        7.86910036523190
C           13.98619008271460       51.86533079427933        8.54785843739365
C           13.45608884146391       51.99692011681623        9.78446200428741
C           12.37051698429764       51.04723303913956        9.87603132525836
C           11.64688483163791       50.72868284635720       11.02609174893481
H           11.82763710224322       51.32901445967439       11.90993655647162
C            8.71747964115741       47.09137836492941        9.82282413210347
H            8.22412424977867       46.28778104127660       10.35031968325665
C            9.10178962619942       48.59264853755455        5.27341044616972
H            8.47595724141719       48.60325831780447        4.38940374619534
C           13.35987136964948       50.45799338178993        6.53159512832169
H           14.32233443458728       50.62681607386863        6.06720661110156
C            8.60149125154525       47.20069942288957       12.90962109669567
H            8.59403578399462       47.57365367526490       13.92703940687347
H            9.00057802582887       46.19003685141193       12.91093020679821
H            7.57566770730715       47.15489449407868       12.55368924529069
C           10.52132826825428       49.60710291355159       13.76295355264543
H            9.71399022860862       50.23459976423543       14.13838140285913
H           11.43840687029497       50.18240814501864       13.79124521220619
H           10.63171150015682       48.76994306696137       14.44654967046722
C            6.59955588602232       45.42139491733086        8.26151625124833
H            6.62462922029372       45.41679990593891        9.34380223499248
H            6.86630027802242       44.42462717820380        7.91608818188654
H            5.57754481580650       45.62555562989247        7.94994050501541
C            6.78899132484539       46.53086012943390        5.25200744388674
H            6.90276745181779       47.14332356865679        4.36762894903918
C            5.94636956171395       45.49783517910213        5.16344013876915
H            5.78198891161717       44.81331864639650        5.96615955564735
H            5.39745760047558       45.29984283076758        4.25956066621221
C           10.56070990137454       49.10612803012470        2.57528047229373
H            9.55430063901709       48.71380669002188        2.59819150706733
H           11.18441769374379       48.37029480525401        2.06835180139077
H           10.55527470661670       50.01793442251621        1.97803786873009
C           13.44238499712417       50.16406020080579        3.41932756830870
H           14.35147694047338       50.52158347700256        3.88231209497413
C           13.40874121220577       50.07215994622386        2.09115050735938
H           12.54690253969331       49.73075151028205        1.57124726221684
H           14.24702469918202       50.33090012422452        1.47574653930788
C           15.09033438401936       52.65604842349280        7.92329135881874
H           14.84064691729785       52.96743890997340        6.91084373307103
H           16.01267739576267       52.07981660995002        7.86670772107198
H           15.28769357364424       53.54988712444939        8.50578371186144
C           13.85149921992939       52.95447385845038       10.86395554487832
H           13.25230764587249       53.86508492448479       10.80480682427946
H           14.89418958232196       53.23685584101631       10.77084885749971
H           13.70750369904345       52.53762841921488       11.85683761866114
O           11.85271265144946       47.75241546303945        8.05838498050478
O           12.82638621753082       47.51983925776265        8.87845163866307
C            8.34722051617711       54.45287001191893        7.41938053873484
H            8.71508293166095       55.19199107211931        8.12704538850731
H            7.27912711656342       54.61113970497745        7.29298787137524
H            8.83507783891583       54.61944515350109        6.46782904948999
N            8.12786280582344       52.58934719723693        9.07629567060378
H            7.52379897539764       53.09261024122230        9.70960269701343
C            8.63657541050553       53.07812303476021        7.90284063607401
C            8.59871755754101       51.33096034087009        9.23645288687795
H            8.34299670548706       50.71958821468146       10.07583216396744
N            9.38149765765982       50.97859523751530        8.24268796494726
C            9.40591250342261       52.06071390389079        7.40397529880747
H            9.97164002801915       52.03285773162927        6.49721681588980
77
 energy: -118.977553331245 gnorm: 0.050774688940 xtb: 6.7.1 (edcfbbe)
Fe          10.81223329994179       49.09800632591815        8.17340503275858
N           10.29472010486298       48.92937363108838       10.08498294553127
N            9.19032567016658       48.02418862232857        7.63595632248070
N           11.15401488014006       49.49476286963765        6.23237205560835
N           12.21696989119896       50.42075371381537        8.67473700681771
C           10.76538260813203       49.65306995633640       11.13536670898145
C           10.22427187418387       49.12906507460240       12.37333175656156
C            9.42482466610507       48.07171296296715       12.02610198336351
C            9.47591077009500       47.97332525372120       10.58602217557322
C            8.52740723702498       47.16558732293117        8.45089526017496
C            7.52392063061420       46.44393912103059        7.70449905001279
C            7.56394084445552       46.93313076684175        6.41133704888125
C            8.63433587375939       47.92384931361434        6.40526400335173
C           10.36879355042891       49.17039640491738        5.17970185957713
C           11.07500640171380       49.38978487638641        3.94272393522682
C           12.34781426366703       49.82064670864135        4.28723309854716
C           12.35196444864814       49.90794409396026        5.74360337577781
C           13.19995846143415       50.86089363705812        7.86116431093500
C           13.98721426416262       51.86396703942343        8.54477821345056
C           13.44736465720278       52.00078730529140        9.78265256538482
C           12.36252117231009       51.04505519124834        9.86967721308694
C           11.64970273768744       50.71831492759236       11.01896225391353
H           11.85603615597452       51.29533715096366       11.91288774468715
C            8.71826835706830       47.08854657183775        9.82672922963313
H            8.18523097358697       46.31444066469726       10.36398996796574
C            9.10958985765540       48.57810521613316        5.27806708588358
H            8.50723673604711       48.53094922867855        4.37280263271648
C           13.35308580873544       50.47576921106762        6.52208418153053
H           14.30050510798090       50.70545938719996        6.04332555128990
C            8.60782391699765       47.19935399893424       12.90902219284406
H            8.60187176964355       47.57430500649481       13.92615983311057
H            9.00216971522874       46.18563417730386       12.91682994182722
H            7.58037623297528       47.15319391291283       12.55485969681516
C           10.51879080415740       49.61221368022049       13.75019060459976
H            9.71273129833766       50.24113767543285       14.12825444230348
H           11.43895939286539       50.18430534948309       13.77924753705576
H           10.62799493887223       48.77168352048665       14.43057587734496
C            6.60360417563835       45.42570246029366        8.26924752443597
H            6.63403886645358       45.41956892148330        9.35235936170511
H            6.87135782912931       44.42971243791296        7.92018464815616
H            5.58116537342496       45.62961321015857        7.95784374813087
C            6.79073600986278       46.54606793938203        5.26529774205401
H            6.91572761848501       47.16593622485100        4.38717184075525
C            5.95333316036213       45.50962932491651        5.16353486655938
H            5.78549633255009       44.80687044260324        5.95330361359921
H            5.41499704540714       45.31540532398882        4.25316559909951
C           10.53262509393472       49.10386864736218        2.59082734321781
H            9.52354302851331       48.71596294672563        2.63097213185686
H           11.14605039552797       48.35539611532808        2.08940873224596
H           10.52273645764365       50.01042337120613        1.98459588412035
C           13.44240085407784       50.16371495136486        3.42337034292512
H           14.34200791250928       50.51167852485174        3.91378363491137
C           13.44604636566436       50.08904191916676        2.09014802368559
H           12.60252901462279       49.75469318671435        1.52730903322415
H           14.30351164142705       50.35591659962104        1.50280956898802
C           15.09204441044040       52.64823347277959        7.92629749656812
H           14.83002602817436       52.95306369600932        6.91606868946737
H           16.00789202877602       52.06301782995141        7.87119832720177
H           15.29379622473929       53.54213699926695        8.50848790570067
C           13.84812043965649       52.95117155695468       10.86073552507355
H           13.24880341090259       53.86101007664481       10.80458779524977
H           14.89234587779090       53.22939842999136       10.76400174116320
H           13.70573190015103       52.51972959586190       11.84636141777089
O           11.75972565159271       47.78371740612254        8.03989200414204
O           12.71212306911085       47.63237315650570        8.89039583189727
C            8.35216100150356       54.44551547764178        7.41950162771389
H            8.71667747724252       55.18710002190278        8.12754542670919
H            7.28247867633150       54.59842646286717        7.29436807050352
H            8.83790268320476       54.61212848051584        6.46622066014462
N            8.13225239488458       52.58298150183886        9.07248208102388
H            7.52668908906884       53.08360128144584        9.70541861583808
C            8.64557775267720       53.07289329530006        7.90108699163563
C            8.60204023824028       51.32387812674450        9.22891193354079
H            8.34894534592742       50.71027502486175       10.06667648170666
N            9.38013858075231       50.97581837785133        8.23528899584899
C            9.41410785254306       52.05638238572905        7.40157646320399
H            9.98124331699348       52.03095492408294        6.49576758262149
77
 energy: -118.981775961953 gnorm: 0.026124345591 xtb: 6.7.1 (edcfbbe)
Fe          10.78135758591680       49.12776812077396        8.16044196433562
N           10.30502698908185       48.91522656744665       10.07443762256990
N            9.19496217581288       48.02049826275761        7.63978203603067
N           11.15386910114819       49.49564082364868        6.23269454726438
N           12.20852676489467       50.41509018291868        8.66112306290980
C           10.77525252515360       49.64058995120276       11.12497039371799
C           10.22851701137049       49.12393079714477       12.36048737561375
C            9.43169492371154       48.07044906789645       12.01863287313668
C            9.48149658617829       47.96326910744124       10.58082031724014
C            8.52796449792743       47.16375281637549        8.45746762557614
C            7.52215014769460       46.44995943805715        7.71378165190392
C            7.56475118132075       46.93692151632281        6.42723539320929
C            8.64098941711852       47.91677122355703        6.40917125845651
C           10.36795986603262       49.16018350562452        5.18174875102549
C           11.06783753492032       49.38945781561653        3.94670703495185
C           12.33279821316754       49.82467779565314        4.28545072576940
C           12.34591312773772       49.91817634617201        5.73750786266158
C           13.18782222671554       50.86721254206715        7.84436672143856
C           13.98064790736857       51.86149565727933        8.53264032231822
C           13.43681983799575       51.99611397080917        9.78311996725931
C           12.35676385452360       51.03613241929528        9.86249061443715
C           11.65796335370794       50.70446000463375       11.01174232331431
H           11.88276951761967       51.26488048476306       11.91268999291454
C            8.71257969548152       47.08776452569116        9.82988185506115
H            8.15184556448386       46.33550177282553       10.37478776012365
C            9.11858613390257       48.55539423362459        5.27769578173842
H            8.53260845149972       48.46836752626994        4.36116862419369
C           13.33998826313834       50.50226328649536        6.50824212705348
H           14.27556228551353       50.77647699331350        6.02125039096248
C            8.61411109442276       47.19673535534105       12.90842654494750
H            8.61284473645373       47.57607529251404       13.92778203485478
H            9.00861020854162       46.17964495079710       12.91812683699402
H            7.58279711392038       47.15286826128539       12.55621614611504
C           10.51905688156288       49.61687992809316       13.73959321508443
H            9.71027114676370       50.24924282893883       14.11343764395230
H           11.44305021951076       50.18914247860198       13.76529906967595
H           10.62536880563007       48.77234447151177       14.41976054779715
C            6.60260969350309       45.42584566289548        8.27806761628924
H            6.64044148849933       45.42084633472621        9.36452187436123
H            6.87671523285845       44.43037441513560        7.92460800944641
H            5.57807927507877       45.63160367136329        7.96666625674177
C            6.78790278590317       46.55707427675660        5.27206241242109
H            6.91750139149321       47.19009508530431        4.40152055531418
C            5.95884590004509       45.51929385548103        5.15798492943819
H            5.78992992978468       44.80388329031260        5.94307649345306
H            5.42834586684526       45.33167096138414        4.23895660327489
C           10.50977511554317       49.10205858670685        2.59575216577912
H            9.49417065295483       48.72062132808204        2.65840494528728
H           11.11554082284483       48.34247230597848        2.09809589528415
H           10.49677905800532       50.00737331546851        1.98506513325153
C           13.44405287043450       50.16583914293509        3.42770375934601
H           14.33771850031606       50.50395709716344        3.94176210890821
C           13.47973832523420       50.10349415193219        2.09236904274120
H           12.64687911676997       49.77707449130742        1.49366256641789
H           14.36059902241809       50.38024230456200        1.53438322040972
C           15.09484985537178       52.64185610399805        7.92660054003192
H           14.82614047553435       52.94605092466380        6.91607639771088
H           16.00442144915178       52.04298528468009        7.87386482884156
H           15.30070880929307       53.53490306301551        8.51394964241021
C           13.84547675414759       52.94486648123696       10.85868020639776
H           13.24467023586404       53.85595349128887       10.80590573851471
H           14.89316629721999       53.21993158906689       10.75412994239700
H           13.70520671430050       52.50014096461661       11.84104999079813
O           11.76838468914596       47.74629299242028        8.07872770965850
O           12.70476180452877       47.64604238999873        8.94000913143740
C            8.35402384254656       54.44749817012270        7.41808584803296
H            8.71853951438404       55.19019549805544        8.12921092305279
H            7.28029302175970       54.59279340382776        7.29433179556965
H            8.84179982955257       54.61056558841190        6.46143189417018
N            8.13072089782246       52.58479897679510        9.07291641754561
H            7.52442953537888       53.08370371324511        9.70331817135749