78
 energy: -115.886211771786 gnorm: 0.265969499100 xtb: 6.7.1 (edcfbbe)
Fe          14.59400000000000       27.96800000000000        4.72000000000000
N           14.94600000000000       29.20200000000000        6.28000000000000
N           13.85600000000000       26.59500000000000        6.04600000000000
N           14.40000000000000       26.59800000000000        3.23500000000000
N           15.52000000000000       29.25100000000000        3.44700000000000
C           15.44900000000000       30.52300000000000        6.18300000000000
C           15.36300000000000       31.15700000000000        7.45400000000000
C           14.82000000000000       30.25600000000000        8.35300000000000
C           14.53400000000000       29.10000000000000        7.58200000000000
C           13.58000000000000       26.78500000000000        7.39400000000000
C           12.94300000000000       25.63600000000000        7.94200000000000
C           12.79600000000000       24.71500000000000        6.96600000000000
C           13.33400000000000       25.33400000000000        5.73500000000000
C           13.94500000000000       25.28400000000000        3.32000000000000
C           14.14600000000000       24.58900000000000        2.11000000000000
C           14.75000000000000       25.46400000000000        1.25500000000000
C           14.94400000000000       26.69900000000000        1.95700000000000
C           15.74500000000000       29.01800000000000        2.12300000000000
C           16.48200000000000       30.19300000000000        1.60500000000000
C           16.63200000000000       31.05500000000000        2.56100000000000
C           16.01700000000000       30.53200000000000        3.75100000000000
C           15.96600000000000       31.09000000000000        4.99600000000000
H           16.37400000000000       32.09600000000000        5.08600000000000
C           13.91500000000000       27.93600000000000        8.07900000000000
H           13.66900000000000       27.94500000000000        9.14000000000000
C           13.41600000000000       24.75700000000000        4.50700000000000
H           13.01600000000000       23.74600000000000        4.43500000000000
C           15.49100000000000       27.86700000000000        1.46500000000000
H           15.75200000000000       27.85900000000000        0.40700000000000
C           14.55500000000000       30.39800000000000        9.83400000000000
H           14.87300000000000       31.40700000000000       10.17200000000000
H           15.13300000000000       29.63200000000000       10.39400000000000
H           13.46900000000000       30.27600000000000       10.03400000000000
C           15.76400000000000       32.60300000000000        7.75500000000000
H           15.61200000000000       33.22700000000000        6.84800000000000
H           16.83600000000000       32.64300000000000        8.04400000000000
H           15.13400000000000       33.00400000000000        8.57800000000000
C           12.50800000000000       25.52500000000000        9.40300000000000
H           12.08000000000000       26.49400000000000        9.73700000000000
H           13.38600000000000       25.28000000000000       10.03800000000000
H           11.73300000000000       24.73500000000000        9.50500000000000
C           12.25200000000000       23.32100000000000        7.02000000000000
H           11.70000000000000       22.91700000000000        6.15900000000000
C           12.40700000000000       22.54300000000000        8.06900000000000
H           12.95200000000000       22.90200000000000        8.95500000000000
H           11.99400000000000       21.52400000000000        8.07400000000000
C           13.78800000000000       23.13700000000000        1.85300000000000
H           13.03600000000000       22.80300000000000        2.59900000000000
H           14.69600000000000       22.50400000000000        1.94900000000000
H           13.35700000000000       23.03100000000000        0.83400000000000
C           15.34700000000000       25.23699999999999       -0.09900000000000
H           16.00200000000000       26.02300000000000       -0.49900000000000
C           15.18100000000000       24.20500000000000       -0.87100000000000
H           14.54200000000000       23.36800000000000       -0.55400000000000
H           15.67800000000000       24.15500000000000       -1.85100000000000
C           16.95400000000000       30.29799999999999        0.12700000000000
H           16.10400000000000       30.06800000000000       -0.55100000000000
H           17.77100000000000       29.56900000000000       -0.05900000000000
H           17.31100000000000       31.32900000000000       -0.08100000000000
C           17.45300000000000       32.35500000000000        2.53500000000000
H           16.77500000000000       33.21900000000000        2.36500000000000
H           18.19600000000000       32.31300000000000        1.71000000000000
H           17.97200000000000       32.49000000000000        3.50800000000000
O           16.52500000000000       27.10600000000000        4.96200000000000
H           16.54400000000000       26.33700000000000        4.39200000000000
H           17.18700000000000       27.39099999999999        5.48200000000000
C            9.49200000000000       29.44000000000000        2.54100000000000
H            9.53300000000000       30.39099999999999        1.96900000000000
H            8.58500000000000       29.44400000000000        3.18300000000000
H            9.44700000000000       28.59100000000000        1.82600000000000
N           11.00700000000000       30.23800000000000        4.34500000000000
H           10.43900000000000       31.02300000000000        4.59100000000000
C           10.71200000000000       29.31800000000000        3.39300000000000
C           12.18100000000000       29.89699999999999        4.87800000000000
H           12.65500000000000       30.46200000000000        5.68100000000000
N           12.67400000000000       28.80900000000000        4.31100000000000
C           11.76200000000000       28.43700000000000        3.33900000000000
H           11.94300000000000       27.58200000000000        2.69900000000000
78
 energy: -115.931351246682 gnorm: 0.104382696885 xtb: 6.7.1 (edcfbbe)
Fe          14.57946117098198       27.96691928824646        4.72983140381197
N           14.93300488330533       29.23087843285900        6.27962556737560
N           13.82584862486920       26.58854940304775        6.05164500596639
N           14.41448141708983       26.58117785364485        3.22708181069873
N           15.50874742645321       29.26643526460862        3.44770076770763
C           15.44225372724183       30.52527627603952        6.18435286541127
C           15.36175024388193       31.16460627523871        7.45081293247210
C           14.81659151788916       30.25445965198697        8.34342985713899
C           14.54099480676322       29.08633085211976        7.58139137510218
C           13.58097462738957       26.78501227378641        7.39144944820874
C           12.94256165239496       25.63050952816393        7.95098469648316
C           12.79191154125874       24.71021153391501        6.95371457113831
C           13.33409682022535       25.33285081002472        5.74363164647732
C           13.94526832116369       25.28544135018048        3.32400380569903
C           14.14584762956542       24.58658693546163        2.11023209372254
C           14.77552838631562       25.46816346878600        1.24392300659661
C           14.93094287793275       26.70143275686026        1.95321315063719
C           15.76084651789716       29.03325250446253        2.12912959279912
C           16.47997246469818       30.18527166207915        1.57715459598604
C           16.64923674134392       31.06647508805908        2.57392315102740
C           16.02263978609771       30.52013977154989        3.75820707326653
C           15.96542137298517       31.08870332099415        5.00411379744630
H           16.37364913441920       32.08960393681793        5.09365033020998
C           13.92060718575112       27.93068531380358        8.08468472590967
H           13.66980045201093       27.94715359619293        9.13882815614392
C           13.40678747767812       24.74949493271930        4.50798578021479
H           13.01611169930730       23.74108140091937        4.43541514804441
C           15.49011379622303       27.87399914697166        1.45162135044249
H           15.75971141965361       27.86109285283506        0.40233665536282
C           14.55667529578999       30.40211188888118        9.81438029302318
H           14.86749712146709       31.39110355132091       10.16545222029899
H           15.11707170197970       29.64830430577021       10.38068608589997
H           13.48948780486765       30.27597963230902       10.03380903950298
C           15.76245936329568       32.58904066176554        7.74748111609035
H           15.61640959233958       33.21924317749499        6.86437125847834
H           16.81748701926585       32.64437484982342        8.04055568593486
H           15.15177192673257       32.99371701378741        8.56148807656494
C           12.50912975863488       25.52686356186655        9.39080969669186
H           12.08764102823390       26.47830640754821        9.73209019413500
H           13.36658607486978       25.28328533420946       10.02919344019283
H           11.74768777434126       24.74921536143722        9.50287971829101
C           12.25432469326890       23.34244166076311        7.01933449801210
H           11.71910052795203       22.95278797860770        6.15447754517826
C           12.40495165636619       22.54943527654650        8.07286909108827
H           12.95132572445297       22.87963098711675        8.94746938368729
H           12.00316432979477       21.54152404871100        8.08158181290936
C           13.78371754330339       23.14912281226317        1.86434826541219
H           13.04636951481217       22.80290407647785        2.59328997391027
H           14.67494532612833       22.51353091038931        1.94301059272165
H           13.35060202463904       23.02713482922336        0.86777366069588
C           15.34419936869446       25.24867061117416       -0.08884114139014
H           15.99102478914134       26.03685579425904       -0.46936698194838
C           15.17920467837504       24.19626189431654       -0.87731953047518
H           14.55941754491791       23.36156838079368       -0.58751076984575
H           15.66812160171528       24.14282081830247       -1.84270984331902
C           16.94504653720985       30.29160553693054        0.13805380783516
H           16.11571614664548       30.06913448404567       -0.54008013252835
H           17.75480186601545       29.57992650565168       -0.05434265344558
H           17.30338900240937       31.30329118160333       -0.07350347960321
C           17.44162628668127       32.35212737595002        2.53987689837314
H           16.78292223089237       33.21146455356173        2.37193428832367
H           18.17883538865383       32.31628265121687        1.73192814436144
H           17.96549328043110       32.49087435040895        3.48942396199175
O           16.56453540688599       27.07262946287613        4.96381522642532
H           16.60660735514952       26.30443566572788        4.39684080393798
H           17.27334902264331       27.36627022653918        5.50413160021671
C            9.48374327673980       29.44184721115339        2.53295036054087
H            9.51727442351467       30.37859817341604        1.96612636772582
H            8.58701365118820       29.44265554515314        3.16228679147436
H            9.43817806755070       28.60442335408046        1.83416699919559
N           10.99291122549615       30.24332692876746        4.34201928642850
H           10.42358330063610       31.03117527498121        4.59239482190300
C           10.70174570567243       29.32866493750264        3.37217188588069
C           12.17204280863238       29.90084757757607        4.87968913552064
H           12.65160188987877       30.45012084443377        5.67345229705701
N           12.64679702042787       28.82465450805916        4.30659916040814
C           11.74707488472833       28.45147435160759        3.34513742363320
H           11.93217371374972       27.59713799122348        2.71924926110160
78
 energy: -115.949017440919 gnorm: 0.029050846162 xtb: 6.7.1 (edcfbbe)
Fe          14.58694997469315       27.95827685349905        4.74547557745100
N           14.92268344292541       29.25556004589006        6.27860623810421
N           13.80481875573241       26.58213535981244        6.05693580618918
N           14.43149454086904       26.56667194272799        3.21958738209844
N           15.50993568466481       29.27482550464045        3.44942054088412
C           15.43008736939244       30.52576952892478        6.18219323215850
C           15.35913135897435       31.17085830527873        7.44977315337832
C           14.81472171252877       30.25363994721526        8.33496126241860
C           14.54008964749978       29.07838721470705        7.57716230867534
C           13.57887217311822       26.78787203585510        7.38617786523404
C           12.94435995787652       25.62575464190157        7.95924396229771
C           12.79545182932205       24.70933809309017        6.94707001781572
C           13.33020542525432       25.33825975943383        5.74777211271578
C           13.95154419480698       25.28721593177397        3.32800809650566
C           14.14321773705019       24.58482908970533        2.11183738055558
C           14.79276212184786       25.47024377344014        1.23562965180983
C           14.92853447128157       26.70154841333913        1.95652389781016
C           15.77220462079501       29.04409403558401        2.13523602853168
C           16.47890329649666       30.17864485145789        1.56707307847997
C           16.66180418274449       31.06834545563219        2.58543072952306
C           16.02592527305870       30.50387025133832        3.76185360823914
C           15.96132376317438       31.08724273856200        5.00826942252264
H           16.37536915720983       32.08203390886523        5.09997691664776
C           13.92018809472777       27.92796936981163        8.08679021126210
H           13.67512943085743       27.94754928562869        9.13809379481950
C           13.39872449234901       24.74579208996803        4.50841329998579
H           13.01639743597157       23.73861586242756        4.43592526212766
C           15.49226513197461       27.88110969574800        1.44472673245411
H           15.76661554437654       27.86678251496835        0.40152470896034
C           14.55851662445044       30.40618557756939        9.79812240558731
H           14.86717563809938       31.38570954458062       10.15023753042677
H           15.11047754661016       29.65631888894154       10.36432496740173
H           13.50025834601488       30.27794415779583       10.02535477351494
C           15.76166129975526       32.57813497725954        7.74332962093446
H           15.61894765389253       33.21042809962978        6.87147437969347
H           16.80941909753124       32.63728246053059        8.03629733967774
H           15.16283524933855       32.98291397392357        8.55540693845690
C           12.50977470351726       25.52545252898326        9.38089294156429
H           12.09287210832844       26.47013522108294        9.72173799304080
H           13.35604089948341       25.28340072816691       10.02299940734094
H           11.75584635979377       24.75290243213000        9.49591526859829
C           12.26454145263143       23.36363103745328        7.02053073471507
H           11.73851861576071       22.99148975368060        6.15000588602645
C           12.40733259376097       22.55745957914502        8.07135590978334
H           12.95294492802515       22.86251456723689        8.94402618587677
H           12.00235507112853       21.56055416615130        8.08155201125173
C           13.77822227778084       23.15903328357647        1.87199774445942
H           13.05606583407473       22.80913007819127        2.60188918800583
H           14.66234057804006       22.52271627600974        1.93476562584960
H           13.33896556723786       23.03137871962344        0.88790444794296
C           15.33789914511128       25.25254771774999       -0.07590291122970
H           15.97283215173007       26.04730108188815       -0.44546520360822
C           15.17959037698938       24.19083136058132       -0.87396591684861
H           14.57109124244186       23.35221710332081       -0.60974004195406
H           15.66107607715533       24.14384797434697       -1.83374862497120
C           16.93505409714831       30.28631215786897        0.15484681748387
H           16.11934014934813       30.06638948162137       -0.52886338991338
H           17.74126185056588       29.58260249691873       -0.04554449026681
H           17.29615602977538       31.28757116544509       -0.06022973369958
C           17.43069692137568       32.34547306287621        2.54588436907479
H           16.77842857574750       33.20088197610837        2.38022154517771
H           18.16396209841082       32.31876782490579        1.74462264871578
H           17.95840770999128       32.49487129459925        3.48272581507022
O           16.65216108870056       27.01531881905512        4.98393326067639
H           16.73472716414917       26.25506010334094        4.41022026929715
H           17.39588583414686       27.30843330810818        5.50896826922706
C            9.46074856370685       29.44972067244804        2.51841266445632
H            9.48574716879807       30.37643825168324        1.95007662356350
H            8.57105654448576       29.44432175547635        3.14262032980090
H            9.42266486638008       28.61326899502428        1.83297290958574
N           10.96311155975401       30.26059435274163        4.33426377986745
H           10.39342280812461       31.04971321330167        4.58819205262055
C           10.67694932794506       29.34874927707074        3.35089460943361
C           12.14520051095683       29.91287617183036        4.87965987477526
H           12.63165709206860       30.44726274039598        5.66867915253592
N           12.60803471140523       28.84298201123375        4.30354429201294
C           11.72047860903302       28.47295381397845        3.34793007098989
H           11.90953445772432       27.61573926319128        2.73497737832125
78
 energy: -115.956620627118 gnorm: 0.029168439233 xtb: 6.7.1 (edcfbbe)
Fe          14.61467793889617       27.94437545115263        4.75594917713203
N           14.91342848825405       29.26264919006257        6.27446274759605
N           13.79553187395600       26.58589795270654        6.05689339097234
N           14.45099784284685       26.55758487136702        3.22242359989725
N           15.52055831082243       29.27099401299520        3.45502013862174
C           15.42267611118829       30.52390575300678        6.17904168561136
C           15.35479659282144       31.17243619110776        7.44888616973039
C           14.81145639868473       30.25501856920832        8.32895978504273
C           14.53350514919608       29.07779945195469        7.57241278790640
C           13.57791127716419       26.79238308170764        7.38345671715975
C           12.94922767181948       25.62721447025818        7.96242638328930
C           12.80300782553346       24.71288076625495        6.94672622798061
C           13.33141480292307       25.34366416106858        5.74825697980933
C           13.96058759131128       25.28611687301672        3.33314860032090
C           14.14124451674560       24.58328531642138        2.11653007059345
C           14.79477798972800       25.46897458409574        1.23485985246349
C           14.93608185617406       26.69794571032176        1.96264297967666
C           15.77933389567967       29.04177860077110        2.14067857504511
C           16.48031783156384       30.17256714937599        1.57308673949148
C           16.66600092222988       31.06537743567121        2.59551705908992
C           16.03241774730050       30.49226460224998        3.76763702951397
C           15.96266536239028       31.08591342855139        5.01233128081568
H           16.37916870876616       32.07814096294531        5.10593860151930
C           13.91881142312052       27.93050849861520        8.08767030834512
H           13.68238696458783       27.94972693054833        9.14005865136940
C           13.39968614171136       24.74423069744878        4.51041197500066
H           13.01763538028674       23.73799526470032        4.43830796751494
C           15.49785883984879       27.87939732114103        1.44582907529029
H           15.77184115323199       27.86751856002993        0.40326079855916
C           14.55795707016233       30.41024904253621        9.78960272754231
H           14.86910851856891       31.38981038202549       10.13767712382103
H           15.10967931550721       29.65961503153003       10.35416221292786
H           13.50019346754723       30.28259172289669       10.01818986179113
C           15.76440613318017       32.57403149803559        7.74220558688647
H           15.62236831963120       33.20914036569080        6.87222073975441
H           16.81346031447215       32.62818415700317        8.03240903610717
H           15.17137778961154       32.97990312114062        8.55799125327018
C           12.51065419862641       25.52492295624884        9.37840603215419
H           12.09251504126207       26.46965812787582        9.71779363507640
H           13.35218799077003       25.28112380568172       10.02663872698214
H           11.75695069468342       24.75113806938733        9.48897246124452
C           12.27022340952803       23.37481843807272        7.02064961351621
H           11.75091525188965       23.01478938224961        6.14131786815907
C           12.40246531189203       22.56248223077343        8.06833079630111
H           12.96006707279542       22.84875740397152        8.94110553295924
H           11.99145037921534       21.56890306362984        8.07344412075383
C           13.76882039589398       23.16218484042979        1.87935452400346
H           13.06338036713381       22.81070650707910        2.62541816963120
H           14.65367773477802       22.52398119862352        1.91960085731619
H           13.30604943356175       23.03656681679226        0.90522912946873
C           15.32833666396425       25.25380050134605       -0.07427983920946
H           15.95415227386006       26.05806276211021       -0.43954653116939
C           15.18131087365837       24.19134911620623       -0.87794779015629
H           14.58909045417412       23.33585112158612       -0.62602269766916
H           15.66560528930625       24.15491356165499       -1.83686456406744
C           16.93118808258738       30.28090310145250        0.16239713556971
H           16.11544938157281       30.06119506124701       -0.52287534245240
H           17.73729285111018       29.57652091936315       -0.04198628133897
H           17.29316949615059       31.28210839515167       -0.05198995174136
C           17.42141460500327       32.34674855961636        2.55415131029083
H           16.76095282042166       33.19723156101833        2.39098912781427
H           18.15215038414797       32.32723515766263        1.74986959927420
H           17.95358161730978       32.50484561039976        3.48813826539663
O           16.73359750502645       26.94153385694817        5.02640774057147
H           16.87706909372702       26.21502740459803        4.41150003773704
H           17.51239179805009       27.25572269284866        5.50061062628830
C            9.43308426829606       29.46001336791247        2.50259984941277
H            9.44375546690326       30.38159357231470        1.92468674907163
H            8.54113859282650       29.44928608591848        3.12360754734986
H            9.40074227930555       28.61788799409752        1.82263423703630
N           10.93347498881201       30.28146275500969        4.32381255190739
H           10.36211283732579       31.07013693682796        4.57836449470775
C           10.65110175089377       29.36986811269979        3.33679409922077
C           12.11436164311338       29.92877960318571        4.87790429787801
H           12.59974651937625       30.45693207745700        5.67028026912501
N           12.58163749607379       28.85765335481949        4.30415894616684
C           11.69494521213252       28.49202386623461        3.34754085040949
H           11.88123093537623       27.63020886988363        2.74151989754957
78
 energy: -115.961362117318 gnorm: 0.044591934540 xtb: 6.7.1 (edcfbbe)
Fe          14.64793691174233       27.92974388406152        4.76531862517255
N           14.91028805458903       29.26049803999153        6.26971489975551
N           13.79446899137064       26.59403770400179        6.05589507021354
N           14.47574161247548       26.55070480947103        3.23230743975113
N           15.54251238762688       29.25671576042299        3.46660548246273
C           15.42068230597390       30.52083777050940        6.17531509707272
C           15.35082361831972       31.17244214405027        7.44718875944294
C           14.80759151791616       30.25780364190872        8.32368846073387
C           14.52711489688434       29.07919947526477        7.56798209803810
C           13.57913742871234       26.79722282608661        7.38283022632608
C           12.95729864274428       25.63060029813272        7.96397791033054
C           12.81395071695655       24.71721787434891        6.94854132526069
C           13.33675461580021       25.34933033955661        5.74842987275445
C           13.97250843433700       25.28381268456972        3.34021275143183
C           14.14034630116886       24.58244261570323        2.12279238829057
C           14.79328675788338       25.46633185255937        1.23807746262849
C           14.95034892782480       26.69249573577288        1.97067986099829
C           15.79319678144016       29.03124861047435        2.14863712418812
C           16.48506071850244       30.16644038356771        1.58442855614635
C           16.66972373422005       31.05992747115764        2.60500801146138
C           16.04497028585492       30.48092539217060        3.77541167656651
C           15.96878778786121       31.08456017411063        5.01648949589462
H           16.38376212028070       32.07639033060646        5.11063206044232
C           13.91751155668927       27.93546085874544        8.08903227616807
H           13.68931752125801       27.95311899255818        9.14334108824987
C           13.40599414270587       24.74378396043453        4.51451991240582
H           13.02196651557841       23.73834771352593        4.44383861733321
C           15.51069425736580       27.87234889842590        1.45124697509304
H           15.77850312121948       27.86654840607387        0.40670580877190
C           14.55502273900497       30.41490279685718        9.78388524072149
H           14.86935763985418       31.39636358571992       10.12735618518398
H           15.10820146317507       29.66386397268524       10.34804348714165
H           13.49623267317371       30.28949974947930       10.01303101499900
C           15.76974517809533       32.57189734888499        7.74059311579117
H           15.62701616638746       33.21026870024878        6.87141048834938
H           16.82216123702345       32.61741259798579        8.02558904788851
H           15.18278740407872       32.97970544953741        8.56157803034619
C           12.51243438169407       25.52458357726752        9.37814456680660
H           12.09114633271740       26.46971076556391        9.71713167777803
H           13.34980949756732       25.27774037128921       10.03277619212895
H           11.75723651022047       24.74852322381146        9.48051245972665
C           12.27900231105201       23.37966675884051        7.01782998754282
H           11.75532057606750       23.03422820859178        6.13424742937520
C           12.40373404643383       22.56143004654376        8.06000550616133
H           12.95742098561595       22.83786453538090        8.94002815010373
H           11.97378712423418       21.57423830022426        8.06262642286872
C           13.75820211370013       23.16475428372829        1.88181501948655
H           13.07365116636636       22.80806585401752        2.64812148626228
H           14.64376124807041       22.52360449913888        1.89231634329574
H           13.26777618248588       23.04910031709082        0.91720399301905
C           15.31863049190539       25.25186090516748       -0.07490626519566
H           15.92752794472067       26.06848867677988       -0.44608769378589
C           15.18478797661873       24.18837201322424       -0.87752163377444
H           14.60657245477300       23.31835763082598       -0.63096338664624
H           15.66407458603490       24.16702007550664       -1.84216263506264
C           16.92938234846253       30.27655448964783        0.16803304196016
H           16.10816237067629       30.05668530556745       -0.51314671638116
H           17.73438589725954       29.56936685052589       -0.03962701738362
H           17.29100275335292       31.27909485650598       -0.04618612180567
C           17.41025337255391       32.35154010574428        2.56276982100134
H           16.73476069105711       33.19373476110999        2.40514936330065
H           18.13731275071187       32.34334190395281        1.75291857398927
H           17.94587411050225       32.51677664171086        3.49559162409322
O           16.80189207893886       26.83553092644184        5.10930399693336
H           17.03542713694011       26.19486913962134        4.39670262215304
H           17.63797757463879       27.20899320741367        5.46845755290188
C            9.40112797091567       29.47066933381516        2.48516838675001