87
 energy: -128.379363419866 gnorm: 0.293183867881 xtb: 6.7.1 (edcfbbe)
Fe          17.88200000000000       56.65100000000000       35.74799999999999
N           17.53200000000000       58.57200000000000       35.61500000000000
N           15.87600000000000       56.33599999999999       35.11799999999999
N           18.22400000000000       54.68200000000000       35.93599999999999
N           19.77900000000000       56.94400000000000       36.38200000000000
C           18.48900000000000       59.52799999999999       35.97500000000000
C           17.92400000000000       60.85400000000000       35.68000000000000
C           16.66800000000000       60.65200000000000       35.14200000000000
C           16.43100000000000       59.25400000000000       35.10499999999999
C           15.02400000000000       57.27800000000000       34.72899999999999
C           13.79000000000000       56.65400000000000       34.41000000000000
C           13.98900000000000       55.33199999999999       34.56999999999999
C           15.37100000000000       55.12200000000000       35.10800000000000
C           17.26100000000000       53.72200000000000       35.77200000000000
C           17.83900000000000       52.45100000000000       35.98500000000000
C           19.18300000000000       52.67100000000000       36.31600000000000
C           19.40500000000000       54.07699999999999       36.24400000000000
C           20.72200000000000       56.06100000000000       36.66500000000000
C           21.95200000000000       56.69299999999999       37.06099999999999
C           21.72000000000000       57.96600000000000       37.06000000000000
C           20.32100000000000       58.11799999999999       36.67099999999999
C           19.75400000000000       59.34099999999999       36.47900000000000
H           20.33800000000000       60.22400000000000       36.74000000000000
C           15.25300000000000       58.67200000000000       34.66800000000000
H           14.47200000000000       59.31400000000000       34.26100000000000
C           15.99300000000000       53.92500000000000       35.38400000000000
H           15.37900000000000       53.03200000000000       35.27400000000000
C           20.62400000000000       54.67299999999999       36.56000000000000
H           21.50400000000000       54.05300000000000       36.72600000000000
C           15.69600000000000       61.72800000000000       34.71099999999999
H           16.24500000000000       62.67999999999999       34.54600000000000
H           14.93400000000000       61.88500000000000       35.50400000000000
H           15.20100000000000       61.42900000000000       33.76200000000000
C           18.57200000000000       62.20999999999999       35.88900000000000
H           18.97800000000000       62.58000000000000       34.92300000000000
H           19.40500000000000       62.12000000000000       36.61900000000000
H           17.81600000000000       62.93300000000000       36.26299999999999
C           12.49400000000000       57.25200000000000       33.95800000000000
H           12.60000000000000       58.35599999999999       33.88700000000000
H           11.69400000000000       57.01300000000000       34.69100000000000
H           12.22400000000000       56.85099999999999       32.95800000000000
C           12.89200000000000       54.47400000000000       34.36100000000000
H           12.12000000000000       54.72600000000000       33.61900000000000
C           12.77200000000000       53.41699999999999       35.00800000000000
H           13.52500000000000       53.13300000000000       35.75800000000000
H           11.91200000000000       52.75300000000000       34.83799999999999
C           17.14600000000000       51.13300000000000       35.85799999999999
H           16.23300000000000       51.25200000000000       35.23600000000000
H           16.85100000000000       50.76600000000000       36.86400000000000
H           17.82200000000000       50.39900000000000       35.36899999999999
C           20.22600000000000       51.75999999999999       36.68400000000000
H           21.21600000000000       52.17700000000000       36.91800000000000
C           20.11800000000000       50.45900000000000       36.77100000000000
H           19.16100000000000       49.96200000000000       36.55300000000000
H           20.98300000000000       49.84499999999999       37.06300000000000
C           23.26400000000000       56.09899999999999       37.41300000000000
H           23.32800000000000       55.06900000000000       37.00099999999999
H           23.37000000000000       56.05199999999999       38.51799999999999
H           24.08200000000000       56.71200000000000       36.97900000000000
C           22.72300000000000       58.98600000000000       37.50800000000000
H           23.55200000000000       59.03900000000000       36.77100000000000
H           23.13800000000000       58.69500000000000       38.49700000000000
H           22.23900000000000       59.98299999999999       37.57800000000000
C           20.21100000000000       58.24699999999999       30.96400000000000
H           19.50400000000000       58.68200000000000       30.22600000000000
H           20.89400000000000       57.54600000000000       30.43800000000000
H           20.79600000000000       59.06800000000000       31.43000000000000
N           18.62900000000000       56.45500000000000       31.72300000000000
H           18.47600000000000       56.08800000000000       30.80600000000000
C           19.44800000000000       57.51500000000000       32.01200000000000
C           18.08600000000000       56.00900000000000       32.84200000000000
H           17.38600000000000       55.17700000000000       32.90200000000000
N           18.54300000000000       56.74700000000000       33.84900000000000
C           19.36400000000000       57.70999999999999       33.34700000000000
H           19.81800000000000       58.45300000000000       33.98999999999999
C           14.79500000000000       56.79700000000000       40.48800000000000
H           15.04500000000000       57.64200000000000       41.16500000000000
H           14.73200000000000       55.86299999999999       41.08600000000000
H           13.81800000000000       57.00200000000000       40.00100000000000
N           17.13400000000000       56.42000000000000       39.77000000000000
H           17.48500000000000       56.29600000000000       40.69799999999999
C           15.83300000000000       56.66399999999999       39.47300000000000
C           17.85100000000000       56.37300000000000       38.66300000000000
H           18.91600000000000       56.15000000000000       38.61700000000000
N           17.03800000000000       56.64400000000000       37.65200000000000
C           15.77900000000000       56.81999999999999       38.13900000000000
H           14.94900000000000       57.04300000000000       37.48000000000000
87
 energy: -128.437039346501 gnorm: 0.099079461117 xtb: 6.7.1 (edcfbbe)
Fe          17.87449509962476       56.66406250605110       35.75081947511433
N           17.54293430863918       58.59049490210655       35.61742067956204
N           15.91699271469223       56.35587916107676       35.11654020744233
N           18.22548756751643       54.70232063681967       35.92999557366367
N           19.77463965687208       56.94852455437584       36.39888418663092
C           18.46176517916187       59.55595803286269       35.96741548721969
C           17.91275001406154       60.87008053594055       35.67866218417382
C           16.67356817610914       60.66858380457321       35.14390680058531
C           16.44741557645600       59.25676652582406       35.11483928157154
C           15.04021063095969       57.29694626765296       34.73076146086107
C           13.79885334490326       56.67166924230037       34.39390608321243
C           13.98623223251978       55.33736086450160       34.56606659907558
C           15.35810852818140       55.14111900851969       35.08033348679050
C           17.27712660797441       53.73009047932619       35.76159451107807
C           17.85315844030324       52.44136912559750       35.98586421504073
C           19.18146791686348       52.65690785240974       36.30970359929526
C           19.38774756719003       54.07587781023457       36.25028350927916
C           20.73253534926245       56.03939525093522       36.64852725543685
C           21.96089684160386       56.67519197778211       37.05906607544730
C           21.71463900711558       57.99199450504187       37.07561991029910
C           20.32753976483977       58.14573995073807       36.66246593878967
C           19.73320183897761       59.36798081522301       36.47411157924572
H           20.32088020568627       60.23998595493801       36.72816893545377
C           15.27530687401870       58.66933016289747       34.67766711945669
H           14.49053320286345       59.30368868496101       34.27838880794884
C           15.97658168838339       53.93533415781334       35.36771240218332
H           15.37340762815455       53.04269985651513       35.26107419716033
C           20.60445594205220       54.66976127879711       36.54819683427203
H           21.47799836116121       54.05715637014142       36.72568769153507
C           15.70273625745687       61.72597976481178       34.71029093247795
H           16.23113340106326       62.67017882299437       34.54508408519671
H           14.94190746825120       61.88324857778010       35.48579437309975
H           15.20478388406250       61.43719464391393       33.77797246036074
C           18.57130379635959       62.20209883698273       35.88916211652622
H           18.97541256154641       62.57762280888871       34.93968002328526
H           19.39181284269857       62.12775135129936       36.60955704070940
H           17.83577979844539       62.92397818212139       36.26050185764390
C           12.50379265557443       57.27033415915425       33.95513935054522
H           12.58856223290960       58.35693732183246       33.88321500371565
H           11.70861587344505       57.02465039083243       34.67199969537700
H           12.22066941891756       56.86953445182569       32.97350886646932
C           12.89342481529310       54.45228996391615       34.34076996777627
H           12.13042324071801       54.73235827285670       33.61545901377659
C           12.75204766978492       53.34780986059602       35.02933472576672
H           13.48334133269765       53.08939805037493       35.78223274213966
H           11.90167581383507       52.70429258061635       34.86783631275922
C           17.14296275092906       51.13672280926281       35.85673802522921
H           16.23975116846167       51.24361570216026       35.24701883814389
H           16.85324180136992       50.75973637807230       36.84645603964127
H           17.79292226087823       50.40554054778693       35.36609099149583
C           20.22802504973145       51.74829827022538       36.67898562799823
H           21.20098096041707       52.17946121285654       36.91227311962962
C           20.12356649672529       50.43159287059593       36.77719075698801
H           19.18928231858028       49.93233523853910       36.57601736668757
H           20.97504892621498       49.82885574920039       37.06230767858253
C           23.26939698087421       56.07471479098164       37.41052160523133
H           23.34855556926543       55.06232860987033       37.00896683916046
H           23.38199306377044       56.04164547779156       38.50187436188660
H           24.07488365829320       56.69017009659849       36.99267911673530
C           22.71505996728527       59.00772019154090       37.50611028977675
H           23.54054773307265       59.04996192046006       36.78368176238543
H           23.13077776199276       58.71455558442964       38.47860775086471
H           22.25596801475349       59.99415955740672       37.58497521477785
C           20.20896971978181       58.24822518325120       30.95704042092191
H           19.51900105356430       58.68272886693349       30.22440466995360
H           20.88978654853022       57.56370430464646       30.43711602691991
H           20.78808076820122       59.05287738088397       31.41817917840235
N           18.63505967458526       56.45705999799483       31.71062331827052
H           18.47857641887194       56.08631389467929       30.79047587023853
C           19.44795418324701       57.51842573464545       32.00177532218518
C           18.09238770060915       56.01239316470079       32.85213468493718
H           17.40051083489189       55.18930150191957       32.91395679637821
N           18.52584419759290       56.74346357826973       33.86086859462230
C           19.36027975669106       57.69262390755305       33.34886959645501
H           19.81392819099976       58.43169477642302       33.98396685668975
C           14.78660144205562       56.80006655770816       40.50128467108537
H           15.02677002573400       57.63286487956955       41.17335743974171
H           14.71745012253804       55.87832782904082       41.09127189340379
H           13.82635152465632       56.99764674925508       40.01794721240111
N           17.13405055165975       56.41252384256605       39.78954824379741
H           17.48634036743816       56.28518413007468       40.72094249364839
C           15.83480640874866       56.67292524493850       39.47870653499508
C           17.84977932757442       56.37889282877733       38.66041177149020
H           18.90144245928515       56.15817259055806       38.61306600732298
N           17.06028504553594       56.63639608856614       37.63851306291095
C           15.80155556124115       56.82054228635965       38.12750386778415
H           14.97387030414420       57.03930135615153       37.47731742477883
87
 energy: -128.452735992000 gnorm: 0.028679961803 xtb: 6.7.1 (edcfbbe)
Fe          17.86328084380428       56.67206045537534       35.75319372868270
N           17.55473033977398       58.61186982502068       35.62677579258424
N           15.95703948139588       56.35990886034281       35.10756976331215
N           18.21576062985006       54.71157397855321       35.91717857112439
N           19.76899321693311       56.96582379489580       36.40607242248024
C           18.44711467722501       59.58250188178175       35.96659907835722
C           17.90522138264227       60.88907431819739       35.68103622076531
C           16.67408894907385       60.68519654105383       35.14612592821523
C           16.46295567756139       59.26072749908764       35.12610803381854
C           15.05879199710426       57.30011071397270       34.72578249697472
C           13.81299183129690       56.67582346570818       34.37754454723056
C           13.98582591548540       55.33057476723314       34.57337178078582
C           15.35259723952507       55.14936428116187       35.05012822476436
C           17.27979968486408       53.73442915668615       35.73889932747123
C           17.85268802444408       52.43414748840429       35.97462452340780
C           19.17180055597427       52.64283081714731       36.30219124647271
C           19.36645407893963       54.07455329955165       36.25069926940163
C           20.73605724485234       56.04122093141675       36.63239922156987
C           21.96233353650542       56.67546371615182       37.05007246596863
C           21.70835868325829       58.00943000277850       37.08497413447232
C           20.33429463699319       58.17058048557702       36.65946515340535
C           19.71974420485064       59.39182377168087       36.47621179924156
H           20.30860474238031       60.26222416722523       36.71667651015414
C           15.29787524222138       58.66313652378423       34.68691209248956
H           14.50901240328431       59.29672672247884       34.30429555479122
C           15.96471078871566       53.94076187885162       35.34259605548941
H           15.36647432292191       53.05093902297719       35.23447140627034
C           20.57769718287659       54.67784756622448       36.53785514598439
H           21.44582314952579       54.06765106381457       36.72802571345426
C           15.70188133424030       61.72658187283329       34.70578927698973
H           16.21764045239710       62.66857217932709       34.54049455924502
H           14.94012544910138       61.88111557284442       35.47143987347660
H           15.20486664572545       61.43766008091382       33.78273272863761
C           18.57233136019247       62.20518268720847       35.89264195209577
H           18.97800711263073       62.57909869923537       34.95097799983705
H           19.38506258977145       62.13247333340749       36.60842047555033
H           17.85026203243385       62.92979157048723       36.26293185770739
C           12.52278395599986       57.29354486418132       33.95038973146771
H           12.59260193165208       58.37277495038605       33.87812052798757
H           11.73232179919020       57.04493087042248       34.66119540600997
H           12.22330357219807       56.89721450460850       32.97879864275550
C           12.90197819621021       54.41279037545100       34.34991621608155
H           12.15880282566039       54.70648761332296       33.61943849706794
C           12.73541693026629       53.29834610500013       35.05162707105286
H           13.44088246990275       53.04183862223804       35.81564059332549
H           11.89159068676683       52.66017363989720       34.88365707156888
C           17.13121790720365       51.13762190400868       35.84798489102777
H           16.22789192057896       51.24479204969221       35.25435621272028
H           16.85425377700592       50.75413418608874       36.83162373920099
H           17.76523127432041       50.40603740977593       35.35377778795733
C           20.21989496797494       51.73002998350031       36.67478878424277
H           21.18207866735333       52.17447677748771       36.89686406266476
C           20.12630555779192       50.40589433057833       36.78671594982394
H           19.20929824248806       49.88789111886406       36.60430935076084
H           20.97699753962232       49.81368582022245       37.06724929255175
C           23.26808606376029       56.05755040716596       37.40513917433479
H           23.35884393852262       55.05091224874423       37.01374765415640
H           23.39001928921857       56.02513230532368       38.48929651859679
H           24.07667885941527       56.66469422937965       37.00007130025688
C           22.70511244563994       59.02958455378366       37.50561355468722
H           23.52784907281560       59.06986943332421       36.78957308980512
H           23.12630483943725       58.74430546926776       38.47022658913787
H           22.26480545553404       60.01532194803808       37.59005646395856
C           20.20748422930300       58.24883880796419       30.95287793973939
H           19.52958461576284       58.68433559202406       30.22005141479746
H           20.88874705905706       57.57572768716079       30.43386173122399
H           20.78362897798192       59.04495178686726       31.41180326593653
N           18.63743698362473       56.45388527842771       31.70235400106317
H           18.47894854941429       56.07905456143535       30.78155900925579
C           19.44575350349275       57.51831133418426       31.99598645482694
C           18.09542046621895       56.01342385260995       32.85911297900218
H           17.41125884932257       55.19334221038198       32.92512875352462
N           18.51289478222212       56.73878383767337       33.86825091986338
C           19.35510466865231       57.67830265057290       33.34881036614197
H           19.81762929736372       58.41021782274917       33.97786438441021
C           14.77943132578643       56.80430040527904       40.50779379079536
H           15.00635103193177       57.62749853546382       41.18461962573524
H           14.70404036401906       55.88914951476757       41.09355915043309
H           13.82674547455512       56.99631288659135       40.02777992486226
N           17.13829212568352       56.40439002036607       39.81029277748106
H           17.48699209848596       56.26904574098087       40.74421812864842
C           15.84132450309825       56.68307795898281       39.48214754755328
C           17.85742491320685       56.38151704741765       38.67016131767016
H           18.90218971457747       56.16421839237418       38.62317232306819
N           17.09329553943929       56.63823112504487       37.63838464979810
C           15.83207466419527       56.82484452855402       38.12254875077666
H           15.00709643530311       57.04034970798056       37.47519768751126
87
 energy: -128.457504469895 gnorm: 0.018438965996 xtb: 6.7.1 (edcfbbe)
Fe          17.86082957572471       56.67456706590521       35.75521253420160
N           17.56306244961868       58.62744640208089       35.63676232942834
N           15.98008140846502       56.35478123275488       35.10108633577180
N           18.20325135268057       54.70818708189151       35.90410125815216
N           19.76764584063809       56.98572293721674       36.40480671267398
C           18.44626034145147       59.60262674613448       35.97366769978517
C           17.90016414470469       60.90684451725583       35.68702898143426
C           16.66986740127500       60.69655894749872       35.15032945589143
C           16.46997124057724       59.26577093208894       35.13627672546860
C           15.07385150857867       57.29448196609042       34.71894505875864
C           13.82618987843536       56.67296638184029       34.36930582173029
C           13.98872942236912       55.32363131728182       34.58046408482339
C           15.35463442739856       55.14869396500500       35.03312452057844
C           17.27428471956302       53.73023302777325       35.71318134205364
C           17.84386349957453       52.42683963983423       35.95407358227641
C           19.15990095140291       52.63272164763367       36.29288692689235
C           19.35115187718163       54.07196176336599       36.24679318254301
C           20.73284010731101       56.05274542063874       36.62617483895393
C           21.96064291732618       56.68238336853455       37.04436355520050
C           21.70711718118912       58.02162967714395       37.08878952692909
C           20.33914373417581       58.19026052354473       36.66187822154882
C           19.71848231809185       59.41186282252973       36.48259824024525
H           20.30513900712688       60.28718750522202       36.71309952140834
C           15.31142060499116       58.65894754569246       34.69432436129382
H           14.51906142916543       59.29564678207143       34.32789076238392
C           15.95890689739418       53.93706327203447       35.31601910731887
H           15.35859105179320       53.05107513040404       35.19481609157140
C           20.55523309805831       54.68776448454398       36.53527662118598
H           21.41880934714253       54.07491631331143       36.73667216564727
C           15.69352150998938       61.72787741631051       34.69955960249705
H           16.20129823425073       62.67409551528876       34.53208383124612
H           14.92569135544526       61.88051884481979       35.45933890494210
H           15.20215047268750       61.43113158434693       33.77633964467655
C           18.57283695440282       62.21937678053509       35.89842012778223
H           18.98503484445396       62.58982329319517       34.95853942938844
H           19.38298755909008       62.14168906104145       36.61627501039028
H           17.85798098267873       62.95170171249274       36.26737526007263
C           12.54493167085059       57.31334204267410       33.94625770671946
H           12.62298107737846       58.39260789651136       33.87661521331444
H           11.75499310335683       57.07157180151192       34.65878817230273
H           12.23441046632701       56.92646549615163       32.97419440216677
C           12.91507092715857       54.37918643635090       34.36900492950181
H           12.19042930497976       54.67076953183237       33.61932555811431
C           12.72803272693742       53.26270717379886       35.07178100625317
H           13.39899385783744       52.99917398414453       35.86862371603372
H           11.88551435211980       52.62059994612231       34.89083955195817
C           17.11438898967604       51.13440731524119       35.83110260471668
H           16.19927504063450       51.24931504196579       35.25746616155468
H           16.85485267082782       50.74539738408906       36.81730312490581
H           17.73484197810642       50.40041523673219       35.32218385287204
C           20.20593723275697       51.71359682059757       36.66757608044473
H           21.16598768992709       52.16807797303909       36.87364254426836
C           20.12560590523463       50.38828731614979       36.79701415592019
H           19.21574772432096       49.84268843923433       36.64362817640745
H           20.98655056073546       49.80736126121614       37.07724278381265
C           23.26173022991640       56.04529643956032       37.39889257198412
H           23.34739299220488       55.03664941186539       37.00858669988898
H           23.38574417160211       56.00693400014227       38.48274464235110
H           24.08050728769398       56.64163435772362       36.99798879735233
C           22.69816396102837       59.05221104225841       37.50501411648965
H           23.51868749182758       59.09670421816205       36.78717834251434
H           23.12434189137924       58.77780437187162       38.47031618194060
H           22.25817788657223       60.03951938443800       37.58910007693533
C           20.20614214192333       58.24644258759571       30.95081353934591
H           19.53205129346733       58.68463843931416       30.21590414179706
H           20.89048610172254       57.57793325994897       30.43000551841172
H           20.78109992785922       59.04177603798600       31.41255631330625
N           18.63617569996542       56.44601017393067       31.69809782905649
H           18.47726377527784       56.06796086106950       30.77839244140138
C           19.44374888172180       57.51272869912941       31.99264015911380
C           18.09442263328410       56.00940076521589       32.85984182606510
H           17.41477266464472       55.18649137770219       32.93055953513998
N           18.50733682280666       56.73478971391682       33.86821031614247
C           19.35225935834901       57.67023148949133       33.34569046399818
H           19.82592207290090       58.39631087332175       33.97227339201416
C           14.77743220821572       56.80706757483021       40.50554411856105
H           14.99180973433808       57.62669095668085       41.19123723014518
H           14.69595874759929       55.89053078290463       41.08833977669594
H           13.82665422226931       56.99797719857405       40.02097203894091
N           17.14609223598006       56.39909235397511       39.82908735551903
H           17.48617230171236       56.25267751279293       40.76524039038396
C           15.85210011995386       56.69026223902034       39.48551327566956
C           17.87488356343233       56.38076000547585       38.69128693272074
H           18.92049023194553       56.16551539748048       38.65037735635203
N           17.12739506263656       56.64235613513593       37.65013997106735
C           15.86279353300454       56.83487998321304       38.12522954707607
H           15.04361582719601       57.05401863255396       37.47275398320528
87
 energy: -128.459789643482 gnorm: 0.012916191639 xtb: 6.7.1 (edcfbbe)
Fe          17.86375385120093       56.67576913157615       35.75723010492945
N           17.56968308166252       58.64121035164928       35.64562167856759
N           15.99306249051678       56.35064423849298       35.10524230638119
N           18.19118909801403       54.70105922063111       35.89318819598168
N           19.76632358520307       57.00318525064440       36.40238760179861
C           18.44892714128992       59.62074074825276       35.98191784570005
C           17.89462480342697       60.92394362025233       35.69421038479709
C           16.66448312070454       60.70606150923254       35.15706151768875
C           16.47325615414196       59.27192756133017       35.14651640591927
C           15.08503144314963       57.28979845024443       34.71881635302064
C           13.83666098818339       56.67132402671833       34.36869757834062
C           13.99240173916226       55.32165509937983       34.58924951667780
C           15.35805697660195       55.14812660660521       35.02958916521690
C           17.26734768052314       53.72232764798732       35.68843118304866
C           17.83568432396291       52.41931639498482       35.93108220912841
C           19.14835648958709       52.62606949283214       36.28416645535503
C           19.33940372765837       54.06965979100411       36.24339934867516
C           20.72556957054755       56.06457740306958       36.62629888095292
C           21.95637741579447       56.68959819834237       37.04320281826409
C           21.70719887534620       58.03064627457596       37.09138000129639
C           20.34203084399076       58.20620912512400       36.66448763147514
C           19.72137878767720       59.42959259620583       36.48788714598560
H           20.30404351038752       60.30968992113609       36.71510233326674
C           15.31982691739561       58.65672561321226       34.70394789841038
H           14.52554326321565       59.29557536462643       34.34742749133643
C           15.95438745224443       53.93016958801958       35.29201994519569
H           15.34538854104260       53.05141497934588       35.15307146627828
C           20.53533863136745       54.69784957886227       36.53896117427980
H           21.39501544420677       54.08193243220155       36.75229336722669
C           15.68280850440126       61.72755246438120       34.69365627485025
H           16.18237549006650       62.67885908123834       34.52393728350211