87
 energy: -128.467558764935 gnorm: 0.000177660375 xtb: 6.7.1 (edcfbbe)
Fe          17.84354544487768       56.68281209998685       35.76816542715308
N           17.52903034033780       58.65785300716660       35.66809001391312
N           15.96210537007262       56.34930973114108       35.16506794655559
N           18.17576973358348       54.70590554016347       35.83528946723375
N           19.71228348215161       57.01585426188871       36.40633564237758
C           18.39929200962588       59.64198727199621       36.00729074934814
C           17.81725453279385       60.94541760237710       35.76767129549960
C           16.57355137973881       60.72112829252210       35.26704081006128
C           16.40911879232118       59.28374681509052       35.21976400138381
C           15.04276130915415       57.28619907674319       34.81261673530805
C           13.79195802355589       56.66698394016932       34.46268493998134
C           13.96100031122645       55.32032231548484       34.64682635769100
C           15.34108489690769       55.14637916146134       35.05875709949029
C           17.28528631418504       53.72106192335119       35.53499000808039
C           17.90081030211491       52.42397943104243       35.64217363116804
C           19.19849489968697       52.64439580805197       36.02627201497857
C           19.34299843677639       54.08333748725548       36.13357646014965
C           20.65828931171815       56.08153519754320       36.68335700066876
C           21.87398906190583       56.70906215790258       37.15456186602812
C           21.63547641002663       58.04782283839914       37.15612037935449
C           20.28040741462713       58.21877467210705       36.67900604339722
C           19.67711324077841       59.45015043039864       36.50066197252849
H           20.25410589831025       60.32890938430776       36.74712982169284
C           15.25018319081666       58.65639839946910       34.80791095159937
H           14.43222982736883       59.28114368387810       34.48124554335137
C           15.95770961931621       53.91720295293764       35.19259514863487
H           15.35883601058987       53.04161001413074       34.99485278316961
C           20.50362425385196       54.71483885085897       36.54513124755157
H           21.35229453102247       54.09328370449042       36.78864896070361
C           15.53484119823861       61.70172539358921       34.84041861536861
H           15.89807763629137       62.72127941743780       34.94535932004165
H           14.63381452853065       61.59533991831678       35.44557777151628
H           15.26137186112182       61.54063064090765       33.79735215974275
C           18.50894055621139       62.23848141529416       36.03606072934386
H           19.42096193433221       62.31683501819199       35.44332519685407
H           18.78319913337914       62.31488360633359       37.08855851965336
H           17.86679118541263       63.08029281485992       35.78809811719806
C           12.56058479663547       57.39727228262696       34.04893524003030
H           12.76814411560401       58.05228430763008       33.20235818018106
H           12.18568589787394       58.01391440863639       34.86694542441009
H           11.77713189241002       56.69874719816184       33.76527431525443
C           12.96088543488204       54.28910204696641       34.46824731938803
H           12.26933830682104       54.45171900970123       33.64761595819576
C           12.80377053946870       53.21619885496311       35.23606433977262
H           13.42450245620501       53.03434483542068       36.09682208993082
H           12.02798256006470       52.49341346339797       35.04326817465031
C           17.23800208160707       51.12901546973243       35.32196335345758
H           16.55089706027555       51.24256384713846       34.48470142655204
H           16.66730536535722       50.76117338487652       36.17654994219061
H           17.98484456363704       50.38119314056946       35.06182673279302
C           20.25845953534035       51.69042130314663       36.26161299043002
H           21.25790575710534       52.03480965234420       36.02077847364088
C           20.10356198492812       50.46190140892816       36.74623951284408
H           19.14378772679207       50.08124196904367       37.04871519068968
H           20.94300116724500       49.79990712756181       36.88187665446527
C           23.10815059442731       55.96883684924282       37.54404674029264
H           23.49654586757178       55.40041067043220       36.69843730301314
H           22.89845805682126       55.26811957581166       38.35289297038037
H           23.88243086172686       56.65532659589958       37.87828129774337
C           22.53773814456853       59.16799257597999       37.54835177379447
H           22.72408030947043       59.82656017769975       36.69931200826957
H           23.49367801615717       58.78988358452177       37.90287238677904
H           22.08734386385762       59.76263556875555       38.34347488905491
C           20.36665874482408       57.85429772428382       30.91807274695526
H           19.75035407410048       58.20148128353886       30.08864331948013
H           21.08352767579715       57.13052468478417       30.53006397329892
H           20.91192789503771       58.70046454559260       31.32432040846001
N           18.72548219944722       56.15845951278118       31.75649823694484
H           18.62543064440047       55.67212710849909       30.88073147746461
C           19.52702589681962       57.24735285544772       31.98204375223118
C           18.10275411128545       55.86137800297335       32.91966976796329
H           17.41241225684155       55.05220856982857       33.04099673538175
N           18.46070752942535       56.69404931251793       33.86553616805288
C           19.34575188963893       57.56205978453391       33.29812953854682
H           19.78929678073911       58.34878365896483       33.87214569282570
C           15.04171930181557       57.44249129392318       40.54560675275437
H           15.53684227878868       57.97459712404333       41.35803150062389
H           14.52356449917717       56.58151117087095       40.96812632773982
H           14.30776649702016       58.10233278715092       40.09364278786096
N           17.07162742968140       56.17718927459626       39.80325103367105
H           17.27823496224702       55.77850273100413       40.70428389065114
C           16.02446938311439       57.01445623306373       39.51783271022076
C           17.76657196843149       55.98676087201994       38.65877936746455
H           18.64053138431014       55.37338873616077       38.58217734679923
N           17.22424616051209       56.65122848300213       37.66865375666321
C           16.14026954207653       57.29561244448752       38.18687985256378
H           15.52100755468172       57.91387821950752       37.57083341839546
