72
 energy: -105.902312195660 gnorm: 0.258639577738 xtb: 6.7.1 (edcfbbe)
Fe          44.05500000000000        4.31200000000000       17.13100000000000
N           45.79400000000000        3.72500000000000       16.29800000000000
N           44.50900000000000        3.26300000000000       18.77900000000000
N           42.20700000000000        4.63900000000000       17.81300000000000
N           43.48000000000000        5.07300000000000       15.41300000000000
C           46.28700000000000        4.13200000000000       15.04900000000000
C           47.64700000000000        3.66000000000000       14.89300000000000
C           47.97900000000000        3.05400000000000       16.03200000000000
C           46.84099999999999        3.07000000000000       16.90500000000000
C           45.74199999999999        2.67800000000000       19.04400000000000
C           45.71900000000000        2.13500000000000       20.38900000000000
C           44.52700000000000        2.41000000000000       20.92300000000000
C           43.75200000000000        3.11400000000000       19.92500000000000
C           41.78300000000000        4.33600000000000       19.11300000000000
C           40.47500000000000        4.91400000000000       19.32400000000000
C           40.09800000000000        5.49700000000000       18.19500000000000
C           41.17200000000000        5.36200000000000       17.24700000000000
C           42.25100000000000        5.66600000000000       15.12600000000000
C           42.27400000000000        6.09100000000000       13.74900000000000
C           43.46700000000000        5.80300000000000       13.21600000000000
C           44.25000000000000        5.18800000000000       14.23800000000000
C           45.53899999999999        4.76700000000000       14.07900000000000
H           46.01300000000000        4.94600000000000       13.11400000000000
C           46.81400000000000        2.56200000000000       18.20100000000000
H           47.69899999999999        2.04100000000000       18.56600000000000
C           42.47900000000000        3.61200000000000       20.09100000000000
H           41.98099999999999        3.43200000000000       21.04400000000000
C           41.15800000000000        5.81300000000000       15.94300000000000
H           40.26200000000000        6.29500000000000       15.55400000000000
C           49.33600000000000        2.40500000000000       16.32400000000000
H           50.13099999999999        2.93700000000000       15.75800000000000
H           49.31900000000000        1.34000000000000       16.00700000000000
H           49.55900000000000        2.47400000000000       17.41000000000000
C           48.54899999999999        3.88400000000000       13.67900000000000
H           49.12499999999999        4.82500000000000       13.81300000000000
H           47.92900000000000        3.96900000000000       12.76100000000000
H           49.26100000000000        3.03700000000000       13.57900000000000
C           46.94500000000000        1.41900000000000       20.99200000000000
H           47.67600000000000        2.17400000000000       21.35200000000000
H           47.43100000000000        0.78900000000000       20.21700000000000
H           46.62700000000000        0.78800000000000       21.85000000000000
C           43.93899999999999        2.07400000000000       22.31200000000000
H           42.87100000000000        2.26900000000000       22.48600000000000
C           44.61000000000000        1.56700000000000       23.32300000000000
H           45.70700000000000        1.49600000000000       23.28600000000000
H           44.08299999999999        1.20700000000000       24.21900000000000
C           39.63400000000000        4.81400000000000       20.63500000000000
H           39.88000000000000        5.67000000000000       21.29900000000000
H           39.87400000000000        3.86700000000000       21.16400000000000
H           38.55099999999999        4.84800000000000       20.39000000000000
C           38.75800000000000        6.22100000000000       18.00900000000000
H           38.23699999999999        6.61400000000000       18.89400000000000
C           38.17399999999999        6.40900000000000       16.83300000000000
H           38.55500000000000        5.90300000000000       15.93300000000000
H           37.30200000000000        7.07300000000000       16.74300000000000
C           41.05200000000000        6.76300000000000       13.07100000000000
H           40.79600000000000        7.69900000000000       13.61200000000000
H           40.17899999999999        6.07600000000000       13.10500000000000
H           41.29800000000000        7.01300000000000       12.01700000000000
C           43.95300000000000        6.14300000000000       11.79400000000000
H           44.44600000000000        7.13900000000000       11.79900000000000
H           43.08700000000000        6.17300000000000       11.09800000000000
H           44.68600000000000        5.38000000000000       11.45500000000000
O           42.95700000000000        2.27200000000000       16.56600000000000
H           42.11900000000000        2.28600000000000       17.02900000000000
H           43.25400000000000        1.62300000000000       16.03600000000000
C           46.41599999999999        6.68900000000000       17.67700000000000
H           46.95900000000000        7.32600000000000       18.40700000000000
H           46.34400000000000        7.24800000000000       16.72000000000000
H           47.01400000000000        5.76700000000000       17.51500000000000
S           44.76700000000000        6.26500000000000       18.27600000000000
H           45.19700000000000        5.45900000000000       19.23600000000000
72
 energy: -105.951204556413 gnorm: 0.105132124107 xtb: 6.7.1 (edcfbbe)
Fe          44.01140400607454        4.24164779177338       17.10832064013016
N           45.81349345077022        3.75637163116977       16.30412348506414
N           44.51997229410794        3.27324908834331       18.79483161471195
N           42.19359969715081        4.65734946816142       17.84623325606576
N           43.48506560077821        5.09114274233462       15.40435818447544
C           46.28511799787907        4.11913595509248       15.05452247800600
C           47.64903358035823        3.66834975374647       14.88726692594702
C           47.99049860289753        3.04216937394702       16.03696024841781
C           46.84346384685867        3.08640488540421       16.90788674902765
C           45.72928786164956        2.66998820448883       19.05615918086230
C           45.72798482752462        2.13107999441200       20.40352112169048
C           44.51401981529298        2.41236406491541       20.94779238760898
C           43.75935921983790        3.12126181672231       19.92636485811438
C           41.77474506687818        4.35054423084748       19.12504027589006
C           40.45682667894865        4.90028309191255       19.34649163514620
C           40.06933969840520        5.50148009293486       18.19415320088067
C           41.16404488283149        5.35166781390474       17.25893606139205
C           42.26679568330773        5.65953791618075       15.11059899077899
C           42.25574626679482        6.10578239240731       13.73653198410261
C           43.46450338432754        5.81982202393418       13.20310608482433
C           44.23712552211845        5.19463209667543       14.24399561282763
C           45.53519415069712        4.76363231607464       14.09003106371014
H           46.00957654669318        4.94720873257963       13.13153720409482
C           46.80282074271377        2.56734957472929       18.19670587189154
H           47.68612979489986        2.05228295962863       18.55557751860218
C           42.48008307991351        3.62070146283549       20.07882353497456
H           41.98508657207496        3.44157724018155       21.02537091586398
C           41.18138831225634        5.80324724139870       15.95038867525505
H           40.30467170082430        6.30155013812681       15.56241886784197
C           49.32681601084526        2.40751950483985       16.32961413264407
H           50.11490670341912        2.92621222544210       15.77326869479725
H           49.32103094633177        1.35584742846023       16.02021232841713
H           49.55965088359651        2.46655590717479       17.39630368055747
C           48.53495232275637        3.88801377687772       13.68749151577908
H           49.11300218280964        4.81277086187708       13.80871451957597
H           47.94102287156912        3.96820168913809       12.77300127839765
H           49.23970129425637        3.05652849937186       13.57904023747883
C           46.93200653059787        1.42395694421813       20.98578854194166
H           47.66149955342195        2.16010802518251       21.34612123249891
H           47.41734325219660        0.79865117676581       20.23034550876855
H           46.63735099872464        0.78561949558546       21.82084800601314
C           43.94859668931714        2.07518153468439       22.28842861294324
H           42.88324507953523        2.24949924162240       22.43486636978488
C           44.61491382169967        1.57012925321874       23.31783041451108
H           45.69157518142723        1.47792677160943       23.30467107888634
H           44.09791849830686        1.23766475263763       24.21306608136637
C           39.64602320106430        4.80833605700414       20.62599053356488
H           39.88190549356825        5.65251840310755       21.28447339619731
H           39.86640361335719        3.87865126685916       21.15618877382485
H           38.57768392102702        4.84016957445954       20.39257081423580
C           38.78005000662688        6.22012027260947       17.99739206321905
H           38.29115269672555        6.61582350929134       18.88780710115561
C           38.17369933672042        6.40552313593432       16.83137300926616
H           38.52997298370141        5.92293192411240       15.93160245080900
H           37.29738561792259        7.03946800768315       16.74636867129179
C           41.06148586599846        6.76138896646555       13.07643239062039
H           40.80057571409638        7.68479294954058       13.60429930389599
H           40.19727377851127        6.08843626798862       13.10161229058185
H           41.29074776012466        7.00886665034810       12.03670605455533
C           43.95111392168149        6.13951751272272       11.80777809157553
H           44.43931499898816        7.12159996950146       11.80025014438188
H           43.10767585007288        6.16968126721696       11.11133788324934
H           44.66993544210799        5.39220414317811       11.45899425983754
O           42.96048279035533        2.29752042609751       16.56541270555732
H           42.12118126418336        2.27758901098977       17.02224021711293
H           43.25576697123540        1.59366408266869       16.01771299151180
C           46.43629354666326        6.68909729871648       17.67515082833994
H           46.94792317498894        7.32358924239313       18.40743994233987
H           46.34012887419254        7.23586977502883       16.73305885435216
H           47.01284650410624        5.77520042994520       17.50956535812090
S           44.77457556183956        6.25175296844158       18.24858874822493
H           45.19748940446394        5.47748570412616       19.24699225961731
72
 energy: -105.964703070362 gnorm: 0.025120435090 xtb: 6.7.1 (edcfbbe)
Fe          43.99772545401665        4.22231199772003       17.10690239541317
N           45.81542415904622        3.75758194074259       16.29919633142124
N           44.51845522925731        3.26087251787642       18.79998006508241
N           42.18300122930205        4.65433547331902       17.86774066536683
N           43.48122557440439        5.08142035305063       15.38976344880703
C           46.27843788694076        4.11063756068953       15.06565608862573
C           47.64344434569340        3.67187904564581       14.88816416228246
C           47.99384659679877        3.03707507565837       16.04362029166139
C           46.83853954603990        3.09886174649348       16.91088240123941
C           45.71472488828057        2.66273241928344       19.06443297237907
C           45.73072117979673        2.12504678486903       20.40767218461529
C           44.50411017090261        2.41064273384144       20.96101724931341
C           43.76316004158514        3.12353412953018       19.92497345685510
C           41.76766448372459        4.35833102475931       19.13078302812532
C           40.44629014791546        4.89162160220223       19.35847418385878
C           40.05437564719137        5.50026658752963       18.19074030936495
C           41.16538371183205        5.33554119851114       17.26914058638138
C           42.28124816628100        5.64811115980310       15.10132677780641
C           42.24529546032414        6.11532080909938       13.73115898594860
C           43.46428634963586        5.83180017640416       13.19828011131112
C           44.22620758210149        5.19524168497053       14.25251589071968
C           45.53252642350964        4.76787809854028       14.10493537878165
H           46.00721455599179        4.95274433885012       13.15159131872173
C           46.79093751023305        2.57942749326513       18.19456415431046
H           47.67306374838878        2.06656955400128       18.54639772873024
C           42.48341367044794        3.63162427120428       20.07155459300450
H           41.99124890583155        3.45673888504245       21.01548523143077
C           41.21019149787286        5.79655839524996       15.96426942737334
H           40.35077613990772        6.31663147168154       15.57980804445650
C           49.31452227888409        2.41080131224117       16.33875094761389
H           50.10032613005441        2.92055849260820       15.78726493240590
H           49.31717661847666        1.36407424684505       16.03612663966948
H           49.55297464586346        2.46161192295800       17.39591095626403
C           48.51603619247035        3.89059207520520       13.69724409541922
H           49.09480297238563        4.80803499083440       13.81040052667343
H           47.93589568459998        3.96922570903982       12.78400755394609
H           49.21755802202098        3.06745144354804       13.58406000610890
C           46.91532521892210        1.42417929846002       20.97848124504307
H           47.64391328107950        2.14885677343212       21.34427410124169
H           47.40224618659395        0.80948888070657       20.22628723699854
H           46.63341599624555        0.77598495713565       21.79856080245507
C           43.96166994212918        2.07213812280378       22.25585177440405
H           42.89438368439349        2.22259097380964       22.37133518991508
C           44.61810152515898        1.58107697672634       23.30742154101760
H           45.68300194877200        1.46277454946547       23.32114601234575
H           44.10123037636173        1.28388320420892       24.20523571601883
C           39.65628572149298        4.80069448525283       20.61497405160354
H           39.89035548120160        5.63713914686757       21.27305499200765
H           39.86497509775860        3.88084201154011       21.15095886269881
H           38.59326718001877        4.83284375063075       20.39427650467671
C           38.80941830188727        6.21092635124821       17.98570909539401
H           38.36115735752072        6.62490378833453       18.88393787249554
C           38.17222529530073        6.39419942364630       16.83199173003469
H           38.50683099666345        5.94081706884599       15.91933685928673
H           37.28382098188419        6.99915771523761       16.76339228320918
C           41.07161547491665        6.76083671739882       13.08385584104020
H           40.80417005612804        7.67827821491736       13.60342784145117
H           40.20947616072794        6.09679705641593       13.10291386852193
H           41.29068666567363        7.00730019599080       12.05032043774675
C           43.95066154895787        6.13816349810640       11.82274075633255
H           44.44114102247024        7.11129722798454       11.80420895019799
H           43.11935169465983        6.16875596425784       11.12412631935187
H           44.65938510172504        5.39464092297406       11.47195592020178
O           42.97205410675832        2.33972097924994       16.53000389186713
H           42.14242325830441        2.25710812679815       17.00694096045883
H           43.26009303770881        1.57916762923345       16.01869437085664
C           46.45640633897099        6.68878135260486       17.66718407447387
H           46.93986212357999        7.31857572488160       18.40779395864635
H           46.34498774395558        7.23047138850080       16.73575409287335
H           47.01959845301640        5.77911013773204       17.50167514965690
S           44.77859130151347        6.26526983335451       18.23134125024467
H           45.18663848953909        5.51353882813218       19.26104332374243
72
 energy: -105.967926246632 gnorm: 0.030038294601 xtb: 6.7.1 (edcfbbe)
Fe          43.99320065225482        4.21080175856428       17.10375172375407
N           45.81468033521416        3.76449903473444       16.30096828693187
N           44.51679785689924        3.26019144185037       18.80144946492844
N           42.18448663919616        4.64641199610034       17.87376660957544
N           43.48413808617910        5.08171285561951       15.38546710364486
C           46.27396375500733        4.11042623839833       15.06955515456777
C           47.63847108608019        3.67363478812422       14.89322009563974
C           47.99121218892304        3.04226573779634       16.04974381956515
C           46.83439003963617        3.10582540487194       16.91435923643019
C           45.71052349616956        2.66205985200635       19.06408700896101
C           45.73043718234154        2.12130747979416       20.40040674262719
C           44.50267706773503        2.40444255863429       20.95556269063212
C           43.76281204836089        3.12258306255914       19.92378605174807
C           41.76746887773598        4.35554180834957       19.13424170897539
C           40.44770583403273        4.88648994352164       19.35853319808357
C           40.06082689981389        5.49536699823400       18.18716865361323
C           41.17405099105194        5.32642799012491       17.27151628691462
C           42.28798067898301        5.64920601945578       15.10250860842783
C           42.24951120069492        6.12428733551068       13.73520700705972
C           43.46824242881680        5.84066008698294       13.20152664777081
C           44.22792377977465        5.19663261992246       14.25385171556010
C           45.53350897334931        4.77049497965875       14.10688240864756
H           46.01333029730538        4.96476922764930       13.15957065211627
C           46.78617768614307        2.58457020767964       18.19341918819998
H           47.67033832138382        2.07629843058280       18.54427679115972
C           42.48596767869591        3.63383766676084       20.07538180359090
H           41.99884920534077        3.46962437777741       21.02364758133589
C           41.22580830258357        5.79890883629415       15.97340270462293
H           40.37855124424223        6.34588173837432       15.59873652912394
C           49.30684720394729        2.41199286630708       16.35197578988325
H           50.09672011502536        2.91805795322738       15.80166976101369
H           49.30807131319681        1.36281297347430       16.05344537189304
H           49.54235342409064        2.46220817957873       17.41107444508219
C           48.50284473307010        3.89342033942824       13.69955480337077
H           49.07885065791001        4.81371473491251       13.81050718003968
H           47.91763972369257        3.97056053991997       12.78827232498221
H           49.20458428723617        3.07020215843081       13.58551363583645
C           46.90835290125939        1.41020062376442       20.96586685807174
H           47.63329544644761        2.12947823418594       21.35253672115779
H           47.40069655813735        0.81302934673716       20.20157183032105
H           46.62291340346958        0.74078430085729       21.76978371667479
C           43.95819522427371        2.05833579121112       22.24091454042092
H           42.88457859776451        2.18739435798688       22.33160029195804
C           44.60623503794275        1.59203187848725       23.31028998416203
H           45.67224958072583        1.47731703131244       23.35041323578277
H           44.08013515164802        1.32950973625261       24.21414630020511
C           39.65875010393497        4.79205416131170       20.61542503816955
H           39.89848202018165        5.62628011598401       21.27648576179784
H           39.86619739227852        3.86954151553934       21.15079292624672
H           38.59397185550998        4.82692549495609       20.39844797906690
C           38.82642613527843        6.21410584850557       17.97908186371453
H           38.40336428388881        6.64243766777857       18.88335837608160
C           38.16429987063562        6.38805384821038       16.83652760047790
H           38.47429699160308        5.93541507647278       15.91234545705650
H           37.25448261390727        6.96590281029252       16.79103181541284
C           41.07444390386343        6.76749929442806       13.08968043628458
H           40.80363062459642        7.68559679128910       13.60883254048993
H           40.21183654216911        6.10200365002698       13.10878540845260
H           41.29243174283967        7.01396406089016       12.05454797893504
C           43.95610034112601        6.13988762096553       11.82723983289471
H           44.45526118650798        7.10956440006601       11.80429336686804
H           43.12437243696856        6.17347466960132       11.12770955504717
H           44.65925148816333        5.38751471242396       11.48108459457950
O           42.95953162629746        2.37476146082044       16.43440807253096
H           42.18110389482323        2.20779158146227       17.00190357340063
H           43.28742846828898        1.54953587518882       16.02733984581582
C           46.46961868555736        6.68778568141399       17.65775426862961
H           46.93932272331160        7.31819353018871       18.40690145266831
H           46.36319817510474        7.22856918584268       16.72529865627173
H           47.03386745784463        5.77739890085723       17.49804197167056
S           44.77933715331527        6.26883301867583       18.20339969180830
H           45.17139608822200        5.56469750480102       19.27914967056402
72
 energy: -105.969981944772 gnorm: 0.018727043975 xtb: 6.7.1 (edcfbbe)
Fe          43.99426031128252        4.20720309930278       17.10070708207703
N           45.80910380479741        3.76841270562668       16.30188882859264
N           44.50943010151339        3.25121779837281       18.79568952462466
N           42.19101910773625        4.63616967319072       17.87703070301396
N           43.48869740468137        5.08724662652205       15.38434299091109
C           46.26872478821098        4.11286412245315       15.07241143509403
C           47.63266298485909        3.67513131775449       14.89889599783037
C           47.98623600851473        3.04960883251052       16.05568261872759
C           46.82872352732088        3.11219316606249       16.91756600608540
C           45.70519491220838        2.65737837689934       19.05988427234278
C           45.72581308900015        2.11235514579646       20.38941816956314
C           44.49941033889957        2.39228636919303       20.94425086931098
C           43.75873416347644        3.11514734939849       19.91980308186048
C           41.76880628278921        4.34899850447686       19.13737036383215
C           40.45265812191112        4.88299957005208       19.35756201866288
C           40.07395458665468        5.49207797332691       18.18565622622170
C           41.18711266638410        5.32061109998119       17.27463597383326
C           42.29329495496130        5.65726471763314       15.10690454454178
C           42.25611010906442        6.13597701997812       13.74145199759654
C           43.47201668657172        5.85070265033646       13.20614790550920
C           44.23198541886931        5.20164014477017       14.25428991065280
C           45.53579153191644        4.77701931880121       14.10725002252577
H           46.02161332164780        4.97967427371947       13.16569736105028
C           46.78220269087510        2.58903789055170       18.19249440744832
H           47.67033599342879        2.08899118536863       18.54453599483132
C           42.48772688731453        3.63324872189182       20.08179405649166
H           42.00835641274266        3.48581396767328       21.03735973787466
C           41.24002044064066        5.80877458200660       15.98487812940808
H           40.40033135576165        6.37812313035818       15.62404893502517
C           49.29820691345032        2.41421666331174       16.36902886617165
H           50.09516562016584        2.91430600859746       15.82082110007406
H           49.29546280360007        1.36139305070012       16.07705045152834
H           49.52688540475236        2.46795580941389       17.43151001781724
C           48.48892335609540        3.89629485305729       13.69968425144660
H           49.06015293726630        4.82150622212880       13.80640577341357
H           47.89420610835780        3.96977849224153       12.79220298765765
H           49.19286501685037        3.07409246027563       13.58335573671934
C           46.89687405843755        1.38891860437052       20.95605442549690
H           47.61667838763523        2.10059271447505       21.37100056437635
H           47.40005343219937        0.81174681866358       20.18031862352126
H           46.59675252243670        0.70003420070326       21.74178872806346
C           43.95053171793447        2.04479735760112       22.23001932891748
H           42.87003838326569        2.14383690681906       22.29615898009648
C           44.59493164503168        1.61756990607073       23.31729695652779
H           45.66299478279566        1.50588353567516       23.37511077081312
H           44.05823988032871        1.37103639655896       24.21888117488554
C           39.66148852424210        4.78234640763876       20.61729425199891
H           39.90841037105368        5.61201774084396       21.28426981666754
H           39.86843379178056        3.85342023306431       21.14611202966864
H           38.59508757963157        4.82186140399229       20.40225764280203
C           38.83796870261995        6.21238442093104       17.97579600868056
H           38.44137791587531        6.66278569479137       18.88275409431558
C           38.14776665893884        6.36399755372270       16.84663684027176
H           38.44033495313395        5.91576649425193       15.91140060206316
H           37.23443854609423        6.93649218480851       16.82074064111873
C           41.07672535544184        6.77818605023513       13.09660799925992
H           40.80378989585720        7.69718067486482       13.61652909218635
H           40.21523894073631        6.10872723793947       13.11845651557553
H           41.29394857598464        7.02433899432014       12.05930400059523
C           43.96306538145808        6.14131409930927       11.82973701489919
H           44.47537386215829        7.10572491333885       11.80246380172260
H           43.13052016035866        6.18099454766751       11.12921588675596
H           44.65828553263822        5.37619333603622       11.48953073411522
O           42.98890820464020        2.36564386354010       16.39274091095758
H           42.21931210514805        2.18693893276236       16.94423959845180
H           43.31358825547969        1.53302506091288       16.01795244705051
C           46.48171487309244        6.68688682916591       17.64386047615769
H           46.94061602326779        7.31779988268836       18.40026758646339
H           46.38894515831108        7.22658676727154       16.70781527026478
H           47.04849186135528        5.77444417885778       17.49350894125413
S           44.77773658581930        6.27806599439730       18.16791970591602
H           45.15014121024641        5.62874716797487       19.29125018772019
72
 energy: -105.970966799549 gnorm: 0.028447786530 xtb: 6.7.1 (edcfbbe)
Fe          44.00175253562359        4.21500268150571       17.09985652267642
N           45.80205047868147        3.77234830729731       16.30248357259080
N           44.50441549824105        3.24758657558121       18.79013514803200
N           42.19970288469725        4.62801359806980       17.87803439868874
N           43.49154192157665        5.09515356324733       15.38538893121594
C           46.26452610522382        4.11786332246854       15.07428913518547
C           47.62845049495719        3.67733697330561       14.90204540677090
C           47.98163862372019        3.05631810240149       16.05935923200877
C           46.82333238525643        3.11814238093383       16.91960241782858
C           45.69972282406491        2.65039394649791       19.05539969537921
C           45.71699906848881        2.09735140100343       20.38012847891292
C           44.49234157954356        2.37651506779205       20.93385543444719
C           43.75423418891851        3.10634358775864       19.91509953719613
C           41.77146104525383        4.34281421458278       19.13920392850308
C           40.45804207889876        4.88166635135408       19.35775009160124
C           40.08760248885566        5.49521229257996       18.18818423491353
C           41.20027424818187        5.32201747330544       17.27941763022078
C           42.29659743848322        5.67217041887124       15.11182095016695
C           42.26109063305185        6.15078096213121       13.74663280241569