81
 energy: -118.391914269178 gnorm: 0.000042311478 xtb: 6.7.1 (edcfbbe)
Fe         -14.10260879732055       11.54422889785861       95.90641487298655
N          -12.51569450991684       12.64175531455703       95.37524473276477
N          -13.85250814738544       10.40155447435717       94.27277914919911
N          -15.69253387704226       10.44619037761202       96.43460972905866
N          -14.35978664028149       12.69414385782138       97.51449505020138
C          -11.96125365019207       13.66550976284658       96.07374958060356
C          -10.82137876082408       14.20818967881034       95.36835472491308
C          -10.71515364725818       13.49903033381146       94.21287125452970
C          -11.78187731522473       12.52285683269853       94.23674127052591
C          -12.95534133310656       10.59729614277823       93.26795663369259
C          -13.10223972253834        9.59234170238297       92.24770679161972
C          -14.11496467547614        8.76732429974222       92.66169881525060
C          -14.58148750447597        9.31065493265405       93.92219866933512
C          -16.15684759817468        9.33039267830137       95.80837857797935
C          -17.32098309122679        8.81318864854580       96.48072800440872
C          -17.56708686579512        9.66122350098752       97.52771903336675
C          -16.52134904812010       10.66472145483206       97.48408876146698
C          -15.37127707968100       12.61819331733570       98.41586797302995
C          -15.22102316124172       13.63009864174001       99.43954064342813
C          -14.08229259455880       14.30888007914805       99.14020073178530
C          -13.56392231152082       13.71389623837833       97.92746824287281
C          -12.43040912267955       14.16167704419092       97.27630404008168
H          -11.88597045922251       14.97852097031202       97.72502972402221
C          -11.99057665685050       11.59033217665166       93.24038061769370
H          -11.33176605280407       11.62091245845746       92.38617911178511
C          -15.62898023346697        8.78093132879003       94.65229413369207
H          -16.10423578535725        7.89242249485576       94.26579199709651
C          -16.39606238962419       11.69279070254604       98.39884393730507
H          -17.14058683891658       11.76416050887837       99.17656925107293
C           -9.72439012065270       13.63561796157841       93.10804266243326
H           -9.15201323225633       12.71509702387609       92.98916313239793
H           -9.02917671620839       14.44684110106749       93.30985316368591
H          -10.22909673526765       13.84349261372910       92.16421923677773
C           -9.97930201008331       15.33119888480909       95.86935739735259
H           -9.55877685381442       15.08849859290113       96.84536869927851
H          -10.57255285044415       16.24027151112800       95.97468763669501
H           -9.15974426669610       15.53556719313850       95.18472384509519
C          -12.32582352869674        9.54039361486922       90.97846470296187
H          -11.35600294622162        9.06353071096551       91.13216434328497
H          -12.15047491156578       10.54397896195681       90.59363878765630
H          -12.87281571075575        8.97060407160759       90.22998468241673
C          -14.67280708574245        7.60523662352118       92.00651478835013
H          -15.73443608069805        7.44596131330476       92.15671636478635
C          -13.99211203951276        6.73880318901189       91.26326101084047
H          -12.92885149306498        6.81856304334406       91.11839010079267
H          -14.47561446944587        5.89876704577186       90.79280381332471
C          -18.04118394754597        7.56397683000375       96.10981142700672
H          -17.34066573940146        6.79778956785239       95.78034065889830
H          -18.74840192103436        7.74649723836491       95.29866735008466
H          -18.59372962900427        7.18475633579562       96.96704776392750
C          -18.60981589838112        9.59909892614898       98.52758871555743
H          -18.33441637737727        9.95516110793349       99.51338272242941
C          -19.84679237349169        9.15705016771092       98.32533080911443
H          -20.19002126239712        8.83597748823692       97.35734038106989
H          -20.57120052111762        9.12618824221383       99.12231551689244
C          -16.16271209924242       13.82014973605360      100.57844808476187
H          -16.18533309569553       12.92986518155429      101.20733909845349
H          -17.17388140440011       14.00237093461655      100.21397059725552
H          -15.86187004739632       14.66519396774268      101.19298776388824
C          -13.44007176586691       15.44454419064338       99.86072458458902
H          -14.00723903140336       15.70812922578941      100.74997221392871
H          -13.37946797756285       16.32440038221993       99.21908627372105
H          -12.42787730041638       15.17904406135914      100.16611608425058
C          -18.02239064897071       13.66927410253862       92.58076904046912
H          -17.71142362182596       14.22412728282832       91.69569342244493
H          -18.83828428880024       14.21415161105847       93.05565640465710
H          -18.38888010088650       12.69577084769701       92.27070583767107
N          -16.20798213731841       14.55711497858482       94.06124630169457
H          -16.39989906179944       15.52957468005049       93.88473728608328
C          -16.88681199427425       13.49614733942875       93.52141666704752
C          -15.24492527864431       14.05952344669414       94.86904480715145
H          -14.55673004945456       14.66089493812357       95.42652494167115
N          -15.27336197600673       12.74919180444181       94.87299399451412
C          -16.28843529251488       12.38368191623167       94.03962212065611
H          -16.51892057732267       11.35270066329912       93.86989422549343
C          -11.14502159276927        9.85645696158083       96.31592013625779
H          -10.63020263695608        8.97036430572482       96.67465534674875
H          -10.56826124592313       10.74536710487593       96.54907008395404
H          -11.32392224029296        9.80540852759839       95.24756129190057
S          -12.73708423769237       10.02301793341280       97.19623689097413
H          -13.26959370547299        8.90119566313152       96.70322073087128
