78
 energy: -116.058045769904 gnorm: 0.000059739697 xtb: 6.7.1 (edcfbbe)
Fe          28.13230677477599       94.07021350246869       52.90556567751649
N           29.09145537150277       95.72204450303919       52.33804110257089
N           29.19470150964193       94.04330314905049       54.61952660339076
N           27.12659887947382       92.43448761989531       53.51615250411763
N           27.03708177893170       94.12195436912454       51.24396453741583
C           28.91822063243860       96.40587717265977       51.17920720747284
C           29.80664013422226       97.54689944957985       51.11806670364872
C           30.52203450125829       97.53568623517143       52.27339877350197
C           30.06222687744576       96.38532107645618       53.02227540902233
C           30.16664671301274       94.92300650619102       54.99240373376387
C           30.74126918326135       94.54688202998545       56.25644177521259
C           30.10180351162878       93.39765091665937       56.64438565269634
C           29.13443757519829       93.10786626006495       55.60509852404604
C           27.34956392634389       91.71271383335348       54.65107883166446
C           26.47058121117913       90.57447883769450       54.71434233501455
C           25.70461861994100       90.61511036215096       53.57828977585566
C           26.13507454740553       91.78995280743197       52.84792553482200
C           26.05007677323437       93.25991185128892       50.88496348965468
C           25.49774142457969       93.62023620294235       49.59593735094108
C           26.18080540198312       94.72043063982956       49.18478586949491
C           27.13775271044850       95.01808888628543       50.22962083009526
C           28.01562563049583       96.08288668620158       50.18424981570725
H           27.98502741893682       96.71868705252122       49.31269860657528
C           30.56908592302915       96.02472106297026       54.25486046032664
H           31.35177179408796       96.64159636925947       54.66960012946161
C           28.28816976248755       92.01605881221774       55.62189306154795
H           28.37246174220549       91.33615266327155       56.45550244682440
C           25.62336791100982       92.17054897827107       51.62031895117220
H           24.84004858147196       91.56145914589807       51.19570988290388
C           31.57481137838666       98.48044249776305       52.74361165062942
H           31.74724901666740       99.26306289806560       52.00900834897154
H           32.51608038829028       97.95648649619321       52.91332836388159
H           31.27633932236674       98.95062916100370       53.68086796461245
C           29.86387940158823       98.50752038391161       49.98038392418652
H           28.89895936910864       98.99624894106674       49.84516731597104
H           30.11349551442900       97.99017009498390       49.05374889895909
H           30.61399512494176       99.27441174606589       50.15769781453675
C           31.77303123828569       95.32592611489328       56.99546467881027
H           31.60945348203489       96.39554740616416       56.87296014317588
H           32.77498348142582       95.09394959685437       56.62994024801539
H           31.73186606851307       95.08666086527614       58.05621295094618
C           30.28269567835495       92.61262266417678       57.84492376117945
H           29.39074881942108       92.13021383823275       58.22796393919877
C           31.43245283127429       92.43866679373842       58.48884667206245
H           32.35901140737193       92.85225342808812       58.13088814945114
H           31.48972718330276       91.84941546633890       59.38900622384450
C           26.39126949591281       89.61347628270939       55.84878356141537
H           26.51800326373017       90.12766723547664       56.80048574654003
H           27.17045994395265       88.85351232704086       55.77033491742236
H           25.42385223277509       89.11528220841802       55.84892440166784
C           24.64997138671745       89.72202856510516       53.15235610930917
H           23.84043252539099       90.18465582523748       52.59939170417998
C           24.60965656601091       88.41267184894690       53.37679664666241
H           25.40736902285650       87.89214670647314       53.87733256552693
H           23.78270638777219       87.80905236493501       53.04113078101076
C           24.39491033475187       92.88229191242488       48.91743667847744
H           23.49478068381471       92.88872634511863       49.53255774233536
H           24.67734700531343       91.84371064355783       48.74250728804599
H           24.15713096451020       93.33806272743641       47.95947937353993
C           26.02850306488056       95.51496131743556       47.93343952895182
H           25.25126470385563       95.09465477918845       47.29988946724267
H           26.96206669158199       95.52613549243746       47.37043680108574
H           25.76139004622454       96.54593741927512       48.16598025587665
O           26.56784758813988       95.29071557682167       54.05927152377216
H           25.94627730184705       94.59198135628284       54.29084013283933
H           27.07262298449198       95.49607598231245       54.85366838246223
C           30.79042508565149       90.10340734543352       50.03046105413391
H           31.38028632665331       89.38198775124353       50.59575199927514
H           31.36205060337066       90.39551185289416       49.14958830465086
H           29.87202097236896       89.62412291479360       49.70646237950901
N           31.43035753431169       92.08780740874313       51.41766150930464
H           32.42463018035505       91.96177383572090       51.32215167844603
C           30.46504520023132       91.28754728422949       50.86496170777031
C           30.80467125416921       93.06500173115974       52.11158313747227
H           31.31222576677392       93.83837242698867       52.65033951335529
N           29.50288768987075       92.93229749209847       52.03158245433920
C           29.27615525033551       91.83145737927438       51.25871421237472
H           28.28040541399201       91.50551028602966       51.04037181613930
