87
 energy: -128.467838541300 gnorm: 0.000056827654 xtb: 6.7.1 (edcfbbe)
Fe          -2.68884358887013       -4.24743950053114      -35.49091610852550
N           -0.89404801790050       -5.02771291343206      -35.92462944471372
N           -3.58500327225457       -5.77053280092276      -36.44047857484335
N           -4.48246449627741       -3.45364994736642      -35.06330457224367
N           -1.79069735508022       -2.73319267729702      -34.53145773727451
C            0.32180477662744       -4.52547443057999      -35.58763749310044
C            1.38288570488046       -5.37201246765750      -36.08839526985080
C            0.77456637644640       -6.40018369958147      -36.73751474805411
C           -0.64920731401190       -6.16741274357874      -36.62251617754847
C           -2.97636567317041       -6.81776575026085      -37.05782845768834
C           -3.94952425044466       -7.71244394513335      -37.62962980066008
C           -5.17890314211943       -7.17731784705628      -37.34643714130780
C           -4.91985271267780       -5.96478806343809      -36.59298019961352
C           -5.69924252851138       -3.94876007063744      -35.41982795400537
C           -6.75910416369593       -3.09921928711982      -34.94125996513167
C           -6.15174371478849       -2.06767205386103      -34.27390511013209
C           -4.72544523784572       -2.31154303910770      -34.37498121372300
C           -2.39809356842627       -1.69781912550157      -33.89721215327398
C           -1.41675673977243       -0.81180495316291      -33.30920715956100
C           -0.19925659794432       -1.33871737987803      -33.60795024870931
C           -0.45522441779374       -2.54048647619003      -34.37128640567654
C            0.53996276436836       -3.36765788521734      -34.86117878838122
H            1.56418948829207       -3.08803071296558      -34.66312056154378
C           -1.60789327714083       -7.00752694723500      -37.15171404573717
H           -1.26198842497330       -7.87909161510309      -37.68677764709493
C           -5.91133012115065       -5.11748820074359      -36.13362224857042
H           -6.93509565993551       -5.39171687743268      -36.34078589673545
C           -3.76194379088349       -1.49331495814555      -33.81453625345403
H           -4.09934269849696       -0.62472871035707      -33.26948201517668
C            1.38372812398278       -7.56325731339421      -37.44340371170230
H            1.06125066789938       -8.50019503556786      -36.98812990406541
H            2.46940695560810       -7.51811552673963      -37.40031768253695
H            1.08234128558772       -7.57611035228840      -38.49110436003382
C            2.83680996133107       -5.10520637032763      -35.89232657555069
H            3.08332844058452       -5.07434067046462      -34.83036511763450
H            3.11385747641325       -4.14576702672862      -36.33022923809555
H            3.43901567008424       -5.88050141456241      -36.35982734189778
C           -3.63694468915469       -8.99536135148557      -38.31846452057360
H           -2.80030208867950       -9.49754932874793      -37.83495755658085
H           -3.36893277570078       -8.82298119099809      -39.36242386725048
H           -4.50209869530180       -9.65497378308838      -38.29071201741141
C           -6.49389970791189       -7.67964575780401      -37.67501282150113
H           -7.27052356122997       -7.47159594060120      -36.94748420735945
C           -6.81309266823676       -8.35046816139475      -38.77776124449921
H           -6.09744867390367       -8.54545199774976      -39.55727801344477
H           -7.81492335734976       -8.70818448534595      -38.94984850056451
C           -8.21088298220099       -3.30264112489319      -35.20633407085230
H           -8.64309768885323       -4.00757687202720      -34.49377912944956
H           -8.37010072124460       -3.69816309314627      -36.20872690471727
H           -8.74239692173393       -2.35715160806876      -35.11717645217971
C           -6.74958017555565       -0.92786027747143      -33.61600708603141
H           -6.17085649876982       -0.01178603787239      -33.65055929806499
C           -7.91864427715142       -0.92396614579503      -32.98283813043373
H           -8.51442175606591       -1.81315139504580      -32.87301235074773
H           -8.30888543748376       -0.02947397792628      -32.52576254900116
C           -1.74859154933893        0.42217838442610      -32.54173364510687
H           -2.37554068779635        0.18234730388374      -31.68257512733693
H           -2.29256631943399        1.12875265423469      -33.16930415598728
H           -0.84574607478616        0.90989174992901      -32.18161720658422
C            1.16049559832934       -0.83684382123479      -33.25744917322982
H            1.09656322202438        0.08125045966485      -32.67841006293662
H            1.73881141528711       -0.63294625488534      -34.15919912570748
H            1.70473695120194       -1.57597327262675      -32.66842041189313
C           -1.23506600303711       -1.01311730329268      -39.82313020948826
H           -1.74880921495822       -0.05931924877774      -39.94391302217607
H           -1.14858666673218       -1.48009299705129      -40.80435912872598
H           -0.23759605772200       -0.82478944487533      -39.43848400463342
N           -3.26419188240649       -2.29395284168774      -39.10575435126034
H           -3.82937013940842       -2.04240168897709      -39.90002100668868
C           -1.97223676080420       -1.89420208346852      -38.88206514054409
C           -3.63407229898350       -3.08009565143896      -38.06973648555358
H           -4.59812272821894       -3.53665653524417      -37.97884861363088
N           -2.65716933585252       -3.20233058899730      -37.20551801168009
C           -1.61676803979118       -2.47088170842077      -37.69674433143936
H           -0.68878741744273       -2.40906196428362      -37.16760264881140
C           -4.18034257908932       -7.40881365417786      -31.12082756210157
H           -4.24443677940139       -6.92827292814162      -30.14445943746415
H           -3.69234982791476       -8.37526291516000      -30.99375294806089
H           -5.18629265139099       -7.57346060989251      -31.49399793696457
N           -2.12389528202201       -6.19206412645922      -31.87159383522148
H           -1.55940974831401       -6.44807793718770      -31.07829301583367
C           -3.42825342338807       -6.55931253660289      -32.07882697791704
C           -1.74295639419855       -5.42784767781383      -32.92008815065032
H           -0.76824101603198       -4.99842186669488      -33.02673476890428
N           -2.72422130478052       -5.28924915307565      -33.77666349680020
C           -3.77905273432502       -5.98715088449861      -33.26764512876021
H           -4.71367852067675       -6.03083953818634      -33.78681483340736
