87
 energy: -128.227662209417 gnorm: 0.463968224831 xtb: 6.7.1 (edcfbbe)
Fe          -2.71000000000000       -4.11400000000000      -35.59300000000000
N           -1.06000000000000       -5.21700000000000      -35.95000000000000
N           -3.76200000000000       -5.99500000000000      -36.46300000000000
N           -4.59700000000000       -3.51700000000000      -35.05200000000000
N           -1.76800000000000       -2.74900000000000      -34.41900000000000
C            0.20100000000000       -4.55600000000000      -35.63100000000000
C            1.23900000000000       -5.64100000000000      -35.70700000000000
C            0.67800000000000       -6.63700000000000      -36.41000000000000
C           -0.78700000000000       -6.35000000000000      -36.61400000000000
C           -3.13100000000000       -7.04500000000000      -37.02200000000000
C           -3.98400000000000       -7.77200000000000      -37.75400000000000
C           -5.28400000000000       -7.02800000000000      -37.76200000000000
C           -5.01500000000000       -5.81900000000000      -36.94100000000000
C           -5.79600000000000       -3.95500000000000      -35.50100000000000
C           -6.76000000000000       -3.24500000000000      -34.93299999999999
C           -6.08000000000000       -2.24600000000000      -34.07099999999999
C           -4.77300000000000       -2.43700000000000      -34.23100000000000
C           -2.40100000000000       -1.71000000000000      -33.85100000000000
C           -1.35900000000000       -0.69300000000000      -33.47500000000000
C           -0.17500000000000       -1.18100000000000      -33.84000000000000
C           -0.47100000000000       -2.42400000000000      -34.60600000000000
C            0.44600000000000       -3.11600000000000      -35.25300000000000
H            1.39100000000000       -2.64300000000000      -35.51800000000000
C           -1.65800000000000       -7.24200000000000      -37.04900000000000
H           -1.27400000000000       -8.17900000000000      -37.45200000000000
C           -5.99200000000000       -5.02800000000000      -36.51600000000000
H           -6.99000000000000       -5.17100000000000      -36.93100000000000
C           -3.70600000000000       -1.58500000000000      -33.62500000000000
H           -4.02300000000000       -0.79700000000000      -32.94200000000000
C            1.38000000000000       -7.89900000000000      -36.85000000000000
H            1.11900000000000       -8.72900000000000      -36.15900000000000
H            2.48000000000000       -7.74400000000000      -36.82800000000000
H            1.05600000000000       -8.17000000000000      -37.87700000000000
C            2.68200000000000       -5.52700000000000      -35.24000000000000
H            2.77400000000000       -4.68500000000000      -34.52100000000000
H            3.34400000000000       -5.33100000000000      -36.11100000000000
H            2.98800000000000       -6.46700000000000      -34.73400000000000
C           -3.77800000000000       -9.16300000000000      -38.31900000000000
H           -2.96300000000000       -9.67300000000000      -37.76200000000000
H           -3.49300000000000       -9.09400000000000      -39.39100000000000
H           -4.71300000000000       -9.75400000000000      -38.21200000000000
C           -6.47000000000000       -7.48800000000000      -38.09900000000000
H           -7.28400000000000       -7.57700000000000      -37.36600000000000
C           -6.70700000000000       -7.90100000000000      -39.53500000000000
H           -5.90200000000000       -7.81700000000000      -40.28000000000000
H           -7.68700000000000       -8.29000000000000      -39.84999999999999
C           -8.25800000000000       -3.39800000000000      -35.09400000000000
H           -8.69400000000000       -3.79100000000000      -34.15100000000000
H           -8.47600000000000       -4.11200000000000      -35.91699999999999
H           -8.71400000000000       -2.41000000000000      -35.31800000000000
C           -6.79600000000000       -1.08500000000000      -33.47100000000000
H           -6.38100000000000       -0.06900000000000      -33.54100000000000
C           -7.94900000000000       -1.26400000000000      -32.84100000000000
H           -8.38800000000000       -2.26900000000000      -32.75500000000000
H           -8.48100000000000       -0.41000000000000      -32.39700000000000
C           -1.58400000000000        0.52600000000000      -32.60800000000000
H           -1.57700000000000        0.22700000000000      -31.53800000000000
H           -2.56800000000000        0.98100000000000      -32.84900000000000
H           -0.77200000000000        1.26400000000000      -32.78000000000000
C            1.19500000000000       -0.65600000000000      -33.43800000000000
H            1.17800000000000       -0.35700000000000      -32.36800000000000
H            1.45300000000000        0.23100000000000      -34.05599999999999
H            1.95800000000000       -1.45100000000000      -33.57800000000000
C           -1.44200000000000       -0.41600000000000      -39.64500000000000
H           -2.18700000000000        0.37300000000000      -39.88099999999999
H           -0.96800000000000       -0.75900000000000      -40.59000000000000
H           -0.67200000000000        0.00800000000000      -38.96600000000000
N           -3.13800000000000       -2.27200000000000      -39.59400000000000
H           -3.48500000000000       -2.08900000000000      -40.51400000000000
C           -2.12500000000000       -1.56200000000000      -38.97900000000000
C           -3.56300000000000       -3.22000000000000      -38.76899999999999
H           -4.35500000000000       -3.93200000000000      -39.00000000000000
N           -2.86600000000000       -3.13900000000000      -37.65200000000000
C           -1.96500000000000       -2.10900000000000      -37.75299999999999
H           -1.29400000000000       -1.86300000000000      -36.94000000000000
C           -3.66600000000000       -7.27000000000000      -30.75100000000000
H           -3.60600000000000       -6.63500000000000      -29.84100000000000
H           -3.07300000000000       -8.19500000000000      -30.58500000000000
H           -4.73000000000000       -7.53000000000000      -30.94000000000000
N           -1.82600000000000       -6.06400000000000      -31.95799999999999
H           -1.15600000000000       -6.20000000000000      -31.22800000000000
C           -3.11400000000000       -6.52000000000000      -31.91900000000000
C           -1.61500000000000       -5.43000000000000      -33.08800000000000
H           -0.67200000000000       -4.96100000000000      -33.36700000000000
N           -2.72200000000000       -5.46700000000000      -33.79600000000000
C           -3.67200000000000       -6.15300000000000      -33.08400000000000
H           -4.66600000000000       -6.31500000000000      -33.48300000000000
87
 energy: -128.366524976046 gnorm: 0.244681525239 xtb: 6.7.1 (edcfbbe)
Fe          -2.73529909802792       -4.19061769224579      -35.58548961524081
N           -1.01718841059982       -5.14442478603110      -35.98064507407511
N           -3.71016708217627       -5.94009729302486      -36.48114738986290
N           -4.56033240534464       -3.50851618407603      -35.06511540232426
N           -1.78278120654360       -2.73718088477718      -34.47420714384735
C            0.21522252383238       -4.56084383509029      -35.62853189821935
C            1.24574462232263       -5.61236287789257      -35.73635704537760
C            0.68389041226760       -6.63981713640613      -36.41278211087301
C           -0.76366013036676       -6.34569212006457      -36.56588199283307
C           -3.10805948688761       -7.01798766737860      -37.02911805334688
C           -4.00839048241411       -7.77495684572523      -37.76482593652911
C           -5.25049562462380       -7.04909449599230      -37.75770101296409
C           -4.99758485924740       -5.86346330850424      -36.91012611996473
C           -5.77513980385042       -3.95436693111311      -35.50901722761438
C           -6.77709091084463       -3.21875622884593      -34.91495856555476
C           -6.12003422399957       -2.23061080819706      -34.09247613243731
C           -4.76092553422496       -2.43931508279659      -34.23422499103946
C           -2.39782170334134       -1.70646055247968      -33.85021096770093
C           -1.36818886918013       -0.70377630996286      -33.44850626373140
C           -0.17567635589834       -1.18334416922954      -33.84699148675924
C           -0.47082817358970       -2.43029442256731      -34.59648863875245
C            0.45631917519027       -3.17060238445237      -35.25322226130407
H            1.39842809525478       -2.68904095937944      -35.50357391186832
C           -1.67343933622319       -7.24164190646131      -37.02706781985274
H           -1.29598894418141       -8.16938881352610      -37.45185543354057
C           -5.97724264001968       -5.01417837428491      -36.49167946706293
H           -6.97371392269767       -5.15594363068381      -36.91253133841483
C           -3.72975469012626       -1.59883625106984      -33.63025470261757
H           -4.04590570090613       -0.80310230909961      -32.96221550263169
C            1.37464357911488       -7.89827409513267      -36.84733109603719
H            1.12345929223530       -8.72520372063149      -36.16792269895852
H            2.46301110004904       -7.74926107703955      -36.83158077602744
H            1.06148869230575       -8.17033694180085      -37.86392262846896
C            2.67027962005958       -5.51907595840836      -35.24498873781548
H            2.77359581897628       -4.69280279689724      -34.53044656581751
H            3.33993999466653       -5.33393304750313      -36.09733112369296
H            2.97997342084631       -6.45041495574359      -34.74562142414630
C           -3.78421541751686       -9.15418566414650      -38.32070912669702
H           -2.97732607708000       -9.66288732558592      -37.77128959020733
H           -3.49953669904224       -9.10041280530515      -39.38097220003270
H           -4.70305793229622       -9.74687715173208      -38.22087713471375
C           -6.49237198233926       -7.51136463114200      -38.16366636534175
H           -7.29330697835841       -7.57413505477260      -37.41642584540335
C           -6.71059276743944       -7.90160465643776      -39.49267726213797
H           -5.92089467539591       -7.81470823142188      -40.24202317574237
H           -7.67115102628233       -8.28273462196003      -39.83134251213449
C           -8.25651146032688       -3.39327635116670      -35.09035345619048
H           -8.69652737709561       -3.78955216951271      -34.16556688222181
H           -8.47410974951902       -4.09819675927228      -35.90461079758200
H           -8.71611145442295       -2.42176487918116      -35.31372241806395
C           -6.80328266178766       -1.09459550928789      -33.46614099754198
H           -6.37443451601141       -0.09123353897685      -33.54103875467455
C           -7.95746218736225       -1.26013602060197      -32.83659053967565
H           -8.39068382949026       -2.24991591782169      -32.74377069086527
H           -8.48467334565061       -0.41873126311939      -32.39841754756787
C           -1.58902903753779        0.52046170141261      -32.60878189947837
H           -1.57986407448184        0.23472320219323      -31.54726391171375
H           -2.55706348858409        0.97920054123557      -32.84356775997647
H           -0.78726486657768        1.25333875892755      -32.77837681181781
C            1.18510804152205       -0.66053488090790      -33.44959713912158
H            1.17631746244868       -0.36264783686844      -32.38912341092034
H            1.45466735209067        0.22029731828068      -34.04971073750736
H            1.94906206808160       -1.43799469401194      -33.58014398750692
C           -1.44372212189375       -0.41394128283123      -39.64843185246006
H           -2.17604808051864        0.37017972733433      -39.88284869275403
H           -0.96979515629108       -0.74886175664826      -40.58142066881623
H           -0.68193169113530        0.00179649906744      -38.97803640878841
N           -3.13215063340029       -2.26547900449090      -39.59678073326996
H           -3.48453560898279       -2.08596495817753      -40.52028207106846
C           -2.12576614592524       -1.55573881744818      -38.98523172988163
C           -3.55264321998461       -3.21875337581316      -38.75042210667076
H           -4.33927721736093       -3.92392855581892      -38.98487532350799
N           -2.86576024802158       -3.14806612789568      -37.62903306000857
C           -1.97320431424680       -2.11615462237946      -37.75563465745753
H           -1.30195042363027       -1.86752504698891      -36.95083956787840
C           -3.66532037283513       -7.27148483696690      -30.74760261375827
H           -3.60864817149575       -6.64607261658076      -29.84586466667904
H           -3.08397197325434       -8.18858751233962      -30.58118470823764
H           -4.71427769398315       -7.52871170330970      -30.93609136569339
N           -1.82496553515908       -6.07147988275359      -31.94071204482258
H           -1.15024102538721       -6.20555735498754      -31.21186842933385
C           -3.11481087736753       -6.52693885620522      -31.91092917336360
C           -1.62317711094730       -5.42846854513535      -33.09005850524752
H           -0.68707686007544       -4.96688276296660      -33.36766398495116
N           -2.72414797654249       -5.45322062400861      -33.80382862007780
C           -3.66561451887038       -6.14330444281096      -33.09144547345340
H           -4.65393309404116       -6.30736824414621      -33.48480402967743
87
 energy: -128.424071060214 gnorm: 0.085146934485 xtb: 6.7.1 (edcfbbe)
Fe          -2.76063171412786       -4.26983964148748      -35.58732160811448
N           -0.98045852296536       -5.09227705745225      -35.98826477070913
N           -3.66726774215793       -5.88049468494014      -36.50361890680230
N           -4.52330574231763       -3.50811342588264      -35.07716220445779
N           -1.79837913275376       -2.72450460112806      -34.53199580732349
C            0.21929612281863       -4.56231349555684      -35.64033895736670
C            1.24749829484961       -5.57963852878571      -35.76854506787813
C            0.67430650183813       -6.64539766929416      -36.40045343654833
C           -0.74573338893714       -6.33872842329541      -36.52138202826494
C           -3.07993019410488       -6.98134255989567      -37.03702105526492
C           -4.03785958756777       -7.76943494789540      -37.75563812943339
C           -5.21596555923850       -7.07447450384728      -37.72247446354888
C           -4.98134808776043       -5.89633237750123      -36.88930925804945
C           -5.74730670762608       -3.96091038318450      -35.51832157894034
C           -6.77626812124457       -3.19374661225079      -34.90298158117272
C           -6.15018862146405       -2.22669949804517      -34.12475402511232
C           -4.74251195876915       -2.44412393717382      -34.24628801227399
C           -2.39645527306377       -1.70543386004018      -33.85633802463894
C           -1.38228135498231       -0.72829451575304      -33.42789777170270
C           -0.18046715032150       -1.19953000784656      -33.85720297423755
C           -0.47445939120649       -2.43311449396879      -34.59853045329029
C            0.45528521337752       -3.22828672364945      -35.25062568288062
H            1.40864629403502       -2.74875230620950      -35.46389137548845
C           -1.69318216097391       -7.22014266242439      -37.01727665731084
H           -1.31898398048545       -8.14613395979086      -37.44578185427672
C           -5.95078261120407       -4.99254799866892      -36.46706397394359
H           -6.94832010950986       -5.14236771577994      -36.88097400005577
C           -3.75795563277012       -1.62023845871370      -33.64944285658855
H           -4.07479716005531       -0.81852779907972      -32.99023260431893
C            1.36449379251791       -7.89515577556748      -36.84074884897384
H            1.12416751124518       -8.72469867778973      -36.17439799259575
H            2.44529727715661       -7.75108657671974      -36.83246443366563
H            1.06183515344648       -8.16818035150155      -37.85152908288060
C            2.65868809428018       -5.50508466177896      -35.25824014795590
H            2.76980153246216       -4.69404460250496      -34.54184443697820
H            3.34430326351712       -5.33255757423617      -36.08985605950506
H            2.96120999482880       -6.43320423551550      -34.76211752242794
C           -3.79025550996604       -9.13730389256387      -38.31772404504406
H           -2.98975168348596       -9.64730430097804      -37.77733891907173
H           -3.50595736909589       -9.09825815167133      -39.37119531962433
H           -4.69536713882888       -9.73830689871443      -38.23017807718630
C           -6.50148153048706       -7.52210497485046      -38.22335379767004
H           -7.28617579715553       -7.57301509992553      -37.46089805667850
C           -6.71072070349446       -7.88419427084067      -39.44744504791146
H           -5.93560962506864       -7.81751994059690      -40.20589495680512
H           -7.65410079022564       -8.27325408208605      -39.80912185770231
C           -8.24575258282185       -3.38781488461227      -35.08922404317283
H           -8.69590110125208       -3.78922198624715      -34.18006191892028
H           -8.46549442795026       -4.08447103136932      -35.89709323237434
H           -8.71892851160829       -2.43047306444563      -35.30800387568753
C           -6.80653714380505       -1.11224863618194      -33.46677275566300
H           -6.36095326135542       -0.12127820766452      -33.54087613778793
C           -7.96482439033526       -1.25672632647561      -32.83271353766279
H           -8.39991893850893       -2.23269433411648      -32.73007241015770
H           -8.48590864677074       -0.42411097096463      -32.39535364817041
C           -1.59638963933472        0.50545670487887      -32.61047903710023
H           -1.58626437350409        0.24246301744849      -31.55045427765463
H           -2.55050768326836        0.97375202494344      -32.84071080271306
H           -0.80179862420803        1.23476933916046      -32.78140851137339
C            1.17080808300006       -0.66913202717734      -33.46419683586869
H            1.16826300985485       -0.36998646477129      -32.41084700789506
H            1.45079630077427        0.20863582526904      -34.05027063140336
H            1.93918557830023       -1.43023453604736      -33.58801944722093
C           -1.44529583922636       -0.41309420402681      -39.64942786330587
H           -2.16709900473522        0.36883906188139      -39.88506769813981
H           -0.97099487445773       -0.74040486252524      -40.57468484708225
H           -0.68885483853738       -0.00314380754498      -38.98651277718722
N           -3.12856173641791       -2.26364624616105      -39.59493174247082
H           -3.48653402691165       -2.08887858301104      -40.52045389227384
C           -2.12700307336876       -1.55265070420878      -38.98684035223337
C           -3.54227570321504       -3.21893092512556      -38.72939271166807
H           -4.32403152328618       -3.91757171303556      -38.96683974360398
N           -2.86267187333675       -3.15483451720254      -37.60880548979154
C           -1.97994187499959       -2.12289515147244      -37.75540957351144
H           -1.30689281842243       -1.86936156891052      -36.96038904899243
C           -3.66601696039965       -7.27262865334358      -30.74801816799143
H           -3.61105720054640       -6.65584596518470      -29.85043099862738
H           -3.09398221965796       -8.18465608263452      -30.57769743738609
H           -4.70404851413658       -7.52934151181949      -30.93352269422675
N           -1.82366161175848       -6.07759571687391      -31.92787336750800
H           -1.14489289845291       -6.21007723318254      -31.19957588301857
C           -3.11579901367830       -6.53119429947538      -31.90934934195305
C           -1.62900194604846       -5.42460106192334      -33.09021201387516
H           -0.69820718148782       -4.97024933808337      -33.36485317266887
N           -2.72168403195650       -5.43426775684752      -33.81122805327776
C           -3.65655163829489       -6.12899991528803      -33.09984274279459
H           -4.64238223683068       -6.29763676824425      -33.48560455291459
87
 energy: -128.439297996211 gnorm: 0.038187396899 xtb: 6.7.1 (edcfbbe)
Fe          -2.76850845398234       -4.30460800483775      -35.59177746905046
N           -0.97135235613976       -5.07518829424104      -36.00878182768768
N           -3.63928276266727       -5.83671425633637      -36.52888767593060
N           -4.50850571824106       -3.50907159900321      -35.09059923288555
N           -1.81238815620345       -2.71296598693497      -34.58446960278039
C            0.22861993723644       -4.56635221054265      -35.64608687014896
C            1.26378474234672       -5.56184083333047      -35.80681164712847
C            0.67466597855412       -6.64435534895574      -36.39806521588748
C           -0.73401301764661       -6.33459423313866      -36.50669954071642
C           -3.05502846938532       -6.94627609056778      -37.05049397951495
C           -4.03072530105837       -7.75689732400996      -37.74458832357657
C           -5.20983388951897       -7.07518256596152      -37.67893630514991
C           -4.96411242988847       -5.89047958817992      -36.87649184865734
C           -5.73057976985233       -3.96066844532862      -35.52245562144453
C           -6.77303869917867       -3.18560581189335      -34.91162107841580
C           -6.15879992326117       -2.22562249464253      -34.14660206780530
C           -4.73792450046273       -2.44213648598142      -34.27270874172998
C           -2.40660218143265       -1.70773020419061      -33.88319150027500
C           -1.39885861786532       -0.75748509377305      -33.42085968264357
C           -0.19505680088467       -1.22077841087219      -33.86428411868810
C           -0.47814002849145       -2.44009508052576      -34.60822019853348
C            0.46663396662985       -3.25897550022074      -35.21908402790012
H            1.46006266495588       -2.82816962448440      -35.35610442775521
C           -1.69024640052449       -7.20328734148399      -37.00978858261110
H           -1.33008741850266       -8.13079701001622      -37.43635900791179
C           -5.92839050386719       -4.98952873487015      -36.44074575320982
H           -6.92877205451074       -5.14409272790282      -36.83234194439797
C           -3.77494425256207       -1.62723983218587      -33.68151420079928
H           -4.11070938780430       -0.82712297450717      -33.03234552386935
C            1.35346103393136       -7.89908890180014      -36.83262343450126
H            1.11675042992743       -8.73157667867260      -36.17014485696873
H            2.43213891171248       -7.75570173587150      -36.83149463607571
H            1.04937686637987       -8.17041901845221      -37.84195850139930
C            2.66331113222544       -5.48325924891036      -35.28545662193278
H            2.76526020146213       -4.67779713118265      -34.56278664882024
H            3.36950334600457       -5.31813014928651      -36.09960388639149
H            2.93838163307727       -6.41554272462571      -34.78741903924288
C           -3.79027993206015       -9.11904329784596      -38.31530434069445
H           -2.99336604134162       -9.62834373267472      -37.77613939924989
H           -3.50825530839051       -9.07871324548197      -39.36775351245597
H           -4.69493041259985       -9.72135140690877      -38.23825240286757
C           -6.50352639661734       -7.51676230000962      -38.19817997378287
H           -7.29903508618755       -7.55038304982949      -37.45633085024834
C           -6.71498861654607       -7.89929202482230      -39.46087659614185
H           -5.93792642213869       -7.83489880736223      -40.20963472964551
H           -7.66514749542359       -8.26508267569980      -39.81905116051896
C           -8.24052976751200       -3.38521577561829      -35.09607599492177
H           -8.69238173623283       -3.79979550379818      -34.19442518854614
H           -8.45249511730489       -4.07273778625227      -35.90977786383766
H           -8.72625561598681       -2.43155223822152      -35.30193257499172
C           -6.81078765187974       -1.12506821359128      -33.46383397533693
H           -6.34021401030351       -0.14849884992724      -33.53060496477743
C           -7.96955221893629       -1.25037236083726      -32.82322789052130
H           -8.42261233046681       -2.21658635407824      -32.70715380034166
H           -8.47971389299415       -0.41421123462948      -32.38062321924782
C           -1.61234507585380        0.47925547478602      -32.60879896450772
H           -1.60335050003208        0.24058616837013      -31.54318747762660
H           -2.56039255390914        0.95615609347713      -32.84301873522217
H           -0.81699708446947        1.20202570561116      -32.79182809532355
C            1.15254629232461       -0.68148259571933      -33.48649403454605
H            1.14994151734345       -0.38136903772606      -32.43641522177649
H            1.43036087110949        0.19593964284100      -34.07194655451380
H            1.92725966006572       -1.43382678846770      -33.61210201611286
C           -1.44884443214604       -0.41456687782127      -39.64961721403648
H           -2.16403447468860        0.37153374345934      -39.88899384633465
H           -0.97151619555930       -0.73651969960359      -40.57415274932204
H           -0.69118188790955       -0.00543715946916      -38.99016940428348
N           -3.12876272470172       -2.27093860238442      -39.58112402058477
H           -3.49196349063576       -2.10285711302522      -40.50665046278093
C           -2.12762441652333       -1.55340846874285      -38.98073524913915
C           -3.53252011537485       -3.22317458435535      -38.70463267526141
H           -4.31116074466672       -3.92324386434897      -38.93314281230127
N           -2.84957254460106       -3.15503057337019      -37.58974426168294
C           -1.97415656529303       -2.12134074371602      -37.74861159566504
H           -1.29673066659097       -1.86258864945994      -36.96260617863363
C           -3.66846398749923       -7.27509467848967      -30.75182198381866
H           -3.61591926178517       -6.66471052290465      -29.85058274031296
H           -3.10272015245273       -8.18913239434969      -30.57613044355473
H           -4.70487441862581       -7.53253939292456      -30.93674606581264
N           -1.82148705284357       -6.07881555909042      -31.91857129109661
H           -1.14349449208318       -6.21655538516230      -31.18807513226381
C           -3.11505596241232       -6.52933740818487      -31.91012195518297
C           -1.62574386956552       -5.41620467720742      -33.07813648757900
H           -0.69560604213374       -4.96522526526346      -33.35117016002226
N           -2.71366611327144       -5.41449133988680      -33.80505120963294
C           -3.64927031537059       -6.11188729401978      -33.09955999661566
H           -4.63370489743346       -6.27643159754184      -33.48747888388734
87
 energy: -128.447145569927 gnorm: 0.028211056652 xtb: 6.7.1 (edcfbbe)
Fe          -2.76077077497160       -4.30283147136422      -35.60300226271738
N           -0.97213440202651       -5.08130904023865      -36.00558385437350
N           -3.63130582981721       -5.81145176032576      -36.54230365074433
N           -4.50244270652253       -3.51475464203891      -35.10516228395775
N           -1.82046244677789       -2.71019695381966      -34.61453166285190
C            0.23444312902482       -4.57034975951037      -35.65146576517702
C            1.27564421906022       -5.55266464095656      -35.83627689696245
C            0.67564007560138       -6.64302415078166      -36.39790738030752
C           -0.72759349244101       -6.33219372435273      -36.49714910433382
C           -3.04066674973579       -6.91760266777034      -37.06504261031252
C           -4.01922750208625       -7.74243639492684      -37.74357879397881
C           -5.21057683420870       -7.07139501267435      -37.65700262151088
C           -4.95535222632097       -5.88526952827511      -36.86768239155867
C           -5.72215189438276       -3.96402328741555      -35.52628174333176
C           -6.77487637681659       -3.18655442877377      -34.92295349026620
C           -6.16364598934264       -2.22723176598818      -34.16242333617696
C           -4.73644078756454       -2.44256137045377      -34.29996149842248
C           -2.41452676925915       -1.71313725085171      -33.90771775361745
C           -1.41493016283888       -0.78343397701472      -33.42137213983023
C           -0.20944386913130       -1.24323883901587      -33.86551440884549
C           -0.48265935493997       -2.44990870921149      -34.61158567898052
C            0.47677923528797       -3.28315771426597      -35.17674779584139
H            1.51036385321484       -2.90774409183508      -35.22181314954942
C           -1.68499085167911       -7.18932627222169      -37.00982167166789
H           -1.33597935724418       -8.12053803753469      -37.43116700891608
C           -5.92134179470880       -5.00111297484359      -36.41979016141924
H           -6.92736106667396       -5.16925381724505      -36.78210186834968
C           -3.78499150065198       -1.62747208801494      -33.71321773506413
H           -4.13912989250636       -0.82560878534951      -33.07757982963882
C            1.34229274682471       -7.90496430771699      -36.82746876819473
H            1.10032867796245       -8.73568372770010      -36.16396156848342