87
 energy: -124.450269172606 gnorm: 0.291961050421 xtb: 6.7.1 (edcfbbe)
Fe          42.44400000000000       13.96700000000000       37.05600000000000
N           43.93500000000000       12.79900000000000       37.93500000000000
N           42.68699999999999       15.40600000000000       38.53300000000000
N           41.03900000000000       15.09600000000000       36.17099999999999
N           42.28900000000000       12.60800000000000       35.52000000000000
C           44.47800000000000       11.65700000000000       37.40599999999999
C           45.52099999999999       11.19300000000000       38.31800000000000
C           45.57400000000000       12.02100000000000       39.35099999999999
C           44.54900000000000       13.05900000000000       39.14000000000000
C           43.39200000000000       15.19800000000000       39.70300000000000
C           43.12900000000000       16.30000000000000       40.59900000000000
C           42.18800000000000       17.22200000000000       39.88600000000000
C           41.97600000000000       16.59600000000000       38.58199999999999
C           40.64700000000000       16.36900000000000       36.53500000000000
C           39.60800000000000       16.82500000000000       35.65199999999999
C           39.38300000000000       15.84900000000000       34.75500000000000
C           40.27499999999999       14.74600000000000       35.05300000000000
C           41.31100000000000       12.59100000000000       34.55900000000000
C           41.49100000000000       11.39300000000000       33.76500000000000
C           42.54499999999999       10.71200000000000       34.27399999999999
C           43.07600000000000       11.48200000000000       35.38400000000000
C           44.12400000000000       11.09800000000000       36.19700000000000
H           44.73500000000000       10.26600000000000       35.84600000000000
C           44.25200000000000       14.12900000000000       39.96600000000000
H           44.74800000000000       14.13900000000000       40.93600000000000
C           41.17300000000000       17.08200000000000       37.59200000000000
H           40.92200000000000       18.14100000000000       37.64099999999999
C           40.34100000000000       13.54700000000000       34.39200000000000
H           39.55299999999999       13.33400000000000       33.67000000000000
C           46.39300000000000        9.94300000000000       38.09200000000000
H           46.77600000000000       10.24200000000000       37.09300000000000
H           45.55200000000000        9.23000000000000       37.95699999999999
H           47.21399999999999        9.45800000000000       38.66199999999999
C           46.60000000000000       11.94500000000000       40.51400000000000
H           45.87200000000000       11.82700000000000       41.34500000000000
H           46.89300000000000       13.01400000000000       40.44100000000000
H           47.49300000000000       11.32000000000000       40.72699999999999
C           43.21899999999999        9.38900000000000       33.81000000000000
H           44.04700000000000        8.67800000000000       34.01600000000000
H           43.37799999999999        9.84700000000000       32.81000000000000
H           42.25600000000000        8.83500000000000       33.82600000000000
C           40.57900000000000       10.97800000000000       32.59400000000000
H           40.89300000000000       11.31400000000000       31.59800000000000
C           40.00800000000000        9.71000000000000       32.60700000000000
H           39.65500000000000        9.26600000000000       33.55000000000000
H           39.90300000000000        9.13600000000000       31.67500000000000
C           38.34500000000000       15.88300000000000       33.60000000000000
H           37.81900000000000       14.94700000000000       33.88600000000000
H           39.06699999999999       15.65700000000000       32.78600000000000
H           37.59599999999999       16.62400000000000       33.24800000000000
C           38.95000000000000       18.24800000000000       35.73700000000000
H           39.71900000000000       18.94200000000000       36.09099999999999
C           37.61099999999999       18.52700000000000       35.75100000000000
H           36.88300000000000       17.78900000000000       35.38200000000000
H           37.24600000000000       19.49200000000000       36.13100000000000
C           41.61600000000000       18.53400000000000       40.44799999999999
H           40.82200000000000       19.27500000000000       40.21299999999999
H           42.60200000000000       19.04500000000000       40.43300000000000
H           41.42500000000000       18.10800000000000       41.45600000000000
C           43.70100000000000       16.48000000000000       42.03200000000000
H           42.70499999999999       16.76100000000000       42.43699999999999
H           44.24300000000000       17.40400000000000       41.73600000000000
H           44.27099999999999       15.94100000000000       42.81900000000000
C           45.70200000000000       15.88900000000000       32.94500000000000
H           46.69500000000000       15.39300000000000       32.89100000000000
H           45.83799999999999       16.98300000000000       32.80500000000000
H           45.05099999999999       15.48100000000000       32.14200000000000
N           45.67100000000000       16.00700000000000       35.47100000000000
H           46.53100000000000       16.51100000000000       35.54600000000000
C           45.08499999999999       15.62400000000000       34.27700000000000
C           44.91600000000000       15.60200000000000       36.47400000000000
H           45.13600000000000       15.78600000000000       37.52500000000000
N           43.87400000000000       14.95100000000000       35.98099999999999
C           43.96300000000000       14.93800000000000       34.60800000000000
H           43.21899999999999       14.44200000000000       33.99800000000000
C           39.20999999999999       14.65300000000000       39.39000000000000
H           38.22600000000000       15.16700000000000       39.35700000000000
H           40.00999999999999       15.40900000000000       39.23999999999999
H           39.32800000000000       14.17600000000000       40.38700000000000
C           39.28500000000000       13.58700000000000       38.28900000000000
H           39.16000000000000       14.06100000000000       37.29200000000000
H           38.47099999999999       12.84400000000000       38.42399999999999
S           40.88399999999999       12.80900000000000       38.42599999999999
C           40.56700000000000       11.24300000000000       37.53099999999999
H           40.09400000000000       11.43100000000000       36.54300000000000
H           39.88399999999999       10.59600000000000       38.12100000000000
H           41.52100000000000       10.70100000000000       37.35700000000000
87
 energy: -124.577371938046 gnorm: 0.162553869815 xtb: 6.7.1 (edcfbbe)
Fe          42.44821316100070       13.97133319114648       37.05341267810731
N           43.93422292005499       12.80135947261381       37.93954442428158
N           42.67636192608622       15.38209850411260       38.52561478617320
N           41.03057332782220       15.10494343377818       36.16572642660803
N           42.28603394960067       12.61434520132708       35.53882003019763
C           44.48866249423308       11.66990153121140       37.41157088637279
C           45.53062709259449       11.18668641598804       38.31706256246010
C           45.58182422150010       12.02337233110095       39.35815301309012
C           44.55417085449765       13.05763731567604       39.13446506776466
C           43.37668573311576       15.19764494596170       39.68798659478368
C           43.10571814881838       16.29077559695719       40.57802399328909
C           42.21130357853474       17.18214766657828       39.88803543211230
C           41.99711222619340       16.57411990145263       38.59517324766520
C           40.65699820858629       16.37714000175799       36.52387614158130
C           39.60426285536325       16.85736929422339       35.64959823132883
C           39.36442023790845       15.86781435564581       34.75747458448838
C           40.26360347350505       14.76325398719568       35.06528790544563
C           41.31942824116581       12.58406501642095       34.57160905120116
C           41.48045345262810       11.37965212705948       33.77813464959086
C           42.56126516910517       10.71759277350333       34.29494941865833
C           43.06787745026296       11.50111801026852       35.39244834980784
C           44.12602596864345       11.10757675849899       36.20136467512004
H           44.71958894773996       10.26514152134594       35.85289728458278
C           44.24886151745734       14.13121437995468       39.95908099009662
H           44.74506113162978       14.14750088493716       40.92686487645275
C           41.18089469839399       17.08089139351136       37.59504028018143
H           40.90967157671266       18.13093415287477       37.66118331742555
C           40.34140331567481       13.55184542285352       34.39404712587623
H           39.56655494742783       13.33918744968949       33.66155679909345
C           46.36467886218738        9.94599714889004       38.05075809904481
H           46.78982354390235       10.20209027211734       37.07370169811055
H           45.57295077019467        9.19680611433536       37.93591996330594
H           47.17002145446516        9.51734225983717       38.67394903141419
C           46.56395110687779       11.98731972995467       40.52566156563937
H           45.89004486996903       11.84231164453035       41.37725442769701
H           46.91442743865822       13.02436001954867       40.48713863941455
H           47.43845547862069       11.32408894056112       40.66772165134624
C           43.17288025929641        9.40842706650257       33.77246104726529
H           44.01965529204585        8.75467639810890       34.06128310810885
H           43.37905196468772        9.79182408991061       32.76571909943792
H           42.26326001490688        8.79659253289804       33.78242991566120
C           40.64452241300141       10.92095274313497       32.60512904302625
H           40.89048647998698       11.32533561234832       31.61580709056715
C           40.02228373122191        9.72117110880525       32.61113095237362
H           39.67529472733489        9.26893732575806       33.53789458547159
H           39.86669734610425        9.16318839186901       31.68786486446213
C           38.36815509731939       15.83909941071349       33.60104066240942
H           37.79925050199964       14.93495888647960       33.84884598880797
H           39.03990700277169       15.64203385065626       32.75680323505441
H           37.64994626676827       16.62337890231134       33.30240264222305
C           38.94984225160648       18.21794404485246       35.77774833561781
H           39.69932374145759       18.94650203636104       36.08719414160023
C           37.64034030195246       18.51033226734217       35.75269607624528
H           36.90194810734839       17.79388798979799       35.39867301959290
H           37.26481974271192       19.47577288838151       36.10010258819145
C           41.66636993752897       18.49489992493614       40.46935521169259
H           40.85270313849053       19.19075555274716       40.16972087902312
H           42.59811462398770       19.07772771928530       40.47199207572503
H           41.42899683734116       18.14963688139051       41.48437293663653
C           43.66213431895648       16.52738085086515       41.99679947299503
H           42.71544483647937       16.79462518556355       42.48290487368561
H           44.24636790936550       17.43277578403878       41.78329388600523
H           44.24013999848492       15.91889808147333       42.72586977317528
C           45.70625207815336       15.89026464017838       32.94571650531638
H           46.68756881836971       15.40104674029444       32.88459340819445
H           45.83901051677098       16.97043472763684       32.79922122735411
H           45.06194122065786       15.49002697320587       32.15419785363437
N           45.67550229013220       16.01200430601563       35.45756482188593
H           46.53857352246162       16.51835501265621       35.53823000804584
C           45.09356692434785       15.62104156802765       34.27315843806090
C           44.90560101669417       15.59326530396221       36.46770986201179
H           45.12377279626897       15.77661590312233       37.50969136905263
N           43.86591741842042       14.94205218723106       35.98904761411212
C           43.96591569223975       14.94283991192995       34.62234587205577
H           43.22729724094856       14.45241962049603       34.01148366982498
C           39.20378209792953       14.65308637345796       39.38923658913829
H           38.23469143508583       15.16451225657831       39.35858321580589
H           39.99714618834796       15.39619176079670       39.24544785391676
H           39.32718235851588       14.18456995112427       40.37418979156715
C           39.27784999044457       13.59236911784427       38.29281713496634
H           39.16049698091063       14.05494879402049       37.30215515890081
H           38.48096349167475       12.84587297937271       38.42560704335528
S           40.89009224096665       12.79335776208577       38.41254406107849
C           40.55797395682358       11.23270227058496       37.52609054438876
H           40.09835881081721       11.43407958311394       36.55202541941476
H           39.88886252619650       10.60200687985130       38.12248728188425
H           41.50950919253192       10.71324068246106       37.36521185116931
87
 energy: -124.650963844692 gnorm: 0.075525113080 xtb: 6.7.1 (edcfbbe)
Fe          42.45869639792050       13.97677384043026       37.04903936955364
N           43.93667224093718       12.80872759433508       37.93931175940686
N           42.66414881643015       15.36004901638147       38.52050857679045
N           41.02581304057053       15.11467248301506       36.15775547110527
N           42.28389227141043       12.61851758242703       35.55443061134270
C           44.49666776001435       11.68432691445607       37.41630685370695
C           45.53959422533814       11.18521352365709       38.31400840024127
C           45.58824288238418       12.02985670035703       39.36291630677494
C           44.55703474856637       13.05767304987748       39.12675265615795
C           43.36179995868340       15.19268987655814       39.67919014044597
C           43.09026449969746       16.29288602846674       40.56446318677775
C           42.23652616515144       17.15147298555193       39.89459679653363
C           42.00731331687522       16.55288377583282       38.60634611622038
C           40.66834533845663       16.38187306589675       36.51454178063817
C           39.60011015335805       16.88029264042748       35.64599508795670
C           39.34618865577458       15.87508763894859       34.75994915799223
C           40.25828384252073       14.77631284745919       35.07734684761873
C           41.32345502966742       12.57970286149853       34.58519957778081
C           41.47134531778409       11.37326239934361       33.78888211947223
C           42.57532351963962       10.72126495615008       34.30822599540681
C           43.06033069018390       11.51354689075843       35.39992189877223
C           44.12615868578083       11.11418274439760       36.20830378355114
H           44.70237796723752       10.26374275549366       35.86242671580882
C           44.24414357583861       14.13160678581110       39.95376932700970
H           44.74319739548412       14.15733991949306       40.91661931703397
C           41.18382105954331       17.07605758636905       37.60037589820106
H           40.89457387455788       18.11671492339407       37.68653321133131
C           40.34417886893596       13.55798339900796       34.39862131826256
H           39.58496389733403       13.34782304983605       33.65306022819031
C           46.33544226701495        9.95355296910086       38.01243461765801
H           46.80176927948568       10.16085214631082       37.05124389416169
H           45.59221354522906        9.16431892023781       37.91149799632791
H           47.12316965086625        9.58725583450973       38.69238462626350
C           46.52529415377752       12.02862470327574       40.53349936612407
H           45.90476563012635       11.86193170030632       41.41124019184723
H           46.93221605620794       13.03794550106469       40.53672707812053
H           47.37746961276806       11.32551036039642       40.59752492108731
C           43.12638934662773        9.43466556389202       33.73820967610605
H           43.98976087504900        8.84797146568438       34.11823115406287
H           43.37645810728539        9.73980080447742       32.72203847315559
H           42.26828689423067        8.76558589210482       33.74048463958390
C           40.70076991539505       10.88114659913230       32.62192906319825
H           40.90589960974265       11.33731897390498       31.64609983761795
C           40.03740982910430        9.73259458083885       32.61913659081409
H           39.70775266531066        9.25960290533869       33.53298213299166
H           39.81945428226563        9.19874740888478       31.69874809442102
C           38.39120419882769       15.79857295839893       33.60690687088294
H           37.78120655940757       14.92000652743113       33.81160294111803
H           39.01601217103508       15.62451300457822       32.73163954047581
H           37.70715477877994       16.62892334055041       33.36654404526198
C           38.96442849829096       18.18878399791176       35.80128952106400
H           39.68247924362412       18.95029456867151       36.09937290054239
C           37.67016326611741       18.49258351651626       35.74825475597763
H           36.91701806169487       17.78968511213634       35.42104073255844
H           37.28808146862097       19.45967018034304       36.06564786020456
C           41.71741287000376       18.45553643732504       40.48777802557578
H           40.88335307499203       19.08934999442355       40.10876838151493
H           42.59908122907574       19.10231767999751       40.50671479889270
H           41.43762305055111       18.18203804529704       41.50753651547780
C           43.62481890576397       16.57052291770152       41.96004382681236
H           42.72479929262838       16.82758727536404       42.52018570080398
H           44.24552763797499       17.45909416308439       41.82166649173066
H           44.20636909579977       15.88287485001023       42.61609156307969
C           45.70850458351526       15.89060303600042       32.94611207047069
H           46.68349886573227       15.40748711362775       32.87919717599384
H           45.83942580876182       16.96214946032800       32.79601493519655
H           45.06850000430559       15.49618325206518       32.16174404119717
N           45.67866801329572       16.01564600403186       35.44807223709405
H           46.54285594647133       16.52363462841069       35.53497995883992
C           45.09924926543830       15.61716870800515       34.27154542605829
C           44.89731346047871       15.58580873449182       36.46258325522140
H           45.11479844672130       15.76825972476971       37.49735504945051
N           43.85991015514649       14.93472536798673       35.99550836861384
C           43.96816201900351       14.94535062413318       34.63497210765114
H           43.23432882758678       14.46211777388482       34.01982901749230
C           39.19840145487441       14.65268210517428       39.38944472570624
H           38.23862200858748       15.16220578166843       39.35854353796750
H           39.98769087455862       15.38696472788777       39.24770904254287
H           39.32518666889245       14.18924145322682       40.36619818078138
C           39.26828128272712       13.59727607099618       38.29664584560320
H           39.16205785764431       14.04989350227652       37.31024426785991
H           38.49042237962676       12.84280745852439       38.43017001459826
S           40.89950657111743       12.78338563394239       38.40267526346963
C           40.54902784569934       11.22640822869576       37.52281395640809
H           40.09896019276802       11.43566811436878       36.55801186115900
H           39.89024776702826       10.60769456497406       38.12542477389535
H           41.49966038026670       10.72231919569638       37.37330955112885
87
 energy: -124.684779307773 gnorm: 0.052406441847 xtb: 6.7.1 (edcfbbe)
Fe          42.46671190825379       13.97882819246278       37.04797098220518
N           43.93688836013026       12.82292718354004       37.93191775034279
N           42.65243562587875       15.34176754792529       38.52088584033894
N           41.03423593896665       15.11979690037970       36.15286897049224
N           42.28221188146802       12.62033244846872       35.56747533970994
C           44.49830018046064       11.70195594201181       37.41235427987169
C           45.53789679389624       11.19670635181929       38.30437903201682
C           45.58263509051153       12.04464622282197       39.35893973546371
C           44.55462921303171       13.06528662199607       39.11616112716874
C           43.35365399859746       15.17880863997006       39.67744928890998
C           43.09010924543924       16.28927186763888       40.56117916034130
C           42.25244883023348       17.14233498893192       39.89067214556962
C           42.00634803848105       16.53823668942590       38.60500327163106
C           40.68452080604347       16.38210215082120       36.50780919995426
C           39.60997910332409       16.87888785662753       35.64143297143358
C           39.34592765930473       15.86453509363352       34.76260021308967
C           40.26337006745440       14.77693313321483       35.08588727058235
C           41.32249578504581       12.58067482279143       34.59950160353314
C           41.46999420389368       11.37747052382546       33.80412236043618
C           42.57675270401805       10.72559644352174       34.31341162705474
C           43.05797326515258       11.51805084478435       35.40601927769627
C           44.12472537276523       11.12102056111511       36.21290908951568
H           44.68343322917521       10.25803855226875       35.87656684676874
C           44.24057495471154       14.13133883791104       39.94994467049922
H           44.74518443581873       14.16686911037301       40.90715009715474
C           41.18453345044924       17.06879530854853       37.60437748509910
H           40.87052922268548       18.09922521696710       37.71958186879719
C           40.34924437361630       13.56156495932978       34.40480919549485
H           39.60795351097964       13.35987443668285       33.64050156683061
C           46.31428747721465        9.96505088908942       37.98742051489597
H           46.81293585609005       10.12101560545519       37.02843778299547
H           45.60933347148898        9.13736234824696       37.88706728004510
H           47.08179938162778        9.65801876409357       38.71565939132034
C           46.49435998912018       12.05984969437216       40.53721986399109
H           45.91391736179767       11.88433637036903       41.44341376100802
H           46.94525353172875       13.05383306696788       40.58843159855083
H           47.31875130188226       11.32427588385692       40.53024472081188
C           43.09825238551404        9.45648832639049       33.71967801176196
H           43.96685670491103        8.93762398352376       34.17363018145802
H           43.37216080949258        9.69163376021956       32.68596551645230
H           42.27630105644280        8.73877715190124       33.70209084425800
C           40.74281469798257       10.86963424089303       32.63399064165762
H           40.93642398214912       11.35149305519019       31.67414454956206
C           40.03832154801798        9.74289034782471       32.62621712203266
H           39.75039387759676        9.24108071938919       33.53933043819083
H           39.75130463924786        9.24462963669133       31.70233610131446
C           38.40610898752228       15.77038881620700       33.61297304364959
H           37.76132775749553       14.90379502184865       33.77423632122564
H           38.99361288258341       15.60452085407528       32.70770461436470
H           37.75783246903764       16.64133142801304       33.43066284789407
C           38.98015717954862       18.17268706942966       35.82496468316844
H           39.67252579712130       18.95717272514181       36.12240077361732
C           37.68691564406761       18.47637403201190       35.74711030579085
H           36.93099653863221       17.76954221196905       35.44282482525426
H           37.30995248007935       19.45568379019841       36.01979914420878
C           41.75367330041849       18.42918867786382       40.49243965068911
H           40.90992504531100       18.99021281045539       40.03586217715830
H           42.60155230866376       19.12149329235500       40.53599517697243
H           41.44760867051174       18.20970433147252       41.52024260958401
C           43.60506968977353       16.59308966781055       41.93592708982156
H           42.73918814263263       16.85437895408183       42.55170276498347
H           44.24230801405657       17.48005753942008       41.85646749066576
H           44.18004934344849       15.83853141179863       42.51275402717631
C           45.70938578231986       15.89053394268248       32.94662467841846
H           46.68508066994681       15.41129234638018       32.87303498270951
H           45.83943505691633       16.96094484381853       32.79427085308608
H           45.06929216588794       15.49879932268529       32.16310158811995
N           45.68009775480107       16.01633561773800       35.44603001819312
H           46.54311255659378       16.52696197868327       35.53530100916311
C           45.10142636303647       15.61367709519324       34.27213437500410
C           44.89524980432614       15.58133185042950       36.46092271563337
H           45.11066332971350       15.76167111785055       37.49380873374403
N           43.85837387620095       14.92913903570493       35.99809814786760
C           43.96932614053791       14.94472739727695       34.63972204136953
H           43.23638312219978       14.46929890868058       34.02088928193706
C           39.19198425959847       14.65084346911834       39.39019577494485
H           38.23382279092056       15.16228508596504       39.35885643555832
H           39.98129592819245       15.38285875488773       39.24826648112441
H           39.32050091607827       14.19013468076514       40.36628568656406
C           39.26371383071837       13.59673796440184       38.30101793894320
H           39.16172790517605       14.04409677408726       37.31459472495490
H           38.49894180511347       12.83273069121623       38.43815407678703
S           40.90733707720178       12.77956716280302       38.39752706620042
C           40.54132177209373       11.22385913433240       37.52380197570363
H           40.09373113990176       11.43658938912806       36.55973453141335
H           39.88445026759150       10.61190699421033       38.13386601659804
H           41.49337611193666       10.72365251352531       37.38053273142800
87
 energy: -124.698799226582 gnorm: 0.038536350277 xtb: 6.7.1 (edcfbbe)
Fe          42.47181277718423       13.97666776500927       37.04819785108689
N           43.93315415589774       12.84299943610727       37.91887935033468
N           42.64351221117223       15.32569406824375       38.52230147213117
N           41.05027380511725       15.11908188793199       36.15374909334847
N           42.28235968769189       12.61877791163736       35.57788936971181
C           44.49599214387960       11.72267778499385       37.40318061661038
C           45.53160315591947       11.21624950370041       38.29038167682047
C           45.57140496976498       12.06558847028912       39.35008949948178
C           44.54899720875426       13.07878339906784       39.10264269608219
C           43.34799376128114       15.16761689105452       39.67762178732541
C           43.09662867541326       16.28682725421498       40.55738917228079
C           42.26550975135999       17.13852064771301       39.88256920443047
C           42.00324303754692       16.52483837905996       38.60269408320715
C           40.69802490278872       16.37721176569772       36.50720641443940
C           39.62235692120289       16.86674688256769       35.64256259486655
C           39.35391054389189       15.84731525386468       34.76857687654009
C           40.27618700958129       14.77302823371095       35.09250370965888
C           41.32283832283338       12.58258689962594       34.61045908229508
C           41.46872936859443       11.38346127969086       33.81594023236561
C           42.57371212159298       10.72951820520419       34.30945738372098
C           43.05641052638713       11.51601937546229       35.40938939320971
C           44.12003872635582       11.12514392624331       36.21552535855914
H           44.66375386211729       10.24764477877918       35.89569619848086
C           44.23765205961650       14.13401327256486       39.94688884118867
H           44.75024619816072       14.17555366252525       40.89805430598226
C           41.18036914558817       17.05786253675423       37.61405797349586
H           40.83745082330779       18.07572788418891       37.76030551582952
C           40.35940070764570       13.56480365983176       34.40743040202342
H           39.63549650629545       13.37526959411799       33.62438645488290
C           46.30174238954697        9.98150147063078       37.97559686314262
H           46.82170041179128       10.09981823388587       37.02038935821273