72
 energy: -105.900762137765 gnorm: 0.252535788838 xtb: 6.7.1 (edcfbbe)
Fe          17.42900000000000       -2.25800000000000       14.99200000000000
N           16.77300000000000       -3.80300000000000       16.04600000000000
N           18.38900000000000       -1.65500000000000       16.76200000000000
N           17.90400000000000       -0.45000000000000       14.08700000000000
N           16.41300000000000       -2.72800000000000       13.43800000000000
C           16.04600000000000       -4.84200000000000       15.47000000000000
C           15.94000000000000       -5.91400000000000       16.41700000000000
C           16.54900000000000       -5.48600000000000       17.54100000000000
C           17.02600000000000       -4.17100000000000       17.33400000000000
C           18.42600000000000       -2.27100000000000       17.93600000000000
C           19.25600000000000       -1.53500000000000       18.84200000000000
C           19.69500000000000       -0.43500000000000       18.14400000000000
C           19.14000000000000       -0.57100000000000       16.80400000000000
C           18.82200000000000        0.40000000000000       14.58000000000000
C           19.15700000000000        1.32700000000000       13.59400000000000
C           18.40600000000000        1.04000000000000       12.48300000000000
C           17.59800000000000       -0.08200000000000       12.79800000000000
C           16.23100000000000       -2.01300000000000       12.28900000000000
C           15.36400000000000       -2.72000000000000       11.34000000000000
C           15.03800000000000       -3.87700000000000       11.93100000000000
C           15.70900000000000       -3.87600000000000       13.27000000000000
C           15.55100000000000       -4.89700000000000       14.17500000000000
H           15.01200000000000       -5.79100000000000       13.86200000000000
C           17.76400000000000       -3.45800000000000       18.26300000000000
H           17.83100000000000       -3.83500000000000       19.28300000000000
C           19.36600000000000        0.34200000000000       15.83900000000000
H           20.07000000000000        1.13500000000000       16.09000000000000
C           16.73400000000000       -0.76400000000000       11.97900000000000
H           16.43100000000000       -0.29900000000000       11.04100000000000
C           16.67500000000000       -6.26300000000000       18.82000000000000
H           16.52800000000000       -7.34500000000000       18.61300000000000
H           15.90100000000000       -5.92600000000000       19.54200000000000
H           17.68800000000000       -6.11400000000000       19.25200000000000
C           15.25200000000000       -7.27200000000000       16.30000000000000
H           14.78600000000000       -7.36600000000000       15.29600000000000
H           14.46100000000000       -7.36000000000000       17.07500000000000
H           16.00000000000000       -8.08400000000000       16.42700000000000
C           19.54900000000000       -1.90500000000000       20.26500000000000
H           20.45400000000000       -2.54800000000000       20.30200000000000
H           18.69000000000000       -2.46700000000000       20.69100000000000
H           19.73500000000000       -0.98600000000000       20.86100000000000
C           20.62500000000000        0.67300000000000       18.47200000000000
H           20.70500000000000        1.53600000000000       17.79500000000000
C           21.36100000000000        0.67200000000000       19.53800000000000
H           21.31700000000000       -0.16900000000000       20.24600000000000
H           22.04000000000000        1.51200000000000       19.74900000000000
C           20.16100000000000        2.47000000000000       13.66800000000000
H           20.63400000000000        2.48400000000000       14.67300000000000
H           19.64100000000000        3.43800000000000       13.50100000000000
H           20.95100000000000        2.32600000000000       12.90100000000000
C           18.61900000000000        1.90500000000000       11.30800000000000
H           19.36400000000000        2.71200000000000       11.36800000000000
C           17.99300000000000        1.78200000000000       10.21500000000000
H           17.23500000000000        0.99500000000000       10.09100000000000
H           18.19900000000000        2.46100000000000        9.37400000000000
C           14.91900000000000       -2.24500000000000        9.97300000000000
H           15.80300000000000       -1.90600000000000        9.39200000000000
H           14.21300000000000       -1.39500000000000       10.08300000000000
H           14.42800000000000       -3.07900000000000        9.42700000000000
C           14.16900000000000       -4.96300000000000       11.33300000000000
H           14.77200000000000       -5.57400000000000       10.62700000000000
H           13.32200000000000       -4.50400000000000       10.78000000000000
H           13.78300000000000       -5.62200000000000       12.14000000000000
O           15.61800000000000       -1.32800000000000       15.67000000000000
H           15.17500000000000       -1.97900000000000       16.21400000000000
H           15.32700000000000       -0.50700000000000       15.49000000000000
C           19.63000000000000       -4.72900000000000       14.44000000000000
H           19.09300000000000       -5.12000000000000       15.33100000000000
H           20.71400000000000       -4.93200000000000       14.57700000000000
H           19.26700000000000       -5.28400000000000       13.54900000000000
S           19.34900000000000       -2.96100000000000       14.22900000000000
H           19.86200000000000       -2.62200000000000       15.40200000000000
72
 energy: -105.944584219316 gnorm: 0.087100571744 xtb: 6.7.1 (edcfbbe)
Fe          17.38662885886268       -2.22182020373699       14.99938925695719
N           16.78374359235298       -3.82536823458254       16.02051363433420
N           18.37273938007283       -1.66092284860195       16.74259225419153
N           17.91391741079117       -0.46946388018760       14.07684316404112
N           16.40430196019014       -2.73455837109006       13.41459246843406
C           16.06567417996028       -4.86118538898771       15.46501871709590
C           15.92856398843820       -5.92582047510749       16.42388574076605
C           16.53951785332073       -5.49815255978289       17.55815609383085
C           17.04692708115260       -4.18539295979787       17.31309757442482
C           18.41652677831581       -2.26681824559249       17.94025946469868
C           19.25719347979236       -1.52249158891004       18.84796120169635
C           19.70991496897060       -0.43368302687355       18.14531866644296
C           19.13349704270871       -0.56064783071205       16.81581153605179
C           18.83245175615155        0.39359068323769       14.56945353730090
C           19.17225583408965        1.35219522407793       13.58981049942220
C           18.42005957292092        1.07183969930169       12.47993504726513
C           17.62047609212572       -0.07708766814078       12.80075106985021
C           16.21823438249494       -2.00628877555467       12.28001987135276
C           15.36208302646781       -2.71957894028022       11.34093714646347
C           15.03814090271384       -3.88824029991724       11.93373888461389
C           15.69877030484033       -3.88234786282147       13.25142143397388
C           15.56009355005408       -4.89791390636653       14.17377781678914
H           15.01383238980547       -5.78206300298417       13.87268717281727
C           17.76541338025608       -3.45411101899782       18.24730083987529
H           17.83587796230476       -3.83481770051089       19.25860827425254
C           19.37277931856659        0.35502624841720       15.83517249166402
H           20.06806412126039        1.14461938658333       16.07857329546687
C           16.73839784162852       -0.76270864862187       11.98510832908433
H           16.44084206510137       -0.31304879058850       11.04937336072060
C           16.67550447369491       -6.26594559857674       18.82914424669220
H           16.52977887994919       -7.33170922822341       18.63104704875559
H           15.91788872670215       -5.93540601841241       19.54801701497378
H           17.67099869597198       -6.12125378202931       19.26021587971874
C           15.25056159282765       -7.26111505382146       16.28620330223657
H           14.78797041268782       -7.37171152257605       15.30289643422395
H           14.47537902479194       -7.36096678806913       17.05419486623154
H           15.98056040870496       -8.06800664088155       16.42157817651225
C           19.54118387211419       -1.90526548135100       20.26242197052987
H           20.43705305339124       -2.53886829942333       20.30984998294086
H           18.70249480168169       -2.46149066647474       20.69140341316544
H           19.71076239417398       -1.01139724835561       20.86834812184563
C           20.61473410861930        0.66120195679064       18.48563120428940
H           20.68116852146266        1.50732052634397       17.80316572432270
C           21.37898481729211        0.67522409591108       19.56239342509112
H           21.36781059330972       -0.14876862085060       20.25760023104055
H           22.04535007446352        1.50421260760642       19.76483987340664
C           20.16605040903164        2.47106483028108       13.68248052333423
H           20.63807551878213        2.49179526287488       14.66643301723382
H           19.66071241949119        3.42794824150261       13.51171750294183
H           20.94394931332997        2.33650808254329       12.92341829360400
C           18.61058353091208        1.90719623399467       11.30541616427404
H           19.35516305124027        2.69489906092069       11.38574667981701
C           17.96902493694386        1.78211930280847       10.16614606996269
H           17.22611395434745        1.01197690539273       10.03417294805534
H           18.17433490448217        2.45015192466245        9.34105048683707
C           14.92973485421069       -2.24222942847665        9.98562549903721
H           15.79138852154471       -1.90708072814129        9.39863699496045
H           14.22582919303619       -1.40689335885565       10.07808532582043
H           14.44059606590328       -3.05535141341402        9.44022730878745
C           14.17631894135686       -4.96554913254745       11.34704768965819
H           14.76001816101444       -5.57066979218571       10.64209713904203
H           13.33805209559554       -4.52022134247980       10.79993789310149
H           13.78022466067535       -5.62097454146676       12.12614770761654
O           15.61034136537159       -1.33035829766222       15.69009461345299
H           15.14230488006717       -1.96415838173668       16.23087420764586
H           15.28783177878703       -0.46911690083887       15.50056735366332
C           19.63560230422377       -4.75255705902668       14.45020861083854
H           19.09265310582954       -5.11831184857496       15.32647280919544
H           20.70728287669716       -4.93859616656052       14.57053727973476
H           19.27078215578629       -5.27289276883449       13.56046865528728
S           19.35364047189551       -2.97913511111278       14.22845237925283
H           19.90628700189400       -2.63435682354368       15.38887708699017
72
 energy: -105.957954133888 gnorm: 0.029461424874 xtb: 6.7.1 (edcfbbe)
Fe          17.38118752883580       -2.20031054784149       15.00537460120113
N           16.80001369592662       -3.84600897327408       15.99483080831027
N           18.34690425122631       -1.63945569093139       16.73020695050497
N           17.92684577522191       -0.48707289632407       14.06655304492026
N           16.38710716671117       -2.73168836860444       13.40726531055165
C           16.08723241925516       -4.87712028705335       15.45719976214185
C           15.92500234162008       -5.93428495866380       16.42611425157673
C           16.53729789916773       -5.50603228952187       17.56557978587471
C           17.06694542300422       -4.19637280346937       17.28924132601504
C           18.40180814188947       -2.25153263815112       17.93966888258097
C           19.24871930953986       -1.51256688391338       18.85206247196756
C           19.71864893859700       -0.43120380555355       18.15010752372184
C           19.12620625627550       -0.53871962044214       16.82736376359136
C           18.84269369692804        0.38694352004156       14.55916306833134
C           19.18010795502392        1.36985487466011       13.58285097159500
C           18.42343575567939        1.09439646966035       12.46963009859350
C           17.63927669350367       -0.07864991983075       12.80109552686357
C           16.20418546728104       -1.99968444472936       12.27766877304168
C           15.35781230016370       -2.71678115483095       11.34510822092818
C           15.03786938840702       -3.89454705109894       11.93940970625680
C           15.68860057237604       -3.88475047470279       13.23882169876027
C           15.57211956879420       -4.89923864921533       14.17085140083889
H           15.01446563851653       -5.77559032625763       13.88000138250767
C           17.76813615468651       -3.44876605045521       18.22346926488154
H           17.84653852552210       -3.84145945111678       19.22580821680939
C           19.38063407383110        0.37026110525612       15.82958481443977
H           20.07027854155788        1.16131902019967       16.06109312432183
C           16.74752177297628       -0.76373118517835       11.98993867248106
H           16.46150935258238       -0.32674248521009       11.05016605725738
C           16.67474984477970       -6.26418369301542       18.83867419420701
H           16.52944773757929       -7.32398342527504       18.65202426043361
H           15.92881011402524       -5.93845645870117       19.56212626365722
H           17.66096474146267       -6.12190002696332       19.27151335740484
C           15.24675649854020       -7.25229500204905       16.27116226486768
H           14.78843296010782       -7.36686777904193       15.29625237128716
H           14.47641747090706       -7.36308027533499       17.03334312055073
H           15.96665849138779       -8.05920578032926       16.40887588273461
C           19.52591278307003       -1.90780709762164       20.26107395262807
H           20.42089747118405       -2.53116117808060       20.31339439358575
H           18.69774791503107       -2.46899597002686       20.68371208259736
H           19.68398147915577       -1.02692969598353       20.87621735828007
C           20.61428830407934        0.64125227041781       18.51164707351170
H           20.65440388099735        1.48489113252714       17.83566415191034
C           21.40257431233056        0.66902525667496       19.58389067516752
H           21.42638039796339       -0.14262355997323       20.27995973171409
H           22.04743677989899        1.50528890640988       19.78135377126284
C           20.17179522970805        2.47357854541317       13.70022940149031
H           20.64326212499267        2.49568475585858       14.67461676692158
H           19.68253829178431        3.43125307736793       13.53049783889159
H           20.94970594485311        2.34953838347254       12.94852103502820
C           18.58084121092775        1.89874414496605       11.28387597089837
H           19.32339556900953        2.67740569207746       11.37903861936329
C           17.94266391582462        1.77790795293299       10.12400302530140
H           17.20549635845841        1.02005903590238        9.97236276314092
H           18.15541401298177        2.44185178378462        9.30869868493611
C           14.93737873089173       -2.23880008434769        9.99616240653713
H           15.79270264609855       -1.90564383963557        9.41271470749786
H           14.23781762153819       -1.40740479482781       10.08069207695001
H           14.44892932720617       -3.04095750760295        9.44977813429434
C           14.18297412298442       -4.97059101638500       11.36102824609582
H           14.75712000715756       -5.57513670930189       10.65815523763209
H           13.34772983783399       -4.53258344884483       10.81761917839013
H           13.78282798845786       -5.62358937265418       12.12829244871976
O           15.61275678615252       -1.31703812032423       15.72627826739519
H           15.08888445515482       -1.92905412432620       16.24770876665782
H           15.25268525892710       -0.45695492581702       15.51107803852518
C           19.63801075559195       -4.77976915825890       14.45759566847297
H           19.09034764415248       -5.12199227319040       15.32818990009084
H           20.70154383705035       -4.95999203240406       14.56814873364284
H           19.26739399784839       -5.27698151386986       13.56845839774982
S           19.37702986301826       -2.99559484050230       14.21739917354123
H           19.97178867379455       -2.64337126656440       15.36174212516800
72
 energy: -105.963607022813 gnorm: 0.027969613027 xtb: 6.7.1 (edcfbbe)
Fe          17.38194718572715       -2.18358872145030       15.01605509599462
N           16.81850825381422       -3.85977838112760       15.97918094395166
N           18.34369077791511       -1.61853312041180       16.71900028546534
N           17.94049038573614       -0.49353077313728       14.06452516336738
N           16.37494131394990       -2.72741806109229       13.41102432423019
C           16.10374638593655       -4.88722027465915       15.44999330892938
C           15.93019187473839       -5.93968115813102       16.42406709362025
C           16.54437008462717       -5.51131309177357       17.56382383725524
C           17.08514164874955       -4.20483445649662       17.27219666690774
C           18.39681000275867       -2.24017965209386       17.93085723376683
C           19.23867155362448       -1.51055939630210       18.85146914802624
C           19.72106430203916       -0.42890562794364       18.15737876708107
C           19.13074122384705       -0.51925628474916       16.83284432018413
C           18.85346351190786        0.38717686621130       14.55426175211657
C           19.18275945262795        1.37889075226569       13.57467886343217
C           18.42160782856354        1.10147275266073       12.46110032701133
C           17.65054817481367       -0.08407109822834       12.80267418078028
C           16.19640168211584       -1.99735576287782       12.28025791563888
C           15.35415144283960       -2.71437137388670       11.34960713589648
C           15.03670255014927       -3.89638041850858       11.94427910095744
C           15.68284887038988       -3.88542696555897       13.23616149570323
C           15.57979700339514       -4.90189245759568       14.16863602884437
H           15.01558022748524       -5.77531256373996       13.88163770718880
C           17.77737360368820       -3.44734627464537       18.20096754553435
H           17.86433954787530       -3.85047506605405       19.19777459419119
C           19.39146784245420        0.38525614226857       15.82653033772232
H           20.07801680606258        1.18139096411488       16.05010409763080
C           16.75758713234814       -0.76733059048533       11.99326425307556
H           16.48838354735812       -0.33898712588397       11.04450483754079
C           16.67517231577220       -6.25892308954378       18.84523851327228
H           16.52646235740539       -7.32070167599811       18.67026083497064
H           15.93274666015335       -5.92856742758626       19.57103522822307
H           17.66032761827958       -6.11726248457043       19.28125794291112
C           15.24261220643981       -7.24908006698677       16.25604184107435
H           14.78740415169295       -7.35505600742440       15.27876827351263
H           14.46813322846448       -7.36514427310900       17.01326695895344
H           15.95611367818708       -8.06248233919283       16.39038575566893
C           19.50403053790797       -1.91309104571607       20.26007413736574
H           20.40651928039474       -2.52414213798718       20.31846629302805
H           18.67878385432089       -2.48884915759245       20.66865080396181
H           19.64380705667253       -1.03568414963410       20.88615027056319
C           20.61248053044097        0.63239439676957       18.54575991681229
H           20.63140967396533        1.48268307046611       17.87840088745601
C           21.41908412611122        0.66512787823342       19.60742140106358
H           21.49875651231194       -0.15600255380091       20.29513206871280
H           22.05289705835292        1.51210722919698       19.79691928316178
C           20.17566624787731        2.47947840724500       13.70917963131498
H           20.64313189240548        2.49446778038315       14.68630237040836
H           19.69721712838441        3.44417464484806       13.54569782513035
H           20.96198485981365        2.36313601179965       12.96408831830337
C           18.54865638843008        1.88674654756426       11.25962220508023
H           19.28722413981939        2.66969323521342       11.35893541726866
C           17.91557408013129        1.77056651545841       10.09149326764090
H           17.17671550749642        1.01727750696930        9.91358507663207
H           18.13661923662717        2.43670539572860        9.27855096333485
C           14.94156711179135       -2.23345662059143       10.00203975423206
H           15.80172330969231       -1.90275702807880        9.42475636581106
H           14.24708912350936       -1.39777710197979       10.08468729641958
H           14.45138202960073       -3.03120401271795        9.45197090912067
C           14.18605878756548       -4.97738464358138       11.37169812481275
H           14.75987640259309       -5.58560018490628       10.67237308208717
H           13.34882201758533       -4.54467900394005       10.82800771428875
H           13.78703299936578       -5.62853099858217       12.14143527013399
O           15.62313874340044       -1.27636644657395       15.79989218525857
H           15.01443828638399       -1.88972520822233       16.24521177927000
H           15.20250419699381       -0.45078062117866       15.50850140885588
C           19.63800080500077       -4.80498549670337       14.46374396060779
H           19.08710483695567       -5.12943792365199       15.33752978688339
H           20.69913187814456       -4.99665074874079       14.56637318609923
H           19.25288854183866       -5.29174898082215       13.57603832116033
S           19.39935490661947       -3.01104524041013       14.21513207173458
H           20.05701147756274       -2.65388073074085       15.33106693535334
72
 energy: -105.966239441490 gnorm: 0.038192676687 xtb: 6.7.1 (edcfbbe)
Fe          17.39261289493054       -2.17337501229173       15.02768418290074
N           16.83219002124896       -3.86586728466073       15.97146542351001
N           18.35676884313847       -1.60363859847993       16.70734845941251
N           17.95227716657104       -0.49136781255237       14.07042556967445
N           16.36274659919368       -2.72031912305350       13.42211041526275
C           16.11427842931845       -4.89232870657760       15.44471046445429
C           15.93892368429875       -5.94323330825225       16.42032480266104
C           16.55570176678387       -5.51564978388185       17.55826985224024
C           17.10100643920400       -4.21129463691085       17.26086532255676
C           18.39978334465870       -2.23349335228485       17.91747579231012
C           19.23133245186508       -1.51195057343573       18.84746631772759
C           19.72259300333321       -0.42698363373576       18.16424520975470
C           19.14199895311305       -0.50329812198099       16.83478404156897
C           18.86335710855870        0.39457746674149       14.55372834028358
C           19.18306700165477        1.38587861432174       13.56571711115353
C           18.41839519947052        1.10063711782832       12.45520367406520
C           17.65711345717033       -0.08963997178723       12.80741438241974
C           16.19051561917754       -1.99527488405189       12.28662863361226
C           15.35151315389240       -2.71188821155402       11.35436548765238
C           15.03417102182246       -3.89501120165877       11.94882735359868
C           15.67650549099608       -3.88278818420256       13.24061113924869
C           15.58276425393269       -4.90393523619593       14.16787543823296
H           15.01966588667692       -5.77818608886995       13.87966734449322
C           17.79246068154388       -3.44838644922213       18.18120691374759
H           17.88863295757552       -3.85732843957497       19.17494123044638
C           19.40342850266846        0.40064082146425       15.82632751605345
H           20.08779109362570        1.20148854696933       16.04707138487503
C           16.76762264455926       -0.77163255011272       11.99707504623541
H           16.51943398017531       -0.35030487313168       11.03832840328854
C           16.67720718243515       -6.25174485861408       18.84890893195226
H           16.52182791024023       -7.31638300456645       18.68678227422158
H           15.93499596312128       -5.90918060400621       19.57161632952335
H           17.66290761203743       -6.11149616025878       19.28838174362339
C           15.23991413725781       -7.24698233488454       16.24039839184170
H           14.78780507184109       -7.33785734601986       15.25809265783782
H           14.45861792232187       -7.36455749993534       16.99160486203737
H           15.94560472820876       -8.06977353432403       16.36792052385577
C           19.48291369950298       -1.91545521154135       20.25810020248895
H           20.39290872168356       -2.51529077965666       20.32699896989964
H           18.65811377446423       -2.50528451826222       20.65190123675898
H           19.60627252231381       -1.03654475228760       20.88832943517726
C           20.61451838804297        0.62597490000424       18.57852626567923
H           20.60371325274112        1.49877711083376       17.93560585003456
C           21.43946798756489        0.64759279250959       19.62512624546441
H           21.54640338784564       -0.17434090080408       20.31019058925208
H           22.05149262381951        1.51208154272483       19.82365206199403
C           20.17625848304544        2.48780742550358       13.70857399211275
H           20.63798486063899        2.49458627524014       14.69104009654913
H           19.70358352123775        3.45774941368125       13.55212362847066
H           20.97126348522506        2.37694155728107       12.96992473586034
C           18.51848626593011        1.87231717276369       11.23870464822253
H           19.24963614344787        2.66649625675362       11.33297547907062
C           17.88979643404222        1.75816452151524       10.06861863904760
H           17.14834707154510        1.00887129329295        9.86341706453380
H           18.11299499434167        2.43125442961714        9.25821887242712
C           14.94617174561300       -2.22686342100955       10.00599469539388
H           15.81365100092675       -1.90099463466132        9.43441860084673
H           14.25849593224114       -1.38407982315664       10.08774872889934
H           14.45215815737927       -3.02032034769068        9.45158578071943
C           14.18829113300853       -4.98397284925690       11.38133642159155
H           14.76578972121987       -5.59775782503267       10.68861877793574
H           13.34836854104474       -4.55950872576253       10.83384219754985
H           13.79178029681273       -5.63140351126751       12.15807932853711
O           15.63077392259688       -1.23244543204975       15.86987894041225
H           14.96069112943347       -1.85150006540409       16.23180314023018
H           15.15032480539546       -0.45476045896389       15.50217385361359
C           19.63501112068111       -4.82993548663216       14.46995942490271
H           19.08372301615510       -5.13703410911942       15.35124310873961
H           20.69397983888104       -5.04251883035644       14.56551702678139
H           19.23208691784924       -5.31448197553557       13.58786828661335
S           19.42475637954603       -3.02938750321811       14.20637345604927
H           20.13025854516091       -2.66880471630839       15.29565924980523
72
 energy: -105.966881503654 gnorm: 0.032110487404 xtb: 6.7.1 (edcfbbe)
Fe          17.40235968823178       -2.16641698897905       15.03749729017353
N           16.84190174401472       -3.86784914859178       15.96755837868228
N           18.37604940984330       -1.59372993413100       16.69613706158965
N           17.96391427739029       -0.48535472375515       14.07911989855529
N           16.35472013164209       -2.71494893905887       13.43218144267405
C           16.12123888670224       -4.89496113462209       15.43959964301296
C           15.94924967695187       -5.94609801102403       16.41493634044937
C           16.56845281980521       -5.51970101065476       17.55034969392249
C           17.11389091619037       -4.21673633501196       17.25291328771330
C           18.40663495856187       -2.23065037833807       17.90176744558734
C           19.22488188999770       -1.51466552459415       18.84189655828132
C           19.72064004575636       -0.42410650840298       18.17089879088081
C           19.15523483127378       -0.49151910493426       16.83405543134942
C           18.87250097643328        0.40566081387317       14.55524583671740
C           19.18228206075593        1.39155821894202       13.55696969476865
C           18.41520415949167        1.09522560006525       12.45092494056033
C           17.66213582305493       -0.09568105418680       12.81251323726516
C           16.18893237953626       -1.99509327079164       12.29167666674553
C           15.35105928919971       -2.71068776756331       11.35703339967526