72
 energy: -105.979968326540 gnorm: 0.000182730341 xtb: 6.7.1 (edcfbbe)
Fe          17.41100333523649       -2.23998485780572       15.00735179086621
N           16.82423518753355       -3.90259701848596       15.93192106986765
N           18.46514311859726       -1.70061952325296       16.62176050914508
N           17.96946453439282       -0.53936984630397       14.07728854278387
N           16.27100231084389       -2.71221928277968       13.42995411230012
C           16.02849560448944       -4.88000750165908       15.42871395883823
C           15.87029351866161       -5.95485608511079       16.38528046440344
C           16.57952669928257       -5.59226209741724       17.48614468943442
C           17.16480926406397       -4.30341368763314       17.18433588183424
C           18.54460159219957       -2.37204177217973       17.80236566633013
C           19.36456635271813       -1.65610936849044       18.74596640089415
C           19.78964499980557       -0.52346349851623       18.10477255452146
C           19.20171983033764       -0.56990624962915       16.78019235923661
C           18.83227513351641        0.40120945583432       14.55505876164271
C           19.05933803626535        1.42667282983074       13.57326954282635
C           18.32980850082054        1.07506474773071       12.46928020769568
C           17.64380182882164       -0.15146148335169       12.81586428672800
C           16.09305222057359       -1.97909514431757       12.29780243394359
C           15.17635443924483       -2.64430311078861       11.39869594206201
C           14.82723597880086       -3.81092514779327       12.00383543958200
C           15.52170246632473       -3.83476075226336       13.27170855051077
C           15.41770154988813       -4.86131147908351       14.18965074369161
H           14.80008663086759       -5.70529260508922       13.92508261791154
C           17.95359217083974       -3.59507440933026       18.06738904059105
H           18.12436865622303       -4.03009392227645       19.03978128172944
C           19.40432259848302        0.39719199566531       15.81503087310233
H           20.05314020690279        1.22275454353507       16.06266154718092
C           16.72212878829088       -0.78527145371890       12.00380135494262
H           16.48854070684467       -0.31604242567603       11.06168685835667
C           16.76193299386743       -6.31605364631434       18.77536096783261
H           16.24155139602417       -7.27035295998031       18.75965474424737
H           16.36927984726353       -5.72545840834449       19.60321049826236
H           17.81905541906119       -6.50403689245499       18.96500257303509
C           15.06586050794345       -7.18462336457710       16.14098089569376
H           15.42533351295507       -7.70849512263897       15.25514888492253
H           14.01769799724388       -6.93062225521820       15.98167559959602
H           15.12820499683569       -7.86193390248000       16.98904981340947
C           19.60879659158963       -2.07141815332952       20.15408342444783
H           20.40505083897466       -2.81588706924279       20.20991288254621
H           18.70928881129973       -2.50581488883656       20.58726222447511
H           19.90212190328968       -1.21014777960083       20.75066095025092
C           20.62095955972362        0.55166625967501       18.59985694811170
H           20.38491211227737        1.53921271212312       18.22093834514221
C           21.62819815818928        0.41325126646958       19.45545548954409
H           21.93645682716694       -0.54834286829798       19.82728881396665
H           22.19951613864352        1.26131265152334       19.79436381744409
C           19.96133875302851        2.59769461905006       13.75301393365667
H           20.99006137621019        2.27012255333021       13.90609429236981
H           19.66243794788747        3.18404012385807       14.62253708120351
H           19.93480944995796        3.23789582599599       12.87505150387024
C           18.26853577138894        1.78021107480978       11.20437231755767
H           18.25257570192291        2.86244406350806       11.27699597983418
C           18.27400051443507        1.21104408384902       10.00504788467583
H           18.34633939700160        0.14390215753004        9.88026577529342
H           18.23444609557406        1.79820233122275        9.10259755808341
C           14.75762280150323       -2.10146062175636       10.07631071859708
H           15.61657125554275       -2.01190297581476        9.41104335306757
H           14.31470818461096       -1.11188376098308       10.18964494146652
H           14.02643840592203       -2.75332884919279        9.60497368037319
C           13.91808652496190       -4.88924100170207       11.52475183696808
H           14.45775597336777       -5.83218753392618       11.43659227046858
H           13.50295471339649       -4.64043434241490       10.55137463685392
H           13.09397837847944       -5.03505926272637       12.22343844055194
O           15.64418587502442       -1.08349067056209       15.77142357335522
H           14.99346871112525       -1.25858309138489       15.08167708792398
H           15.96012553676563       -0.18212571355132       15.64007574534649
C           19.97610746350893       -4.47890237687757       15.22858110914171
H           19.96769515249046       -4.04285398441282       16.22167715369969
H           20.98294585783615       -4.74295876765951       14.92000025409783
H           19.33553228603773       -5.35434279521746       15.20615028114846
S           19.27641755686505       -3.28960396492868       14.03064251311334
H           20.17268644194045       -2.32786354814910       14.27911172142288
