72
 energy: -105.979971187224 gnorm: 0.000061367998 xtb: 6.7.1 (edcfbbe)
Fe           5.80374033716168       24.61696292062827       -1.09907880033009
N            5.45669994420372       24.52518695550402       -3.05746031203521
N            3.86518260439765       24.27886006128236       -0.72840266763545
N            6.15616361372613       24.75604047721765        0.88252688477022
N            7.72368155320077       25.06083105362031       -1.45769982140667
C            6.36702587259648       24.65488448311453       -4.05558247254380
C            5.73766719373071       24.48579097181671       -5.34807939197567
C            4.41945845787093       24.26454220524216       -5.10364836438775
C            4.26349177428848       24.29658473308830       -3.66511028202342
C            2.87623812053677       24.12295458512757       -1.64968280797021
C            1.60182806157485       23.92828524190967       -1.00685328207682
C            1.84048790942471       23.96802690904615        0.34077926329919
C            3.26377796711528       24.20250862158616        0.48756891486076
C            5.25346717128857       24.55454972887185        1.88345555667607
C            5.88940157502176       24.65894010393110        3.16867086766647
C            7.21446518821488       24.90448578167596        2.92700447104848
C            7.35327023091199       24.97539236126901        1.48795301951103
C            8.68873270427009       25.33158435155747       -0.53783034395553
C            9.94754471824864       25.61872213334663       -1.18915168954142
C            9.72505986424286       25.48809990907762       -2.52424518048895
C            8.32946971999756       25.14031911897169       -2.67150901380499
C            7.70938083992593       24.93565455293731       -3.88835549592605
H            8.31633641444594       25.01708002480249       -4.77646479714792
C            3.05600370529742       24.11778668563186       -3.02188191797300
H            2.18420824377925       23.95914931868750       -3.63733599822008
C            3.90470744749608       24.30056138400981        1.70716941930809
H            3.30734560833363       24.17911687884705        2.59724850973552
C            8.52585311823240       25.30265541534596        0.83331616319931
H            9.38261802882990       25.53940806298609        1.44339772602825
C            3.30476671920376       24.03148508687882       -6.06405238336201
H            3.66873086786739       24.04205066428853       -7.08832704142687
H            2.54527860517484       24.80678101191855       -5.96238644595021
H            2.83135323168631       23.06714728344302       -5.87750536035938
C            6.45910339103899       24.56065417053389       -6.64926286302566
H            7.26214795648205       23.82431347192966       -6.68570677053831
H            6.89955443991547       25.54850052233348       -6.78586153545849
H            5.78182057408024       24.37085735939348       -7.47816937167912
C            0.29960924587285       23.78967086898794       -1.71391603063359
H            0.15033029694565       22.76574715087831       -2.06129532063502
H            0.26099251187771       24.44893617122300       -2.57957667363131
H           -0.51743732716145       24.04689321978377       -1.04313405013040
C            0.90778560594694       23.84508761417685        1.43951199824578
H            1.13491591634886       24.44034961774798        2.31622599922508
C           -0.17114389316971       23.06952401766597        1.44868223342364
H           -0.41943598403197       22.42300311832557        0.62505705211878
H           -0.83317147928998       23.03594794228136        2.29784100876687
C            5.20491148255774       24.47795523274960        4.47863073124007
H            4.80087445108230       23.46877975493211        4.56462724068446
H            4.37787687094284       25.18126381882339        4.58128867071674
H            5.90138031895719       24.63679487798657        5.29783269318048
C            8.26720256348767       25.04968240406126        3.91288935833486
H            7.99129796129508       25.59609224694403        4.80849515382925
C            9.48898736972801       24.53991654802380        3.81491573268485
H            9.79176325417402       23.94275224630123        2.97151176172891
H           10.22230173078446       24.68030682301233        4.59159565152567
C           11.20435861156495       25.96451100009848       -0.46835351748426
H           11.52197355090570       25.13538732031747        0.16416413990602
H           11.05504394657914       26.83630015849351        0.16878596686159
H           12.00435233347362       26.18506072227569       -1.17055656745767
C           10.67197462175664       25.65734165633930       -3.66159683891301
H           11.66153058430990       25.92950003263633       -3.30327689503958
H           10.32397229366157       26.43832584466185       -4.33802328596916
H           10.75562040290541       24.73060495340065       -4.22933734605561
O            5.43490224869812       26.83156216367559       -1.05044847292920
H            6.31832782702340       27.17070659897477       -1.23564779096081
H            5.27468216008466       26.95843851112730       -0.10828901631357
C            5.22758140815946       21.40324584478282       -2.08801019852557
H            5.24194645511106       20.35157899019962       -1.81881393158382
H            5.63352176817576       21.54046670728307       -3.08481136437286
H            4.22334394005062       21.81039528054061       -2.04111421156495
S            6.31779380189355       22.32686312982842       -0.94895101700984
H            5.60296937543648       22.05425280960692        0.14865075189444
