72
 energy: -105.879176025832 gnorm: 0.293568754688 xtb: 6.7.1 (edcfbbe)
Fe           5.89000000000000       24.56800000000000       -1.05800000000000
N            5.43700000000000       24.43800000000000       -3.08300000000000
N            3.82000000000000       24.37000000000000       -0.69200000000000
N            6.21400000000000       24.72900000000000        1.00400000000000
N            7.76400000000000       24.96200000000000       -1.42000000000000
C            6.36200000000000       24.60900000000000       -4.07500000000000
C            5.71100000000000       24.47000000000000       -5.37300000000000
C            4.38500000000000       24.19600000000000       -5.12300000000000
C            4.25400000000000       24.20100000000000       -3.69900000000000
C            2.85100000000000       24.12000000000000       -1.60000000000000
C            1.58100000000000       24.00400000000000       -0.96900000000000
C            1.82700000000000       24.21700000000000        0.39400000000000
C            3.25100000000000       24.42600000000000        0.50200000000000
C            5.33200000000000       24.51500000000000        1.95400000000000
C            5.91900000000000       24.52800000000000        3.22700000000000
C            7.28800000000000       24.77500000000000        3.01200000000000
C            7.41000000000000       24.90000000000000        1.58500000000000
C            8.70400000000000       25.26200000000000       -0.51800000000000
C            9.93300000000000       25.49200000000000       -1.13700000000000
C            9.73100000000000       25.41100000000000       -2.46300000000000
C            8.35100000000000       25.03600000000000       -2.60000000000000
C            7.67100000000000       24.99500000000000       -3.80300000000000
H            8.24800000000000       25.31300000000000       -4.67000000000000
C            3.06500000000000       24.07300000000000       -3.00200000000000
H            2.17500000000000       23.91500000000000       -3.61100000000000
C            3.95200000000000       24.62300000000000        1.70300000000000
H            3.34100000000000       24.89800000000000        2.56200000000000
C            8.53000000000000       25.22200000000000        0.84600000000000
H            9.41000000000000       25.48400000000000        1.43200000000000
C            3.21100000000000       23.93700000000000       -6.14900000000000
H            3.63000000000000       23.82500000000000       -7.17200000000000
H            2.50800000000000       24.79700000000000       -6.14000000000000
H            2.67300000000000       23.00400000000000       -5.87600000000000
C            6.37400000000000       24.58200000000000       -6.73200000000000
H            7.46900000000000       24.42800000000000       -6.62400000000000
H            6.19200000000000       25.59300000000000       -7.15600000000000
H            5.96600000000000       23.80500000000000       -7.41400000000000
C            0.28500000000000       23.73200000000000       -1.75100000000000
H            0.43600000000000       22.86600000000000       -2.43000000000000
H            0.01900000000000       24.62300000000000       -2.35800000000000
H           -0.53800000000000       23.49600000000000       -1.04300000000000
C            0.92700000000000       24.21200000000000        1.52300000000000
H            1.35600000000000       24.50200000000000        2.49100000000000
C           -0.48700000000000       23.87400000000000        1.56900000000000
H           -1.01800000000000       23.56900000000000        0.65500000000000
H           -1.04100000000000       23.91900000000000        2.51800000000000
C            5.19700000000000       24.30700000000000        4.56500000000000
H            4.44400000000000       23.49800000000000        4.45100000000000
H            4.67900000000000       25.24100000000000        4.87100000000000
H            5.93200000000000       24.00800000000000        5.34300000000000
C            8.35200000000000       24.91100000000000        3.88500000000000
H            8.46200000000000       25.88500000000000        4.38100000000000
C            9.31000000000000       23.97900000000000        4.22500000000000
H            9.29000000000000       22.97200000000000        3.78400000000000
H           10.10500000000000       24.23200000000000        4.94200000000000
C           11.25500000000000       25.89000000000000       -0.44600000000000
H           11.54500000000000       25.10200000000000        0.28200000000000
H           11.12100000000000       26.85000000000000        0.09600000000000
H           12.06000000000000       25.99200000000000       -1.20500000000000
C           10.73000000000000       25.52600000000000       -3.64100000000000
H           11.76100000000000       25.34000000000000       -3.27200000000000
H           10.68100000000000       26.54700000000000       -4.07600000000000
H           10.48400000000000       24.77000000000000       -4.41700000000000
O            5.17400000000000       26.88800000000000       -1.24000000000000
H            4.21700000000000       26.87200000000000       -1.20900000000000
H            5.68600000000000       27.61100000000000       -1.31900000000000
C            6.09500000000000       21.37700000000000       -2.20700000000000
H            5.95300000000000       20.28500000000000       -2.06100000000000
H            7.03900000000000       21.52800000000000       -2.77300000000000
H            5.24400000000000       21.75600000000000       -2.81200000000000
S            6.17200000000000       22.24800000000000       -0.62000000000000
H            4.89200000000000       22.06900000000000       -0.32800000000000
72
 energy: -105.940063223587 gnorm: 0.115975153917 xtb: 6.7.1 (edcfbbe)
Fe           5.85354357167275       24.60506514673908       -1.06289248780144
N            5.44192252149353       24.42989081181998       -3.08203644950990
N            3.82729799205112       24.35129781718994       -0.69484876882217
N            6.20808855073963       24.72512423675203        0.97212615832928
N            7.75075460913457       24.95980675152897       -1.41610850997647
C            6.35142192127985       24.62246418115534       -4.07961354947823
C            5.70269367466754       24.46892127719019       -5.37427774873522
C            4.38254663821343       24.19517017564515       -5.12472839627140
C            4.24627284747116       24.19992299370825       -3.68769561876311
C            2.84971001277303       24.12144129507454       -1.61053830269875
C            1.57453371712706       24.00636699416659       -0.96857476174448
C            1.79799165417864       24.21727914307327        0.39186247213803
C            3.23769851763556       24.42516203394644        0.51225580376114
C            5.30344390566981       24.55033765158457        1.94423212901842
C            5.92088154406556       24.53844047667432        3.23110974139826
C            7.27117908529008       24.76367900350063        3.00692654886367
C            7.40450743340842       24.89360662423449        1.57398587447767
C            8.71024208530199       25.24666961303101       -0.50278935577029
C            9.95633740820474       25.50938537352228       -1.14501434460199
C            9.73951077147460       25.40265316253755       -2.48300336200416
C            8.33830694026366       25.05878181646888       -2.62201194935504
C            7.66824406713219       24.99194926981135       -3.83425977463487
H            8.25202362996197       25.28970338748110       -4.69564091138280
C            3.05365711504860       24.06350134213826       -2.99757272769296
H            2.16971498595764       23.91437775155353       -3.60522821592529
C            3.92445984609623       24.61583071558089        1.71186334006904
H            3.32384030432144       24.86098622376698        2.57704123996595
C            8.54633109379951       25.21618994015532        0.86627127582270
H            9.41967677353653       25.47836615595375        1.45034044093729
C            3.24382554878415       23.94267810887197       -6.12474480774495
H            3.63417586322109       23.83057825789666       -7.14247450631472
H            2.53378441590135       24.77945522809554       -6.12851870670763
H            2.69421577277641       23.02763425523099       -5.87046901289490
C            6.37145527860990       24.57970277974886       -6.71642094289536
H            7.45282454836115       24.43047341829580       -6.62652164144930
H            6.19489714597841       25.57234144663008       -7.15069837069984
H            5.97376217812222       23.82274961352875       -7.40276257903985
C            0.30281002769787       23.73352259341340       -1.73980993877455
H            0.43919939581543       22.88117910496966       -2.41609564209039
H            0.02737878637534       24.60784844864292       -2.34270577433286
H           -0.52272482692184       23.50139064468845       -1.06609499262748
C            0.89100646802670       24.20642560447239        1.51519452398589
H            1.33377925340335       24.49076189710748        2.47060285568295
C           -0.43915628626641       23.88684659923345        1.56285604625094
H           -0.99343580101286       23.57879560011715        0.68496625569442
H           -0.99588698497841       23.92544584784610        2.49409002950664
C            5.21113039575312       24.30994682099969        4.54769682012769
H            4.46105493562949       23.51532458632667        4.44771232031675
H            4.69427273346511       25.22476810466922        4.86627539618898
H            5.92411862078610       24.01816666549873        5.32606156844597
C            8.36733445173757       24.90256562802006        3.91340963541704
H            8.46844519986962       25.87943410694591        4.39302317363339
C            9.29780757426538       23.99110823066306        4.22205781648863
H            9.28396826450792       22.99551899240458        3.78983022651149
H           10.09018028584865       24.22572011501792        4.92400159040528
C           11.24669701640902       25.88569893045196       -0.45075097632645
H           11.53884376560145       25.11394953190133        0.27125682461572
H           11.12481803299092       26.83352576196226        0.08546374510250
H           12.04563731234340       25.99395826261069       -1.18955448470521
C           10.72075745630261       25.52317631678301       -3.62948476556564
H           11.74195343806657       25.34363090385387       -3.27738375269805
H           10.67837927783686       26.52724955361070       -4.06877470556870
H           10.48716496882017       24.78485564946147       -4.40316119567858
O            5.17903750242106       26.84716206805313       -1.23409487976323
H            4.22406353446920       26.87074738056854       -1.20920066079940
H            5.69660359708289       27.62697699507029       -1.32063839566430
C            6.08817923319770       21.36645075839211       -2.22251608674159
H            5.95570027933114       20.29194254174519       -2.05505177440748
H            7.02589211504883       21.53228486866566       -2.76121029263827
H            5.25435146174299       21.75602797399339       -2.81262928769388
S            6.17671835743876       22.25544430233887       -0.64274690752182
H            4.89714618716880       22.06416413521730       -0.32616353664276
72
 energy: -105.957350544723 gnorm: 0.041906299202 xtb: 6.7.1 (edcfbbe)
Fe           5.82182514270998       24.61244601214484       -1.06131595528392
N            5.44198750099449       24.44540739234339       -3.07246337436847
N            3.83668869860471       24.34605658950733       -0.69530053963784
N            6.19293970668671       24.74245224570862        0.94164328951339
N            7.73386598257204       24.97380859748011       -1.41470383336454
C            6.34189305565880       24.63802965086036       -4.07332543872688
C            5.69769409855398       24.47121457486169       -5.36554748007431
C            4.38383694322026       24.19521612976940       -5.11547059263046
C            4.24190436128990       24.20375357873376       -3.67020380513434
C            2.85444147046996       24.12288591037852       -1.61563220027651
C            1.57367244313979       24.01004294836917       -0.96831687274960
C            1.78530596878942       24.21872173068643        0.38172420188733
C            3.22968364996789       24.42599456272614        0.51834353633592
C            5.27545906478095       24.59458934942950        1.92905233315662
C            5.92035362764589       24.56135095385901        3.22345999955767
C            7.25238857486126       24.76465333326522        2.99050391953155
C            7.39342943069847       24.89377860204387        1.55412858358057
C            8.70898621431117       25.23773065489568       -0.49698922143220
C            9.96433233940074       25.51989645646049       -1.15632879761399
C            9.73403173896377       25.40128855070495       -2.49529457140801
C            8.32082820768784       25.08651950540334       -2.63596532645366
C            7.66795548046225       24.98579174763053       -3.85737500926590
H            8.26151452550392       25.24120843612173       -4.72403554949564
C            3.04533586815186       24.05226032561986       -2.99096370165107
H            2.16526410901886       23.90643009887386       -3.59896424857942
C            3.89798280446116       24.60392736724912        1.72112604448195
H            3.29690916058690       24.78211952492067        2.60279539520274
C            8.55897232012582       25.20730898593061        0.87693424894221
H            9.42913161080151       25.45536495825188        1.46680478167864
C            3.27775206416773       23.94750688688375       -6.09341269517747
H            3.66198012429585       23.83815687601228       -7.10535038420557
H            2.56608014215821       24.77469331295325       -6.10143378624437
H            2.72360377642584       23.04144626998128       -5.84648536125207
C            6.36706039451061       24.57870923583352       -6.69786718945126
H            7.43999444918632       24.43002901736212       -6.61517960348086
H            6.19434681573928       25.56151960132746       -7.13875406335348
H            5.97342767204702       23.83285580666357       -7.38661025805211
C            0.31906213656068       23.73639974841291       -1.73058217619874
H            0.45521346446844       22.89174617388162       -2.40498854895881
H            0.04172605114270       24.60283558294669       -2.33251097646359
H           -0.50978822817604       23.50609899715509       -1.07621834334874
C            0.87555415292119       24.20538142737979        1.50744876339075
H            1.33553650319339       24.48973187648246        2.44964858765650
C           -0.40240866870819       23.89650285454643        1.55439507394043
H           -0.98065822291324       23.58586218035779        0.70304888297439
H           -0.95687088956135       23.93110639520037        2.47825831303990
C            5.22466961656634       24.32107425449621        4.52502394010845
H            4.48149245474590       23.52980608675680        4.42991484620811
H            4.70666813929715       25.22257140733137        4.85735993909021
H            5.93302626740254       24.03359183885202        5.29793015168183
C            8.36754656116272       24.90514072471647        3.92434889376502
H            8.44805876359838       25.88095380569642        4.39972481158777
C            9.27895298375538       23.99743128878174        4.21496045530038
H            9.27100649650972       23.00934061151909        3.78650744870448
H           10.07720970107230       24.21381723544238        4.90571675027093
C           11.23406554241422       25.87953489721890       -0.46172649220360
H           11.52305351245901       25.11597712936671        0.25864116982427
H           11.12077051115879       26.81997549705667        0.07614660449244
H           12.03843988748530       25.99528380068028       -1.18182525373469
C           10.70541065773771       25.52295572527867       -3.61899727538437
H           11.72135724676421       25.34800935649392       -3.27295276763658
H           10.66940748449459       26.51775659942414       -4.06362173350307
H           10.48460936005312       24.79465958535450       -4.39540929209800
O            5.20262168886617       26.79984346361860       -1.22121684506518
H            4.24662742186456       26.87676702476634       -1.21091277103420
H            5.69755371248107       27.61404487162527       -1.32126131282179
C            6.08245361784403       21.35806108341497       -2.24149319203602
H            5.95532463068820       20.29643780555525       -2.05244012569119
H            7.01872699873864       21.53328657101653       -2.75940005233886
H            5.25974959937279       21.75405255790802       -2.82349330170429
S            6.18377148737502       22.25396160705345       -0.65989116576298
H            4.90619981851335       22.05483415296479       -0.31835948055599
72
 energy: -105.962652538577 gnorm: 0.023465488387 xtb: 6.7.1 (edcfbbe)
Fe           5.80679556569723       24.62851370312679       -1.05647395716047
N            5.44401434198464       24.46056751242018       -3.05654490428193
N            3.84284370578633       24.34546914678518       -0.69217497891710
N            6.17508048161509       24.77154465423262        0.92495774534931
N            7.72352664807521       24.99365492085196       -1.41734270070999
C            6.34068269637120       24.64616046001529       -4.05973428162014
C            5.70101894185250       24.47285131262592       -5.34883073872358
C            4.39196126982351       24.19582108221257       -5.09565594619264
C            4.24598832601728       24.20838651657229       -3.65209952743949
C            2.86097856867531       24.12156344214286       -1.61300916871495
C            1.57760196875152       24.00988121221468       -0.96869052406707
C            1.78745799811326       24.21650806204273        0.37469355286238
C            3.22768007510746       24.41771449025046        0.52053191226359
C            5.25918235749183       24.62045638394918        1.91701784372526
C            5.91323828723597       24.58993993082252        3.21040200385783
C            7.23941323862204       24.78193800289813        2.97241387042482
C            7.37977822550267       24.90784386486805        1.53585550628923
C            8.70328733920193       25.24124905896510       -0.50001081942569
C            9.96078406868888       25.52120015745314       -1.16405433354365
C            9.72499896456260       25.40520947983527       -2.50037194958045
C            8.31182477095449       25.10065616094286       -2.64110275252337
C            7.67154042496750       24.97701514752988       -3.86479339288373
H            8.27398610751369       25.17728325265622       -4.74415553220129
C            3.04622832073731       24.04520376072081       -2.98405919709586
H            2.16869119542103       23.88976564804471       -3.59300516255635
C            3.88262219175857       24.58127161583570        1.72823543354815
H            3.27416596856966       24.67798469274524        2.62672774417318
C            8.55885834439698       25.20340480744478        0.87462715727955
H            9.43289316539940       25.41668255259065        1.47439388382623
C            3.29562016158780       23.94817159702527       -6.06825421639909
H            3.68949432517156       23.84202862628275       -7.07561965830206
H            2.58680489658806       24.77671748305213       -6.07338649410813
H            2.74417140964169       23.04246621530621       -5.81914358704647
C            6.36626099490542       24.57852480529579       -6.67986027492431
H            7.43792414563893       24.42635927218183       -6.59931276804027
H            6.19474683583596       25.56074603707194       -7.12102171602484
H            5.96858436775942       23.83504099507113       -7.36785331976855
C            0.32984554771714       23.73884974160518       -1.73424488880956
H            0.47333353696668       22.89549148155718       -2.40756796865565
H            0.05710645935753       24.60649459025456       -2.33546382662598
H           -0.50346774986710       23.50796900489399       -1.08653227725453
C            0.88408923740462       24.21301409774177        1.50453504468453
H            1.35450719516283       24.50054041281556        2.43837030905814
C           -0.40603865991805       23.89976622957663        1.55972432309746
H           -0.99516647217755       23.58548150776000        0.71835646394741
H           -0.94713008024432       23.93591806016676        2.48980870051442
C            5.23095493691592       24.34079340541433        4.51053712840554
H            4.49779975920619       23.54197443821769        4.41355812184402
H            4.70866301293540       25.23546537535207        4.85231636180861
H            5.95251808388288       24.05699549026307        5.27197914411372
C            8.35537156641768       24.91854004787535        3.91926151633929
H            8.42117354524194       25.88767194795781        4.40708441254748
C            9.26224425485366       24.00054319486106        4.19825054409563
H            9.24881069087749       23.01780099740175        3.76046319031381
H           10.06144116088313       24.19735217237706        4.89442009130342
C           11.22703520106660       25.87252164430602       -0.46724378588965
H           11.50817064461583       25.10537194957860        0.25173992252961
H           11.11403269324236       26.81131526438037        0.07389786661714
H           12.03729384751793       25.99176584344085       -1.18048458103434
C           10.69473674449159       25.52827496921548       -3.62084248082379
H           11.70877278720993       25.35677224833861       -3.26893401973165
H           10.65672129908724       26.52176557827583       -4.06766726351685
H           10.48024046753144       24.79904871146761       -4.39809371257219
O            5.22784395277329       26.77549630696129       -1.19211284653358
H            4.27200659176893       26.88931187202341       -1.21746482957555
H            5.71199768389629       27.59601720601220       -1.32622222573395
C            6.07815478397859       21.35527508969720       -2.26045249614620
H            5.95270686039515       20.29690974050990       -2.05613246241161
H            7.01580244355847       21.53074252719464       -2.77351012896447
H            5.25730323559423       21.75006762257991       -2.84442635090225
S            6.18836218860475       22.26543300274510       -0.68322783873424
H            4.92103185302723       22.03745216309840       -0.31197390865271
72
 energy: -105.965629803998 gnorm: 0.023382598995 xtb: 6.7.1 (edcfbbe)
Fe           5.79905514690268       24.62647092364441       -1.05065886735401
N            5.44727063109432       24.48251048989815       -3.03564321740822
N            3.84650138066443       24.34876702861218       -0.68468708958299
N            6.15618635812349       24.79023061445601        0.90948769469078
N            7.71649232337914       25.01262721864835       -1.42092866527802
C            6.34376714182839       24.65187437490809       -4.04126194469193
C            5.70771945404358       24.47329305630175       -5.32753197911283
C            4.40130193216789       24.19719672663287       -5.07092721343379
C            4.25319562158074       24.21862233072386       -3.63139623114970
C            2.86679130957797       24.12284568638610       -1.60580082438386
C            1.58061085322997       24.00723392464207       -0.96853092077125
C            1.78799486149039       24.20590832336881        0.37306463872450
C            3.22438561016745       24.40284727683762        0.52551818913767
C            5.24647463324775       24.63248683219473        1.90587709811327
C            5.90431049278695       24.62045087255817        3.19620511724457
C            7.22791751558450       24.80524774906614        2.95123078193352
C            7.36348807887031       24.92439682674326        1.51488660907293
C            8.69661464201761       25.24865583129609       -0.50609432159904
C            9.95587968307298       25.52055374930195       -1.16962818794813
C            9.71765588411220       25.41089771545777       -2.50306631370690
C            8.30812966857189       25.10996518462601       -2.64290724852205
C            7.67955461194868       24.96146979703681       -3.86565349497387
H            8.28355813048376       25.11372683083260       -4.75339433021524
C            3.05065966346266       24.04156365718938       -2.97515496579544
H            2.17806571369954       23.86611470019064       -3.58589981771638
C            3.87358828784540       24.54160924798979        1.73688627216635
H            3.27166389800603       24.57821267857934        2.64138365885966
C            8.55336052113600       25.19878330736868        0.86727020330573
H            9.43010813951264       25.37080886434762        1.47877208162584
C            3.30491392426093       23.94638563327846       -6.04407893240591
H            3.70615204449801       23.84176139056287       -7.04915944664882
H            2.59706813714541       24.77638196960341       -6.04806894994909
H            2.75649913081034       23.03916139901164       -5.79307593934757
C            6.36774194193778       24.57798928822695       -6.65979567079128
H            7.43953982420565       24.41893590417945       -6.58295784894964
H            6.19939981712101       25.56328245351888       -7.09722891286769
H            5.96207056146805       23.83642594604371       -7.34667964280001
C            0.33685604157173       23.74172709062088       -1.74213876796849
H            0.48669928160042       22.89870461628031       -2.41588240490743
H            0.07047983338306       24.61249432422119       -2.34317731269258
H           -0.49923667722226       23.51052964303909       -1.09565989821673
C            0.88782614555335       24.21271861619148        1.50271696331058
H            1.35331854265684       24.51420919661068        2.43118093618928
C           -0.40550936737872       23.90225238027229        1.56465646089504
H           -0.99784136639255       23.58640966437416        0.72732777763349
H           -0.93196977260351       23.95231288018876        2.50294813307575
C            5.23532473920667       24.36816638931309        4.50122495832902
H            4.51514963225906       23.55619628378139        4.40898087819904
H            4.70385896894393       25.25548134941403        4.84867506101482
H            5.97421944713333       24.09409176466732        5.25162490872826
C            8.33769580511732       24.93661899735620        3.90877178513970
H            8.38931567354765       25.89594467408419        4.41559548779888
C            9.23908587514779       24.00605214384634        4.17459399672247
H            9.22279583147584       23.03519630945111        3.70774460821635
H           10.03599796413993       24.17871077893155        4.88226756999712
C           11.22220224398315       25.86379215777164       -0.46801183210531
H           11.49435822881094       25.08907362577180        0.24774115241921
H           11.10867761163203       26.80113343547873        0.07813358246598
H           12.03734941619899       25.98378435729565       -1.17751623493682
C           10.68678106133685       25.53865079159722       -3.62629259437352
H           11.70156418829658       25.37538627327521       -3.26982030656613
H           10.63942168704476       26.53137083046064       -4.07616142573652
H           10.47871931948467       24.80433853272085       -4.40223439950719
O            5.25618084458890       26.76182180692540       -1.12494284801459
H            4.30242043592477       26.91152831861973       -1.23849195803536
H            5.73172126026128       27.57543313482387       -1.35098003419393
C            6.07570305345243       21.35727999151515       -2.28187484687187
H            5.94617338993900       20.30107876973651       -2.06944856575896
H            7.01366129731152       21.52610451363013       -2.79805897576291
H            5.25386588393578       21.75049657229432       -2.86794792103112
S            6.19819872794943       22.27032571891651       -0.70307864665856
H            4.94224718165219       22.01488826225822       -0.30783665426929
72
 energy: -105.966970744755 gnorm: 0.014783256781 xtb: 6.7.1 (edcfbbe)
Fe           5.79621256933586       24.64286400452661       -1.04736991180691
N            5.45049936162834       24.49436137531962       -3.02027787635012
N            3.84679923660200       24.34179678525284       -0.67767611976041
N            6.14617031189944       24.78366347239909        0.90145346821090
N            7.71772998434919       25.02125813133463       -1.42389219410996
C            6.34848477537501       24.65101246360600       -4.02805390912694
C            5.71321832398815       24.46824576979494       -5.31269843478797
C            4.40657097519480       24.19524110405344       -5.05385843887708
C            4.25907408994103       24.22321619474025       -3.61786507239779
C            2.86867612465616       24.11831430319503       -1.59897806486998
C            1.58082016506639       24.00025294005545       -0.96806826351527
C            1.78718503281594       24.19023700660106        0.37572889188820
C            3.22188876711172       24.38155245653985        0.52975851837677
C            5.24125765602662       24.62642604270926        1.90050057386661
C            5.89790248699084       24.63809991336980        3.18792185049932
C            7.22103579003612       24.82584634616381        2.93813112938739
C            7.35316088222442       24.93011836126550        1.50163047183840
C            8.69640964458655       25.24929007451758       -0.51096412741720
C            9.95613120644301       25.51609096370029       -1.17051711931559