87
 energy: -124.720522247760 gnorm: 0.000088952588 xtb: 6.7.1 (edcfbbe)
Fe           2.89502811494453       16.93191652332987       24.57907827088297
N            0.89860159348691       16.95984879178783       24.60997666885451
N            2.85370682863515       15.16403867862692       23.63802273892215
N            4.90306758582952       16.89652506120225       24.54530919961737
N            2.94037969990222       18.73956703035569       25.44475893382442
C            0.10607344994687       17.93296415782645       25.12858942004727
C           -1.29063409313648       17.57047260650873       25.01396051726067
C           -1.31995786677398       16.35489344830099       24.40767670387092
C            0.05911759458669       15.99272374563272       24.16061285968310
C            1.75150575331131       14.46098721222043       23.26728337643465
C            2.12723270366773       13.24777797617008       22.57560320090299
C            3.48680936526287       13.23537940787344       22.53932154895680
C            3.92093150527917       14.44142608012446       23.20818833601847
C            5.69537219348297       15.92731415657802       24.02173740542469
C            7.09564008304580       16.25043980418989       24.21361123554743
C            7.11945193475249       17.46883621166086       24.83964757796375
C            5.74431245360157       17.85492841724520       25.02410567337468
C            4.04274614936773       19.46586471112009       25.76280481864064
C            3.66659603495438       20.73345564561667       26.35850517280118
C            2.29694210693907       20.74859454195503       26.37520596844848
C            1.87081593908232       19.49685814283895       25.80396117163252
C            0.54505837322592       19.12065708390539       25.67527512037914
H           -0.20434192874524       19.80825246667957       26.03613747947594
C            0.44308639568701       14.82815138651179       23.52311965645977
H           -0.33602961437772       14.15554421574330       23.19786160865928
C            5.24776061170622       14.77823746185374       23.39613185522111
H            5.99065530449023       14.08957094569579       23.02407470062901
C            5.35073380612870       19.05360130277151       25.59518105388375
H            6.12958188006150       19.71916530960764       25.93479953513017
C           -2.42081212175011       18.41606292526507       25.49150572943212
H           -2.42220870765052       19.37953584662936       24.98079726327371
H           -2.33302478501360       18.60103015556492       26.56209758367985
H           -3.37477271718352       17.92879301531191       25.30518243615434
C           -2.49018603089001       15.50714046604363       24.04248374455684
H           -2.42673837345027       14.53668479465898       24.53482997558920
H           -2.52342211262241       15.33801507440918       22.96552689990630
H           -3.42071357495073       15.98285194758040       24.34210995343933
C            1.38874943880499       21.84272278033470       26.81615667949164
H            1.00876973056262       21.65210609385159       27.82132738923349
H            0.53595862131443       21.92875836095638       26.14445775503927
H            1.92284276948373       22.79079607173317       26.82509056111116
C            4.59963118745256       21.74684454509867       26.79812202534625
H            5.51835957978527       21.81770176835666       26.22686141196666
C            4.41919907896981       22.56725659285338       27.82819477710158
H            3.55009788838606       22.51105232608192       28.46003519054360
H            5.15309936060497       23.31090729367380       28.09134564539361
C            8.30087235549731       18.29858643035446       25.20394564049246
H            8.53300971679034       18.20316699424176       26.26623547743421
H            8.11339016526936       19.35093379970467       24.99494997115692
H            9.17033652297251       17.98043480280607       24.63230774994053
C            8.20041693093961       15.42346712743548       23.78166329952873
H            8.03536137775127       14.85870457270658       22.87127056281747
C            9.36516309682141       15.30389678468444       24.41057297618093
H            9.56740308722410       15.80241181355593       25.34260299867633
H           10.15219532632083       14.67748214395982       24.02448618554572
C            4.40685191114266       12.22011564618678       21.95363796539197
H            3.84664742885992       11.40954985602884       21.49390216380521
H            5.05117935138956       11.79688292888273       22.72482533747279
H            5.04338319737141       12.67246941017258       21.19275509978636
C            1.15758554295745       12.24859842300714       22.04371762622516
H            1.67716320442377       11.42671092799740       21.55734026717282
H            0.48853621130126       12.70979700569564       21.31658620665312
H            0.54845002414380       11.83924046481451       22.85018907111625
C            3.91813017836460       20.20488844264441       20.17542360541173
H            3.14786411563312       20.91789037221753       19.88150088074559
H            4.31422475507375       19.73961923616325       19.27279953097262
H            4.72030292286526       20.74368183323168       20.66984062430686
N            2.33739337360329       18.34672426045055       20.74267130688510
H            1.86643690057845       18.33900869657831       19.85285214418860
C            3.36487837485206       19.18121146291435       21.09765589556294
C            2.07722892583532       17.54464033562908       21.79923181423183
H            1.31877761671191       16.78950157969264       21.80828808390539
N            2.87670348001635       17.82012434535162       22.80029312355772
C            3.68320797096938       18.83561243199959       22.37961171105724
H            4.43342366352488       19.24775748360032       23.02155066938818
C            2.81862771674345       13.14111196656745       26.42622596626678
H            3.38276434437158       12.21164324192602       26.38067134228752
H            2.30719398444768       13.28465448163794       25.47905672062298
H            2.07189967332047       13.06216606760518       27.21278754354319
C            3.75316498715339       14.30323137388312       26.70057521985174
H            4.51415485518397       14.38990977007568       25.92680853466410
H            4.22734207380087       14.19489519221380       27.67609392112569
S            2.80751020639994       15.88057920957552       26.74444503028797
C            3.93137397153647       16.81291493640430       27.82908782815405
H            4.91853597693593       16.86316513440461       27.38090308356652
H            3.96772655126095       16.32901893696623       28.80165132759148
H            3.52211473946794       17.81234749366684       27.92631866221999
