87
 energy: -124.720699646071 gnorm: 0.000028701556 xtb: 6.7.1 (edcfbbe)
Fe          15.62451686968731       29.38756849165568        3.34682458350414
N           13.66216992667158       29.74973662152143        3.43684503276943
N           15.37711635253823       27.76856963348957        4.49881430725702
N           17.59107397177181       29.00550786853951        3.23984268177455
N           15.86940007676449       30.98176945798996        2.15913435477703
C           12.98653842149411       30.74599310404379        2.80772582139183
C           11.57725180997121       30.69253622362288        3.13243528301926
C           11.42203608521836       29.64198584332133        3.98034072960562
C           12.73703326711534       29.06361896753298        4.15408647561718
C           14.22104252457047       27.33984946183069        5.06745831065963
C           14.44291036899987       26.12952898604575        5.82712800037986
C           15.76257420621523       25.83073468529808        5.69151389553622
C           16.32948084348224       26.86947560118191        4.86000733673936
C           18.24463571043024       27.93789814652952        3.76202987793770
C           19.66398578049499       28.01757668030192        3.47941775382194
C           19.84149141128510       29.16662145578784        2.75476668978021
C           18.53530159237853       29.75540112024393        2.60769419999930
C           17.03929189626632       31.45777454164122        1.66121801708754
C           16.80986089383360       32.64093002925716        0.85481156144637
C           15.45502325016062       32.84305786577119        0.86250417633980
C           14.89466135485287       31.80227816841112        1.68509749130261
C           13.54602467541951       31.69674089304548        1.97962773625319
H           12.88320552935740       32.42981754229583        1.54588124863530
C           12.98657213093410       27.94555072948077        4.92752034610866
H           12.15117400356033       27.50059783002704        5.44626276563834
C           17.66587051892362       26.93349362411766        4.51553203578355
H           18.31019707815095       26.14901104664037        4.88171562165993
C           18.28880029017720       30.91474560082733        1.89218147343494
H           19.13932045307056       31.42163962734445        1.46216983150358
C           10.55609626671244       31.64223296376333        2.60683646956072
H           10.52997781936532       31.61356733917107        1.51716041864612
H           10.78913011857364       32.66246536581286        2.91248431297462
H            9.56603299201836       31.39145826101741        2.97971088406797
C           10.18516745497511       29.12997590173590        4.63555131976574
H           10.29110184398291       29.15284571437694        5.72015164886108
H            9.98854303489183       28.09961549092873        4.33704758907803
H            9.32396537129653       29.73501010086055        4.36290782988879
C           14.66924340073702       33.87473938674965        0.13128063887394
H           14.40430682515004       34.70343846449957        0.79036297892619
H           13.74714982721194       33.44894491442687       -0.26165654354221
H           15.25239828253013       34.26955070341248       -0.69830085276021
C           17.84296034912957       33.39106430054131        0.17616973082819
H           18.68906990869632       32.81228472621812       -0.17666009428767
C           17.83260584315649       34.70400912079323       -0.03070325874206
H           17.04369857070896       35.33584730736845        0.33831082704749
H           18.63230652603794       35.19768969141541       -0.55760633931829
C           21.09545867784590       29.69358097326160        2.14863483699482
H           21.51931773996442       30.49286772743516        2.75939889527882
H           20.90535248572227       30.09578742206308        1.15449225634226
H           21.83247165085687       28.89737376232413        2.06596962792529
C           20.64244898743926       27.03528337733983        3.89016961609710
H           20.29139602980607       26.01015150651488        3.92053906728743
C           21.90045888291787       27.29535660495291        4.23104008287811
H           22.28956876848235       28.29809435920878        4.26538659115342
H           22.58140858746878       26.51002835671702        4.51474014622314
C           16.53730967459655       24.69089576554381        6.25866837463751
H           17.33316047241669       25.05370340486758        6.90984821165899
H           16.99487982566522       24.10411448610268        5.46171942735997
H           15.89256498002223       24.03562580636538        6.83927556894330
C           13.38254283384277       25.40515973143455        6.58357692909059
H           13.79429288565947       24.53631206666709        7.09121726111526
H           12.59235300428561       25.06731549185652        5.91211801188693
H           12.93321318552037       26.05873554078486        7.33132568695370
C           15.93795602315687       26.94485122761894       -1.65600518465903
H           15.12695996041569       27.12500516391685       -2.36164257300461
H           16.19301901110470       25.88578602559386       -1.69303841307806
H           16.80332131984681       27.52216047059859       -1.96596092225449
N           14.47546092840927       26.77980023864624        0.37044738611829
H           13.87343647330565       26.06158297508339        0.00251813212273
C           15.54020388467669       27.34413703975045       -0.28233362092725
C           14.38583674588693       27.36124894379028        1.58760079661147
H           13.64314834460782       27.11695786765426        2.31854606141598
N           15.32798757591530       28.25823469960994        1.74440517618661
C           16.05416732998291       28.25940632701244        0.59084985174290
H           16.89182442237501       28.91356039513332        0.46661581720343
C           17.48833279499215       30.71290149565684        7.58096795515505
H           18.33301234030343       30.26409529071168        8.09975203030357
H           16.58851443064234       30.54058543482372        8.16584718494477
H           17.65925916817845       31.78448150337506        7.51481601740275
C           17.34336638651082       30.09413733001978        6.20315221267812
H           17.20562778014725       29.01670643053422        6.27528851158096
H           18.20939105917623       30.29747132104037        5.57467403966998
S           15.85372476561760       30.69183132367223        5.32256641006123
C           16.43112716406437       32.35721609473227        4.87018128000311
H           17.35320578863828       32.28430612379240        4.30200759119444
H           16.57077170075923       32.94928468715879        5.76975039218844
H           15.65483019990647       32.79811560575254        4.25423807588554
