87
 energy: -124.346524268147 gnorm: 0.388928432045 xtb: 6.7.1 (edcfbbe)
Fe          15.72800000000000       29.25800000000000        3.29900000000000
N           13.78600000000000       29.73200000000000        3.46400000000000
N           15.53300000000000       27.63000000000000        4.53700000000000
N           17.70500000000000       28.74700000000000        3.02700000000000
N           15.96200000000000       30.82700000000000        2.02700000000000
C           13.10000000000000       30.67500000000000        2.74700000000000
C           11.71000000000000       30.61600000000000        3.13700000000000
C           11.57400000000000       29.66500000000000        4.05900000000000
C           12.88700000000000       29.09500000000000        4.28400000000000
C           14.35100000000000       27.32900000000000        5.17600000000000
C           14.48400000000000       26.07000000000000        5.87100000000000
C           15.90900000000000       25.62000000000000        5.59800000000000
C           16.48200000000000       26.65200000000000        4.76400000000000
C           18.36200000000000       27.67600000000000        3.56800000000000
C           19.77700000000000       27.84400000000000        3.27200000000000
C           19.96300000000000       29.06100000000000        2.74800000000000
C           18.64600000000000       29.54900000000000        2.41200000000000
C           17.17300000000000       31.31800000000000        1.57700000000000
C           16.93100000000000       32.54000000000000        0.83000000000000
C           15.61000000000000       32.77500000000000        0.87400000000000
C           14.98100000000000       31.68800000000000        1.59600000000000
C           13.64600000000000       31.53300000000000        1.83700000000000
H           12.95900000000000       32.14600000000000        1.25400000000000
C           13.20800000000000       28.09400000000000        5.16200000000000
H           12.47400000000000       27.87900000000000        5.93800000000000
C           17.76200000000000       26.65400000000000        4.26600000000000
H           18.36000000000000       25.76000000000000        4.44100000000000
C           18.39600000000000       30.73200000000000        1.76800000000000
H           19.26000000000000       31.26200000000000        1.36600000000000
C           10.59000000000000       31.50900000000000        2.57400000000000
H           10.76400000000000       31.25700000000000        1.50600000000000
H           11.08400000000000       32.47800000000000        2.80100000000000
H            9.49600000000000       31.59000000000000        2.75100000000000
C           10.26100000000000       29.28400000000000        4.77700000000000
H           10.62700000000000       29.44800000000000        5.81300000000000
H           10.32400000000000       28.20100000000000        4.53900000000000
H            9.20600000000000       29.62600000000000        4.71000000000000
C           14.86800000000000       33.93300000000000        0.19200000000000
H           15.44500000000000       34.73200000000000        0.70400000000000
H           13.83900000000000       34.30300000000000       -0.00700000000000
H           15.37300000000000       33.68100000000000       -0.76500000000000
C           18.02000000000000       33.41700000000000        0.13300000000000
H           18.31600000000000       33.28500000000000       -0.91800000000000
C           17.95600000000000       34.85900000000000        0.68900000000000
H           17.66500000000000       35.04199999999999        1.73400000000000
H           18.20100000000000       35.71700000000000        0.04500000000000
C           21.25500000000000       29.52600000000000        2.03600000000000
H           21.44100000000000       30.40600000000000        2.68800000000000
H           20.74300000000000       29.86600000000000        1.11000000000000
H           22.22800000000000       29.05400000000000        1.78100000000000
C           20.91200000000000       26.85800000000000        3.64000000000000
H           20.73800000000000       25.83000000000000        3.41800000000000
C           21.85500000000000       27.55600000000000        4.64400000000000
H           21.88100000000000       28.65300000000000        4.71500000000000
H           22.51100000000000       26.96300000000000        5.29900000000000
C           16.56400000000000       24.31800000000000        6.11700000000000
H           16.30200000000000       24.56400000000000        7.16800000000000
H           17.55500000000000       23.81700000000000        6.10100000000000
H           15.78800000000000       23.63900000000000        5.70200000000000
C           13.42500000000000       25.33600000000000        6.72900000000000
H           14.09700000000000       25.35100000000000        7.61400000000000
H           13.56500000000000       24.37700000000000        6.18600000000000
H           12.37300000000000       25.42599999999999        7.07400000000000
C           15.42600000000000       27.08300000000000       -1.87200000000000
H           14.45600000000000       27.16200000000000       -2.40800000000000
H           15.79800000000000       26.03900000000000       -1.95200000000000
H           16.15300000000000       27.78200000000000       -2.33800000000000
N           14.37700000000000       26.75100000000000        0.39300000000000
H           13.82600000000000       25.96600000000000        0.11100000000000
C           15.23200000000000       27.44100000000000       -0.43500000000000
C           14.40300000000000       27.28700000000000        1.60000000000000
H           13.82500000000000       26.92600000000000        2.45000000000000
N           15.23600000000000       28.31000000000000        1.58000000000000
C           15.76800000000000       28.42700000000000        0.31800000000000
H           16.48100000000000       29.20500000000000        0.07600000000000
C           17.65900000000000       31.33700000000000        7.11100000000000
H           18.26700000000000       30.91200000000000        7.93800000000000
H           16.85900000000000       31.97100000000000        7.54900000000000
H           18.31900000000000       31.95799999999999        6.46800000000000
C           17.03400000000000       30.20700000000000        6.28100000000000
H           16.39300000000000       29.61400000000000        6.96400000000000
H           17.86400000000000       29.56100000000000        5.92800000000000
S           16.05000000000000       30.67900000000000        4.86000000000000
C           15.67500000000000       32.38900000000000        5.16800000000000
H           16.60100000000000       32.99800000000000        5.24600000000000
H           15.11500000000000       32.49300000000000        6.12200000000000
H           15.06100000000000       32.80200000000000        4.34000000000000
87
 energy: -124.517603442273 gnorm: 0.219731552623 xtb: 6.7.1 (edcfbbe)
Fe          15.72531813907714       29.26564655740473        3.26486761828884
N           13.77639698303189       29.72272278294453        3.45584016690874
N           15.53158623316042       27.64444367419390        4.51680597084041
N           17.70775850339523       28.75547708099580        3.03606184249502
N           15.97092437663216       30.83576420043775        2.03039088957547
C           13.08860229051954       30.66377578396531        2.74744123737482
C           11.69147628318856       30.61908839383849        3.13404127958095
C           11.56050734573298       29.67352620961990        4.07043578590595
C           12.88324584460497       29.10334604532924        4.28577171342059
C           14.37469710726313       27.33049929798380        5.17519174085867
C           14.51803162369272       26.07890251628224        5.85969486605833
C           15.87922978311867       25.63935642963733        5.58859698466581
C           16.45695817157155       26.65838959212051        4.75651304523556
C           18.36354143171309       27.67444297109508        3.55660690726726
C           19.79086153140549       27.81307084722474        3.27989386409576
C           19.97219918948936       29.02016331811117        2.70265931783693
C           18.64853335652092       29.55476247100216        2.44131682261209
C           17.16640231886481       31.32221199180032        1.57074355874624
C           16.94122973745057       32.55091558248991        0.82971989330231
C           15.59471069529998       32.76597964620477        0.87052527417583
C           14.99300848147293       31.68118669112177        1.59692935687373
C           13.64255772543606       31.53195446705679        1.83526499429658
H           12.96276539523357       32.15536873299498        1.26301533833920
C           13.20851153519752       28.09163368862148        5.16497645129167
H           12.46948225146115       27.86184906331157        5.92707500374433
C           17.75746642335313       26.65314963773512        4.26495319001443
H           18.35797458880662       25.76701035701662        4.45359265456602
C           18.39770579265872       30.73700559314912        1.77249027489784
H           19.25584676940721       31.26393764248615        1.36580753853442
C           10.62251184035160       31.52224401462967        2.55042104873320
H           10.74647386717450       31.28579783818435        1.48765180949165
H           11.06423398977829       32.49936308124045        2.77835805310017
H            9.54045670044828       31.55696768989011        2.77409219469604
C           10.29164121760115       29.25657159532565        4.79656379061981
H           10.60408688021597       29.42834236175791        5.83251670877142
H           10.29977200208512       28.18551110898269        4.56610274606629
H            9.25992890515157       29.63979422718321        4.68051907376829
C           14.90878715235462       33.93620078370439        0.18200805723922
H           15.43947856720570       34.75895148486968        0.67647477173753
H           13.85992861011988       34.24975793941461        0.02764062668819
H           15.36351591880541       33.72993334636020       -0.79410078534770
C           17.95097901436660       33.48504254137869        0.16362352477062
H           18.30496255791829       33.29336188725334       -0.86784565683074
C           17.95707548154503       34.81067556120406        0.66380296804781
H           17.66622549326647       35.01968279976443        1.69834578065713
H           18.22150176364467       35.68064923520362        0.05573380578543
C           21.23184913025731       29.56008825526292        2.03586754246362
H           21.46006517168970       30.42672808585462        2.66785636348364
H           20.77717499085587       29.88672575692274        1.09437536566083
H           22.17870491529648       29.03548051724180        1.81132699448996
C           20.90605298170893       26.91160414309917        3.71771782144877
H           20.76676495092486       25.86512342348763        3.45055688751574
C           21.82394314255312       27.51778655747714        4.60880502236854
H           21.85988889330702       28.60854255328377        4.70510298000425
H           22.50186046254747       26.96038106948730        5.26012430033099
C           16.50949318684945       24.33995895247506        6.12844547635136
H           16.30122228122360       24.52364474384784        7.18966515523945
H           17.52250569677651       23.88302511891225        6.06897864118649
H           15.79202098772446       23.61222533104736        5.72496699367828
C           13.48572678663181       25.32023472738413        6.72079242551640
H           14.08370946354354       25.31339793092223        7.64085637600722
H           13.55341027415171       24.34841579751379        6.21547547624453
H           12.42407305756383       25.46932820592372        7.02371160455526
C           15.42331158120631       27.08173318047449       -1.87359112523017
H           14.46651726992280       27.15905511715109       -2.40860911975282
H           15.79489903903346       26.05053281482830       -1.95709074564888
H           16.14374823650822       27.77054237750747       -2.33212308570310
N           14.37472136948923       26.74244085540631        0.37869232220298
H           13.82066283461784       25.95555565320205        0.10035639038952
C           15.22838900026950       27.43692966080387       -0.44225728011842
C           14.40828593273920       27.28937827924480        1.59718402721569
H           13.83478719631942       26.93459355899201        2.44170692691755
N           15.24472607467747       28.30050367989629        1.59146743946029
C           15.76309075611753       28.42043530592424        0.32932262239237
H           16.47176687435554       29.19464789919194        0.08473943678668
C           17.66183379214853       31.34179647016616        7.11384365253811
H           18.26163329283005       30.91833043887128        7.92950187077301
H           16.87273423393451       31.96821918499370        7.54764880422505
H           18.31356533957576       31.95424557627544        6.47777574150572
C           17.04856597989241       30.20368493472595        6.30964231848126
H           16.39753223485772       29.60920569339907        6.96421760854175
H           17.85388499652218       29.56002702475823        5.92744683377241
S           16.06397256139654       30.68645302687637        4.88414194347390
C           15.67445353838783       32.40682439529643        5.17584467052475
H           16.59457170317976       32.99926346313156        5.24280022252812
H           15.11315900096336       32.49763502294103        6.11407341976676
H           15.06663091665600       32.78984645327592        4.34650757861400
87
 energy: -124.604468425183 gnorm: 0.132055187320 xtb: 6.7.1 (edcfbbe)
Fe          15.72625804672985       29.27102815391365        3.23065999912162
N           13.76994850789479       29.71436715721113        3.44552870222640
N           15.52780444891023       27.65299108751818        4.49496476287955
N           17.71297846647653       28.76505819949260        3.04225825103706
N           15.97867098828779       30.84129890366024        2.03104113230895
C           13.08023603476035       30.65179020118102        2.74469054315667
C           11.67530600321889       30.62159176389547        3.13005438394977
C           11.55033436509216       29.68131677065500        4.08250716698531
C           12.88386333914422       29.11027865566836        4.28509480378019
C           14.39056096858583       27.33207183122708        5.17064693112001
C           14.55134525130551       26.08100666791776        5.85289812470511
C           15.84885033223082       25.65555430094619        5.58595847902597
C           16.43713814372267       26.66299450603296        4.74481321293410
C           18.36507987677353       27.67883921954456        3.54996969384467
C           19.80379263973192       27.79835219210715        3.28847048855796
C           19.97744204575281       28.99112623534485        2.66002762330183
C           18.65045555506669       29.55641720912157        2.45759914760822
C           17.16261021326519       31.32928534847936        1.57130818484800
C           16.95142003666105       32.56417600494869        0.83792038136037
C           15.58286529409537       32.76070205959343        0.86762440175244
C           15.00259602333825       31.67450952028737        1.59531970363681
C           13.63968512063466       31.53047981980774        1.83451700136419
H           12.96828558313491       32.16734357136130        1.27522802681425
C           13.20800524197259       28.08810640914395        5.16332406965603
H           12.46463422833463       27.84095187778770        5.91126509518840
C           17.75341301885136       26.65542291024203        4.26366290094360
H           18.35582435291618       25.77770340933650        4.46897683545997
C           18.40056451947916       30.74014096985215        1.77605939729530
H           19.25252910628883       31.26567558173090        1.36595207289929
C           10.65645636901422       31.53398303460147        2.52758038076438
H           10.72880122058375       31.32012379795988        1.46451314959835
H           11.04460066076012       32.52517740094146        2.75129181216650
H            9.58880258483343       31.51532054672586        2.80359594975356
C           10.32592138365414       29.23073038176359        4.81709553733060
H           10.57992024004340       29.40236798622708        5.85958057989675
H           10.27618065379651       28.16707039465937        4.59737095892974
H            9.32220425907597       29.66000043115199        4.64430112336085
C           14.95171305137471       33.93704346478990        0.17180606506359
H           15.43310867725650       34.78813563705943        0.64831343314315
H           13.87956738831895       34.18077990707292        0.07072174567194
H           15.35602266900325       33.78417833987579       -0.82696934294067
C           17.88541510693365       33.54441381713013        0.18911983503222
H           18.28333696575919       33.29565581985808       -0.81992369438933
C           17.94762402221603       34.75664455113598        0.64250717243655
H           17.64975783318146       35.00265309495911        1.66459546361131
H           18.26027957008823       35.63516751390470        0.07099453582266
C           21.20277845203613       29.58866701567837        2.03440701512260
H           21.47304240507125       30.44386903149234        2.65022666459405
H           20.81418291008241       29.91702762955165        1.07402112283063
H           22.12224367677488       29.00820016816185        1.84751892295613
C           20.89972980659546       26.95343543736292        3.78259058093923
H           20.79400448165402       25.89411941771329        3.49487430717805
C           21.77723077157229       27.48221855852787        4.57880219710852
H           21.83162893451860       28.56809874591966        4.70746047622040
H           22.49811188480844       26.95353274920700        5.20504804314856
C           16.45287690536738       24.36433111035945        6.13774715070036
H           16.29638055829442       24.48666373241561        7.20981050181005
H           17.48911286517459       23.96882839721719        6.02537398808051
H           15.79023756356620       23.58842243151369        5.74830284438435
C           13.55023817691683       25.30637749918606        6.71231155237643
H           14.07502860293628       25.27387311460876        7.66746481920714
H           13.54818260315144       24.32149690910524        6.24335525582040
H           12.48390829866434       25.53027870266446        6.95984558899687
C           15.42080809928565       27.08211595699496       -1.87448758662124
H           14.47387241243384       27.15654548764670       -2.41072896264396
H           15.79221882005115       26.05950747774630       -1.96138294620947
H           16.13740594230299       27.76264974194395       -2.32790108624803
N           14.37102907129431       26.73556189649310        0.36640429468177
H           13.81429323410772       25.94689449441920        0.09175090974138
C           15.22458250535374       27.43527634498736       -0.44608778891902
C           14.41451711463650       27.28793201894300        1.59562772068619
H           13.84331963000521       26.93929867000328        2.43479594988959
N           15.25525564655147       28.28945386592508        1.60689611495340
C           15.76039526928242       28.41175316124325        0.34340761474294
H           16.46483063576834       29.18231363739892        0.09245042312673
C           17.66662753543291       31.34273198100023        7.12006652953032
H           18.26304394573044       30.92616657914967        7.92915821767737
H           16.88499012206617       31.96652603476653        7.54805375509468
H           18.30964832533445       31.94941976508630        6.48528027990153
C           17.06099525738751       30.20002349729275        6.33535710611190
H           16.40407088971747       29.60477386760634        6.97013116308900
H           17.84594734434280       29.55824044064634        5.92920092232967
S           16.07144105868205       30.68984215124552        4.89974742835087
C           15.67406974710797       32.42526779707158        5.18494424927586
H           16.58958863113894       33.00536013652078        5.24068826081636
H           15.10950582243641       32.50632775885732        6.10939022166055
H           15.07141363381444       32.77554992850019        4.35023995449316
87
 energy: -124.649428183312 gnorm: 0.064710039780 xtb: 6.7.1 (edcfbbe)
Fe          15.72586964097989       29.27732210341297        3.21245151484440
N           13.76689701778433       29.70453460066900        3.43132809009972
N           15.52131274246899       27.65729597975512        4.47179252519386
N           17.70825205521676       28.77616170804471        3.04504248052822
N           15.97856098551043       30.84312354917182        2.03159418082610
C           13.07728324186347       30.64159606634890        2.73544362898514
C           11.67431099209671       30.62053148401066        3.12545283593396
C           11.55448226667280       29.68426273019604        4.09067291825738
C           12.88794031249994       29.11195436796293        4.28218777476104
C           14.39327543887751       27.33972119913028        5.16192514585265
C           14.56596757136831       26.09002573635222        5.85288608222468
C           15.83879659129086       25.66597104504477        5.57847021572854
C           16.42807779209384       26.66855045246960        4.72584894953563
C           18.35433585809925       27.68614976829135        3.54384350482135
C           19.78756777445757       27.79773969894189        3.27641418801369
C           19.96689228268608       28.97929892644108        2.62638787085462
C           18.64487115410260       29.56142927903261        2.45917224055088
C           17.16035499631480       31.33414175175252        1.57964278099952
C           16.94168147695750       32.55848624563629        0.84654866352924
C           15.57708251915485       32.75736974097133        0.86228895804938
C           15.00094485308013       31.67078471711789        1.59136672377470
C           13.63714512778366       31.52745807944695        1.83264755122292
H           12.97187717457145       32.18572951217700        1.29215972672583
C           13.20802206685552       28.08577725020979        5.15701065523942
H           12.45574679636997       27.81175314015886        5.88713968910147
C           17.74553027613936       26.66200171004457        4.25821176257097
H           18.35361939084580       25.79470951036148        4.49016277649097
C           18.39977003185301       30.74706527821588        1.78239374565703
H           19.24866731759209       31.27047910190389        1.36590666324109
C           10.68122925400736       31.54222407875439        2.50921286061844
H           10.70955238576033       31.36139924876506        1.43373417101144
H           11.02460271718313       32.55709829716349        2.71647374256546
H            9.63195455552206       31.46736083765543        2.83854340486853
C           10.35376334449450       29.21045298215947        4.83543212184301
H           10.55415794430635       29.36821382093126        5.89587527830803
H           10.25356092091046       28.14200221961674        4.63649128709161
H            9.38394670952678       29.68639181948841        4.60326268820314
C           14.97724343837422       33.93621937554365        0.16187720511306
H           15.42400336168136       34.82306773279632        0.61380541041414
H           13.88506589813848       34.10354518177436        0.11866517570146
H           15.34772103168816       33.84835499645679       -0.86549121350649
C           17.83250315404062       33.52508468054206        0.18079268815244
H           18.24614981593059       33.27378434923789       -0.80555832343979
C           17.97749383722459       34.76893629085111        0.65892083419946
H           17.61541566824170       35.01745158680851        1.65348849109329
H           18.33284222240986       35.61986214235011        0.08549910447174
C           21.18157281258823       29.60798523056306        2.02975434021364
H           21.48336271835059       30.46493925787957        2.63249973037392
H           20.86147205457833       29.95841577096121        1.04502369149041
H           22.07054023079886       28.97092387472123        1.88918985127137
C           20.84679411063053       26.94814817433047        3.81163822227339
H           20.78451732832958       25.88898810462481        3.54213035746562
C           21.80516728705198       27.47886460170970        4.57650102836708
H           21.81379051713168       28.55422369384955        4.74174514017291
H           22.53672766661031       26.93461147169350        5.15957669063206
C           16.40954324552352       24.38482736609050        6.14299199628991
H           16.28442095401797       24.44831228747530        7.23082544087912
H           17.46305994728466       24.06805609391544        5.97095234537779
H           15.78181919880811       23.56446057752148        5.77549626121756
C           13.60148423889108       25.29833016339757        6.70714815193158
H           14.07198248670235       25.22620482663886        7.69592438849766
H           13.55143382034097       24.29201420237796        6.27483254256324
H           12.54289656676099       25.60628805512941        6.88844361181670
C           15.41840760636675       27.08245343483083       -1.87593741269608
H           14.47665612724128       27.15490215059951       -2.41768769255250
H           15.79148006139950       26.06307259239698       -1.96762050966072
H           16.13579493492178       27.75994953454932       -2.32596062870072
N           14.36625380432654       26.72774530676002        0.35877724979408
H           13.80692874297153       25.93975822479941        0.08187761465877
C           15.22104245106518       27.43136794322319       -0.44741922417435
C           14.41887799809979       27.27547666087210        1.59351214142872
H           13.84710869322390       26.93411951975741        2.43101603302817
N           15.26629055079562       28.27065322356501        1.61675448534801
C           15.76231199431060       28.39764001652400        0.35206065137389
H           16.46349598245667       29.16770808977606        0.10098874734426
C           17.67456819238764       31.34288344770814        7.13111507423433
H           18.27342042132820       30.93524075566247        7.93944495274553
H           16.89616243154052       31.96973414869734        7.55553391986224
H           18.31153821169622       31.94719389566317        6.49121479900465
C           17.06968440729252       30.19479922229612        6.35915718248577
H           16.41184261414150       29.59649121099599        6.98765189316970
H           17.84277590138706       29.55174178842691        5.93656257689634
S           16.07624278411226       30.69114891915146        4.92029710148880
C           15.67510361971934       32.43594273985347        5.19421156821702
H           16.58672358032290       33.01965737035207        5.23989362957140
H           15.10159158873469       32.52222240090681        6.11016928715923
H           15.07377011073081       32.75862927558471        4.34929399881615
87
 energy: -124.669736088574 gnorm: 0.051946388817 xtb: 6.7.1 (edcfbbe)
Fe          15.72824555305092       29.27718319106382        3.19886077145581
N           13.77178869263555       29.69543418274186        3.41433851819164
N           15.51323002905172       27.65444013667318        4.44972140919721
N           17.69996304306504       28.78473419853078        3.04013031909350
N           15.97572420538498       30.84472654414660        2.02873628471267
C           13.08013977005193       30.63248816019356        2.72353726120958
C           11.68019632977367       30.61975801399743        3.11841504016513
C           11.56569305216200       29.68600795472916        4.09486389331052
C           12.89666276035459       29.11142489851351        4.27106630647699
C           14.38879482531054       27.34358473306747        5.14861336644475
C           14.57053420144602       26.09890818969234        5.85607891172102
C           15.83940720084779       25.67176280415543        5.57040792463736
C           16.42487534831797       26.67189595581840        4.70516974634602
C           18.34531125692883       27.69686275804289        3.53725468993296
C           19.77751351815719       27.80923282589002        3.27682431649434
C           19.95343523202156       28.98129385700225        2.60216159497067
C           18.63705205635607       29.56398188390850        2.44971008616310
C           17.15873001169422       31.34083278126893        1.58450327160238
C           16.93901694477370       32.56237710824036        0.85594531063217
C           15.57677746236028       32.75963904180609        0.84972406483712
C           14.99854720314288       31.67176354379175        1.58251338391731
C           13.63711300885047       31.52810491818553        1.82991711384692
H           12.97579631967558       32.21054486678448        1.31451403354064
C           13.20534408928824       28.07878824249612        5.14099100589504
H           12.44268600015731       27.77894808999773        5.85024057337785
C           17.74106238734883       26.67179246677111        4.25248495812569
H           18.35670815876200       25.81870465946279        4.51478938757811
C           18.39764650567298       30.75450039599018        1.78357443452541
H           19.24495805985232       31.27888694665720        1.36705001987316
C           10.69700303962687       31.54572999866715        2.49912307011459
H           10.68833174943252       31.39342680385321        1.41612963174265