77
 energy: -118.995600723012 gnorm: 0.000075927367 xtb: 6.7.1 (edcfbbe)
Fe          28.66047036634619       10.81864295336512       13.03892167616674
N           30.57601709749341       11.45857788928882       12.92376692727211
N           29.00998037060790        9.48305499587619       11.55966372272735
N           26.70483839756433       10.31348980133746       13.00420419517184
N           28.27460012869888       12.30815788314348       14.34619750577621
C           31.15987183947502       12.43318916472436       13.66790767035748
C           32.56710942799138       12.53423650129798       13.34828733566983
C           32.81395942162132       11.59049304736064       12.39936115111538
C           31.55363701841035       10.92601381217061       12.14677034852088
C           30.20500584267596        9.24272958616777       10.96043939463970
C           30.07963099972767        8.18073585075264        9.99343119606692
C           28.77056022090501        7.77812208099897       10.02880721551574
C           28.11917557047891        8.61340265764420       11.01913470196428
C           26.13319060938256        9.30335595518231       12.29736349742148
C           24.73472535882342        9.18416174325118       12.63012139783539
C           24.47803913198988       10.15090508308236       13.56599636755234
C           25.73634450262579       10.83645107675328       13.79327496566358
C           27.07748549373808       12.55571359456624       14.93468958099120
C           27.20368957554479       13.62946785587960       15.89713898575832
C           28.50930363685714       14.01188892321480       15.87697120489854
C           29.16665133446616       13.16581701739891       14.90400355802542
C           30.51325029201538       13.23631567165955       14.59228522120378
H           31.10848882228432       13.96723106137356       15.11876533436332
C           31.39074045954406        9.90521686406039       11.23043779367170
H           32.26826305826216        9.58686145457151       10.68852696743992
C           26.78353452921669        8.51063621091533       11.36585139788317
H           26.19994122764884        7.74863107511195       10.87153890802470
C           25.89413784434775       11.89055731323796       14.67465463980713
H           25.02327146744553       12.20558388472543       15.22896326868261
C           34.09380923410271       11.25135142946915       11.71629349533423
H           34.89990369933376       11.89189406304228       12.06470011812880
H           33.99824063859905       11.37472019146676       10.63734964625630
H           34.36788896354982       10.21577831153086       11.91593868825310
C           33.50468894042224       13.50080662503996       13.98593106779305
H           33.55213839057257       13.32990768201558       15.06109717003669
H           33.17302408112747       14.52619023365967       13.82073409635914
H           34.50649489742421       13.39461354420212       13.57795654651113
C           31.17169251783690        7.69846929729255        9.10443733832409
H           31.81749005563460        6.99570689394589        9.63245016009076
H           31.78611580570777        8.52984927440074        8.76249799864658
H           30.75167993970905        7.19423506413968        8.23664694935369
C           28.10629883857085        6.75480315171655        9.24946257397552
H           27.07397595970495        6.95922022530014        8.99011566941924
C           28.65803201319783        5.61316792768044        8.85305632779844
H           29.66163720940098        5.33805369144737        9.12575273436928
H           28.10863626626144        4.89683886854815        8.26530129017181
C           23.81413106868679        8.14557542063805       12.09321275263659
H           24.32687009836372        7.18954766665151       12.00291288530871
H           23.44238366364575        8.42609610760778       11.10613358974433
H           22.96290075044496        8.02306838679623       12.75924747353190
C           23.23881101000512       10.45247299469147       14.25014831465008
H           23.34067012514373       10.77704767693979       15.27842508000454
C           22.02559756492433       10.36240105528880       13.71601541631403
H           21.87112377260280       10.08738819908916       12.68701713078703
H           21.14061850916976       10.58667283322364       14.28774378412504
C           26.08011799826186       14.15150108314488       16.72365408787177
H           25.69491465407101       13.36679464990943       17.37420677410011
H           25.26401468347014       14.49808311511587       16.08953111937939
H           26.40906501851056       14.98045021116646       17.34523652474197
C           29.19914429276068       15.06273513037525       16.67646853466793
H           28.49410941651585       15.58666927708167       17.31649851109957
H           29.67946630729591       15.79189738302910       16.02357432163449
H           29.96715683085080       14.61516128662889       17.30684771893158
O           29.07470159626052        9.69927149800210       14.21255814928754
O           28.32072799217196        9.58688341342554       15.24149689327504
C           26.74389181258600       13.58490964991575        8.21970542016877
H           27.47630920789760       13.88210305488310        7.46924316371801
H           26.03339831638050       14.40199272126577        8.34462375876025
H           26.20977243711144       12.71182703042791        7.85807475587680
N           28.16737873874558       14.17710800648678       10.19378598070197
H           28.34483961204454       15.12619016464998        9.90709122123681
C           27.40901347340639       13.26377159367997        9.50698512097302
C           28.62275632877733       13.57121269097212       11.31161531906063
H           29.24525010110334       14.04656532921833       12.04200886209765
N           28.20249368767680       12.33565437378821       11.37622842471798
C           27.44618303475882       12.12643972305138       10.26315016149781
H           26.98352639900656       11.17826078880476       10.08236074808268
