72
 energy: -105.980207829226 gnorm: 0.000118626517 xtb: 6.7.1 (edcfbbe)
Fe           8.85669841495276      -18.28657452871120       10.02349818434199
N            9.59696638617182      -17.32089080184328        8.44791693839642
N            8.25865680951429      -16.55174844896137       10.81962384123055
N            8.20193614554366      -19.26049929409617       11.65783614681451
N            9.49649788558205      -20.02472119037074        9.25847025147833
C           10.18291984698821      -17.86973116936661        7.35348673577884
C           10.59884732718599      -16.84039065673030        6.42497496107597
C           10.25804230496943      -15.65419411784849        6.99366677857819
C            9.62825737077018      -15.97626980551611        8.25622791304737
C            8.46193255164087      -15.30807045809844       10.30768608959662
C            7.87437827254519      -14.30220802662848       11.15525999783151
C            7.29583103392431      -14.97006658112034       12.20135734799960
C            7.57073278427622      -16.37615173265073       11.97792928200670
C            7.50602939756140      -18.72201412347769       12.69822811643118
C            7.18465358991479      -19.73102071191245       13.67039116776442
C            7.73441217800687      -20.89932213727504       13.21310924860576
C            8.33345277316755      -20.58553696836916       11.93306259731136
C            9.36379624397403      -21.26021977145598        9.81178820709529
C            9.84720570132739      -22.27877071946456        8.90646883400700
C           10.26773113358294      -21.62813391783006        7.78891174488927
C           10.04021623469064      -20.22068488891485        8.02835121479923
C           10.36928468871156      -19.22124820797370        7.13380227189216
H           10.81808554488343      -19.51756500047599        6.19862878890449
C            9.11009434993053      -15.03045504529823        9.11670985788560
H            9.20268973741627      -13.99451034231016        8.83006298243625
C            7.18185268314158      -17.38388906123447       12.83855595540644
H            6.61017838813605      -17.10549445311065       13.71001372620267
C            8.84960531632926      -21.52950837408123       11.06487027370403
H            8.80594548870225      -22.56101622281040       11.37517265244071
C           10.45516657380232      -14.26869008577314        6.48316535634219
H           10.96030515309922      -14.27971920599399        5.52064814115313
H           11.05847007101972      -13.68764168334698        7.18061515725472
H            9.49661175308113      -13.76321603757799        6.36192463795731
C           11.27190059143416      -17.10676214104501        5.12293807319591
H           10.64541871681430      -17.73390144972637        4.48826652966894
H           12.21844774615711      -17.62408293572624        5.28047637051758
H           11.47312643828390      -16.17811286838015        4.59484373329206
C            7.96472663083027      -12.83403284935461       10.92920291023605
H            7.21494388086459      -12.50218778993924       10.20872893889418
H            8.94646996187971      -12.56522060141524       10.54261817495301
H            7.80082124611180      -12.30264938756975       11.86432388212693
C            6.58239094370355      -14.43976087940569       13.34234549731805
H            6.71064648519738      -14.98414565982231       14.27053613090818
C            5.79756566521451      -13.36757281400963       13.32712344682698
H            5.59712618968533      -12.81643189789309       12.42486076765762
H            5.30491965811901      -13.01786132767553       14.21900566598803
C            6.45285459257831      -19.48778326720925       14.94403473088409
H            5.49297520824404      -19.00875339233606       14.75017276068700
H            7.02935355746413      -18.83415637284880       15.59987157891159
H            6.27632076213148      -20.42360177578623       15.46798312299166
C            7.72059174969188      -22.18595203020308       13.87790238016555
H            6.80901376851433      -22.41799733371720       14.41754024645841
C            8.72672608685804      -23.05216645412676       13.90844473791239
H            9.67254947778318      -22.84885900832540       13.43510886198162
H            8.64652497442489      -23.99041355963013       14.43150282796118
C            9.84792295800454      -23.73699474507268        9.20967971783286
H            8.83316942740265      -24.08721903964812        9.39821695596812
H           10.44664407211065      -23.94539022639859       10.09671084816487
H           10.25842850376758      -24.30450973986653        8.37835988459768
C           10.85543232450385      -22.18153842389279        6.53703683321549
H           10.23874596504618      -21.91880808621875        5.67753194009080
H           10.92633982092227      -23.26498175919051        6.58957155448101
H           11.85529712253659      -21.77942278409528        6.37169436424556
O           10.83239775973426      -18.15657242183881       11.08323564746422
H           11.29799256063452      -18.89987433590309       10.68254641025451
H           10.57232191442258      -18.43080829606720       11.97046096638974
C            6.37153510074500      -17.15213991700442        8.00354523914996
H            5.30939723524999      -17.14282276953598        7.77891557742902
H            6.94713503032432      -17.25978466021752        7.09013291876598
H            6.67422751023631      -16.24998213578218        8.52414649364564
S            6.75266264042559      -18.61193509693683        9.03428001015408
H            6.00045158741149      -18.22663599552691       10.07168786795524
