72
 energy: -105.893798958955 gnorm: 0.243124370244 xtb: 6.7.1 (edcfbbe)
Fe           8.54300000000000      -18.29200000000000        9.97200000000000
N            9.48000000000000      -17.30800000000000        8.46000000000000
N            8.29900000000000      -16.50700000000000       10.91100000000000
N            8.05400000000000      -19.26300000000000       11.71100000000000
N            9.26500000000000      -20.04400000000000        9.19300000000000
C           10.02100000000000      -17.88500000000000        7.31200000000000
C           10.39000000000000      -16.83900000000000        6.38200000000000
C           10.06900000000000      -15.68300000000000        6.97800000000000
C            9.49000000000000      -15.94500000000000        8.27000000000000
C            8.48100000000000      -15.23700000000000       10.37500000000000
C            7.95200000000000      -14.25300000000000       11.29900000000000
C            7.50200000000000      -14.91700000000000       12.37500000000000
C            7.69700000000000      -16.32400000000000       12.14400000000000
C            7.48200000000000      -18.67000000000000       12.81500000000000
C            7.07500000000000      -19.71000000000000       13.74100000000000
C            7.43900000000000      -20.88700000000000       13.19200000000000
C            8.05900000000000      -20.62600000000000       11.91500000000000
C            9.21300000000000      -21.28000000000000        9.82800000000000
C            9.94900000000000      -22.23100000000000        9.00700000000000
C           10.41000000000000      -21.60000000000000        7.93200000000000
C            9.98000000000000      -20.21700000000000        8.02100000000000
C           10.22300000000000      -19.23000000000000        7.09900000000000
H           10.60500000000000      -19.53400000000000        6.12400000000000
C            9.04100000000000      -14.98000000000000        9.14600000000000
H            9.13700000000000      -13.93800000000000        8.84200000000000
C            7.32400000000000      -17.31900000000000       13.01900000000000
H            6.86300000000000      -17.00900000000000       13.95700000000000
C            8.58000000000000      -21.54600000000000       11.03000000000000
H            8.48300000000000      -22.59600000000000       11.30700000000000
C           10.25600000000000      -14.28200000000000        6.39100000000000
H           10.70600000000000      -14.36100000000000        5.37800000000000
H           10.93500000000000      -13.69000000000000        7.04100000000000
H            9.27100000000000      -13.77500000000000        6.30900000000000
C           10.99000000000000      -17.02100000000000        4.95600000000000
H           10.18700000000000      -16.90200000000000        4.19800000000000
H           11.42800000000000      -18.03700000000000        4.86000000000000
H           11.77200000000000      -16.25200000000000        4.77700000000000
C            7.97400000000000      -12.72900000000000       11.03500000000000
H            6.97600000000000      -12.40100000000000       10.67400000000000
H            8.73300000000000      -12.49300000000000       10.25900000000000
H            8.21300000000000      -12.18900000000000       11.97600000000000
C            6.84100000000000      -14.37500000000000       13.65800000000000
H            6.74400000000000      -15.03300000000000       14.53400000000000
C            6.37100000000000      -13.13100000000000       13.77000000000000
H            6.44100000000000      -12.42900000000000       12.92600000000000
H            5.90700000000000      -12.79200000000000       14.70800000000000
C            6.37300000000000      -19.48300000000000       15.10500000000000
H            5.28900000000000      -19.30300000000000       14.93900000000000
H            6.81200000000000      -18.59700000000000       15.61000000000000
H            6.49500000000000      -20.38400000000000       15.74400000000000
C            7.19200000000000      -22.25800000000000       13.84800000000000
H            6.28600000000000      -22.45100000000000       14.44000000000000
C            8.09600000000000      -23.23700000000000       13.69700000000000
H            9.01000000000000      -23.06700000000000       13.10900000000000
H            7.93500000000000      -24.22200000000000       14.15900000000000
C           10.14700000000000      -23.71300000000000        9.36200000000000
H            9.17900000000000      -24.24900000000000        9.26800000000000
H           10.50900000000000      -23.80300000000000       10.40900000000000
H           10.88200000000000      -24.17100000000000        8.66600000000000
C           11.25700000000000      -22.20900000000000        6.79600000000000
H           10.63000000000000      -22.90500000000000        6.19900000000000
H           12.11200000000000      -22.77300000000000        7.22600000000000
H           11.63100000000000      -21.40100000000000        6.13200000000000
O           11.32500000000000      -18.53400000000000       10.95200000000000
H           11.87300000000000      -18.09400000000000       10.30200000000000
H           11.60700000000000      -18.93100000000000       11.69600000000000
C            6.46700000000000      -17.71400000000000        7.40600000000000
H            5.45700000000000      -17.46400000000000        7.01800000000000
H            6.91000000000000      -18.48400000000000        6.73900000000000
H            7.08900000000000      -16.79500000000000        7.36200000000000
S            6.38500000000000      -18.32300000000000        9.08300000000000
H            6.05400000000000      -17.15500000000000        9.61400000000000
72
 energy: -105.943495062658 gnorm: 0.100601201963 xtb: 6.7.1 (edcfbbe)
Fe           8.68236502238938      -18.29097735330889       10.03252993634358
N            9.46932668330136      -17.31103426901723        8.44144968730757
N            8.27466819337829      -16.50171213027616       10.91337528047858
N            8.04208055047516      -19.26699146792140       11.71016015282491
N            9.27396901040475      -20.04996785607456        9.20057645495588
C           10.00920537601298      -17.87681436297931        7.30632445452354
C           10.38500188003210      -16.83836529617154        6.36834052278733
C           10.06962938847282      -15.66346506601880        6.96507902995464
C            9.49443223468255      -15.95364582866912        8.25817249926057
C            8.46339073386587      -15.24353873268102       10.38332555092177
C            7.95775788721060      -14.24046125560690       11.30250658537406
C            7.48920351386892      -14.90726486535777       12.39557112458555
C            7.69238726946954      -16.31940007672922       12.14334018685920
C            7.47434457362394      -18.68667519913085       12.81199853579693
C            7.06833174193301      -19.71558850370332       13.75039884813856
C            7.42467804189966      -20.90882534115969       13.19759316350896
C            8.04301258258551      -20.62156410120863       11.91388421996861
C            9.21244824881818      -21.27508901946766        9.81867785531639
C            9.93870674082606      -22.24619909978767        9.01504969047937
C           10.40479383893928      -21.60466224741965        7.92138313925378
C            9.96680332449168      -20.22564446688770        8.02988342499309
C           10.21398635611730      -19.22877983065204        7.10508504814220
H           10.61590755556547      -19.52892183307421        6.14263533490666
C            9.03810209393103      -14.99285801471408        9.14802874099737
H            9.13571946662611      -13.95630051558237        8.84308012902393
C            7.32252876720607      -17.32686608659445       13.01531290187538
H            6.86500723137451      -17.01980557694737       13.94811541001116
C            8.57322719287320      -21.54068053936343       11.02076596207767
H            8.48474995561534      -22.58568501802009       11.29276911734354
C           10.25565036387928      -14.28360454361103        6.39358275059218
H           10.69674671316189      -14.35301831099360        5.39526321254882
H           10.92098002648442      -13.69225368352210        7.03159784037454
H            9.28914678117560      -13.77496394238417        6.31266961201339
C           10.97943764452169      -17.02389292119745        4.98072675726091
H           10.19865519585480      -16.90548177685988        4.21960409615893
H           11.42100168898904      -18.01744516134845        4.86724118167285
H           11.75459481089461      -16.27355056200934        4.79010012176909
C            7.97997811117626      -12.74906653791519       11.03508933854000
H            6.99791714673500      -12.41173475378708       10.67860130500005
H            8.72345811407478      -12.49910500673324       10.27371257052129
H            8.22248003563975      -12.20341989840500       11.95267655012996
C            6.85293596490784      -14.37066379932358       13.63402229927915
H            6.76392693076914      -15.03715649141123       14.49121313143762
C            6.37609949246339      -13.13640985860889       13.76349211385231
H            6.41738811651896      -12.43035973528909       12.94740226077791
H            5.91898375358927      -12.80177802117079       14.68953589665086
C            6.38384195590664      -19.48417795855757       15.08425276057295
H            5.31196997724556      -19.30384131989292       14.93516456917847
H            6.80916526895239      -18.61610361729305       15.59758261647619
H            6.49824075582629      -20.36328085388062       15.72594737482651
C            7.21134166847615      -22.24889958002152       13.82117259947889
H            6.31118613203701      -22.41354675836936       14.41341497395301
C            8.09560454134909      -23.23370289360078       13.69705992414737
H            9.01316270853149      -23.08433690933690       13.14371815945451
H            7.93587493707336      -24.20513878940600       14.15339173664814
C           10.13934619482142      -23.70080506117328        9.36515192351498
H            9.19127698287804      -24.24190124339636        9.27389228479248
H           10.50228920931716      -23.80327444501232       10.39296774907964
H           10.86415889271194      -24.15853874767059        8.68434019686550
C           11.24269531666294      -22.19740603245788        6.80658966200433
H           10.63845078668718      -22.89099946018684        6.20996317535927
H           12.09156587698256      -22.75507577249392        7.21848580812390
H           11.62664983635339      -21.41598806658049        6.14554681435864
O           11.27041613334423      -18.51440087098036       10.92313914455849
H           11.86117501991701      -18.09671846226176       10.30026565369136
H           11.59559181390757      -18.93573962584288       11.69975351926097
C            6.46948937786049      -17.70292832887791        7.39662221188603
H            5.46152231456826      -17.47218387293339        7.03077283235959
H            6.90843375448894      -18.47369440729223        6.75582338398245
H            7.08877272628615      -16.80289393472438        7.35125700241565
S            6.43153635056184      -18.31876603400307        9.09278535648426
H            6.04409512042633      -17.15596799465822        9.61699453993580
72
 energy: -105.960972542991 gnorm: 0.026219694570 xtb: 6.7.1 (edcfbbe)
Fe           8.78049256669548      -18.28900481701410       10.07065504980553
N            9.48567167553411      -17.31534589636354        8.44456034195169
N            8.29229873166617      -16.50179696661135       10.93179211093573
N            8.05821246311703      -19.26521674743982       11.70954464810140
N            9.29996578327439      -20.04395059764908        9.22097781319772
C           10.00534627347734      -17.87080294404910        7.31235207339203
C           10.37614771707630      -16.83929516685698        6.36491866906088
C           10.06709996960574      -15.65167326532123        6.96098794995643
C            9.50225997818496      -15.96491593511396        8.25706583869630
C            8.46342104025343      -15.25736232117874       10.39490818739237
C            7.96482199611414      -14.24028538111688       11.29837016082681
C            7.48106630193220      -14.90408161757800       12.40407478317792
C            7.69964125228551      -16.31997279654820       12.14350308646727
C            7.47903943403204      -18.69834486757655       12.80342416354897
C            7.06562242900818      -19.71801053206655       13.74431513812160
C            7.42067367304198      -20.92178916991828       13.19137804264574
C            8.04426026389112      -20.61184141701632       11.90842655577152
C            9.22036655951710      -21.26276660465280        9.81677418886837
C            9.92394139371947      -22.25198603331752        9.02030088447918
C           10.39254434416182      -21.60364818944941        7.91525225306896
C            9.96551290491357      -20.22505750067690        8.04740605439476
C           10.21336286724022      -19.22602897135199        7.11827018030965
H           10.62993660598300      -19.52488648480815        6.16619064322651
C            9.03689266294525      -15.01060446288777        9.15255964282105
H            9.13095422285371      -13.97859037939801        8.84463694430768
C            7.32327742258374      -17.33526490803061       13.00837388531710
H            6.86194067280961      -17.03435437971155       13.93661303769034
C            8.57284554488073      -21.53386389777608       11.01422317769974
H            8.48340556931694      -22.57604116203343       11.27879161543820
C           10.25246325630840      -14.28580375945160        6.39963508685854
H           10.68957849129344      -14.34557200483675        5.40859162104419
H           10.90952044515955      -13.69223846168306        7.03117113470718
H            9.29793839658158      -13.77055559905247        6.32008696988619
C           10.96458780329644      -17.02784558901395        5.00653839926506
H           10.19827455474305      -16.91158210144440        4.23947785256654
H           11.40969687920116      -18.00970281006777        4.88746209001642
H           11.73745240771656      -16.28679933876635        4.81227860614784
C            7.99076248105269      -12.77352855257731       11.03420192361637
H            7.01709961199638      -12.42849400532615       10.68207560149662
H            8.72582599472730      -12.51717126049292       10.27875270841848
H            8.23541477801480      -12.22456200806174       11.94025408120474
C            6.86768947077847      -14.37275372827477       13.60023182031038
H            6.79440542183908      -15.04847600889676       14.44381426005255
C            6.37875657166370      -13.14419090847637       13.75267423482756
H            6.39044743743307      -12.42322249386179       12.96117420937981
H            5.93575644074328      -12.81919036521197       14.67867319658045
C            6.39689628223022      -19.48587754737243       15.05761692526513
H            5.33119013488200      -19.30111830104732       14.91984517692279
H            6.81713115324036      -18.62766153316417       15.57569679407426
H            6.50592370069940      -20.35305577049026       15.70278227278276
C            7.23253554087856      -22.23025795311175       13.78964562233859
H            6.32964377676630      -22.36739886968286       14.37588079089452
C            8.10163611021155      -23.22973337067405       13.70009480568435
H            9.02859809098964      -23.10920315934378       13.17177201091482
H            7.92986924516435      -24.19000591723045       14.15410318561462
C           10.12450563460187      -23.68667176318701        9.36837257437953
H            9.18902014911851      -24.23597999929983        9.28272305362595
H           10.49033635287933      -23.79694298002912       10.38592775511282
H           10.84500149653039      -24.14243623221569        8.69506213411028
C           11.22104487528451      -22.18548834888811        6.81667642566842
H           10.63245666851322      -22.87869933015942        6.21683519636666
H           12.06629144254514      -22.73916338127455        7.22302002023395
H           11.61381302305844      -21.41709967819331        6.15993996576670
O           11.15853380717004      -18.45814883061896       10.90253448171448
H           11.82203491549592      -18.11310665059515       10.29418251371844
H           11.52690629851240      -18.93374006052116       11.65680680549524
C            6.47896540667587      -17.69373879148315        7.38748861969724
H            5.46641439632177      -17.47925056084431        7.05503892303783
H            6.91078496917425      -18.46947314672104        6.76594799205208
H            7.09380959633505      -16.80382947029629        7.34230665591793
S            6.45545195734665      -18.32615093265688        9.09719400957991
H            6.04751221270949      -17.16929501188969        9.63276437198048
72
 energy: -105.966362028794 gnorm: 0.045475283387 xtb: 6.7.1 (edcfbbe)
Fe           8.83270951052936      -18.28889683338953       10.08923671740016
N            9.50398954113195      -17.31702015423922        8.45526677493685
N            8.31787727841958      -16.50671123175225       10.94304145142081
N            8.08829592883334      -19.26123986821659       11.70907505014254
N            9.32524879141996      -20.03465759537482        9.23660734193186
C           10.01505405588177      -17.86922082060617        7.32241405800393
C           10.36939762760686      -16.83915964289383        6.37000624016584
C           10.06214933700359      -15.64992741747374        6.96412976496156
C            9.51288550719667      -15.96920339308253        8.26408821191925
C            8.48253780031659      -15.26758934135866       10.40164831605462
C            7.97473602681671      -14.24912989570044       11.28961333526292
C            7.48532529568721      -14.90799357070400       12.39698900166315
C            7.71669493433034      -16.32408175134315       12.14595235383420
C            7.49593931358621      -18.69937768291150       12.79641564208507
C            7.07233286655880      -19.71748024124788       13.72806783066067
C            7.43333403392755      -20.92089482850186       13.17727504488831
C            8.06427462826412      -20.60494900385808       11.90251867858253
C            9.22954641296087      -21.25519583318708        9.81979420067558
C            9.91073146188119      -22.25039168444447        9.01857491313932
C           10.38074271937542      -21.60087155770789        7.91373438409173
C            9.97696811885234      -20.21890765438840        8.05875051383392
C           10.22831490067787      -19.22299522571081        7.12935047637985
H           10.64928261144301      -19.52293506196653        6.18140477761593
C            9.04778923596405      -15.01895548383854        9.15815102030335
H            9.12635116049970      -13.98890207253160        8.84384057730992
C            7.33232281082573      -17.33903183241757       13.00570445764216
H            6.85241497704809      -17.04539529419156       13.92664395388661
C            8.58035559401658      -21.53214931549806       11.01186320597810
H            8.47493808033660      -22.57441774204109       11.26594196395350
C           10.24606330122645      -14.28272196480887        6.40761008237599
H           10.68342064920084      -14.33666225791253        5.41543932626337
H           10.90285769494264      -13.68926530077060        7.04125878928039
H            9.29298862066860      -13.76245162689883        6.33050414790720
C           10.95582194183620      -17.03421176510935        5.01652926304196
H           10.19054373954107      -16.92174540678598        4.24751073184683
H           11.40217908922871      -18.01688822655256        4.90536927159258
H           11.72873475909171      -16.29216108784141        4.82510418866607
C            8.00706687863632      -12.78670251755309       11.02730739548943
H            7.03328032078878      -12.43694132831307       10.67963039593202
H            8.74247609089296      -12.53355353817237       10.27012245234617
H            8.25723287925820      -12.24282448352085       11.93553469874833
C            6.87736469280491      -14.37511793359334       13.58577254434311
H            6.82002958224572      -15.05735486645948       14.42484346179192
C            6.37897213986559      -13.15049519538491       13.75254726385004
H            6.35266929107667      -12.42068204702833       12.96538753456828
H            5.94829801069914      -12.83936591197413       14.68838875309163
C            6.40540208556996      -19.48441143686217       15.03804309414036
H            5.34035977855918      -19.29297077719372       14.90039197916186
H            6.83248101483147      -18.62853798971896       15.55545864747024
H            6.51243630924809      -20.35309935566242       15.68204541053206
C            7.24516705576494      -22.22506962629849       13.76769512003838
H            6.33407016450395      -22.34578078085945       14.34418136739617
C            8.10647792836095      -23.23569976733684       13.70438362033102
H            9.05867204169077      -23.13198253350482       13.21085661568043
H            7.91610666295403      -24.18635447897747       14.17008601705427
C           10.10510808731129      -23.68203301066692        9.37139379324125
H            9.16985548556627      -24.23385154083654        9.29178221384132
H           10.47379342753271      -23.78913539766224       10.38929087014693
H           10.82529853161655      -24.13818457910533        8.69769822630106
C           11.20334659118527      -22.18019844180544        6.81564962211246
H           10.61525122224021      -22.87151992204998        6.21305367849333
H           12.04608532516502      -22.73485603312525        7.22679127506640
H           11.60043244109987      -21.41000461355991        6.16284632115370
O           11.02507589090825      -18.33752352498855       10.91316154221509
H           11.74393543898942      -18.14115573421383       10.26141827782069
H           11.41274124506176      -18.94208741987262       11.59171293260317
C            6.49021394478181      -17.68983328448450        7.39005444525914
H            5.47046427274745      -17.48291230171127        7.07797745832998
H            6.91799996873292      -18.46838969283173        6.77043928699148
H            7.10305938220953      -16.79906301796212        7.34015659388363
S            6.47704801342850      -18.33390310836862        9.10297474957198
H            6.05957744654212      -17.18661414108279        9.65349628130433
72
 energy: -105.967896355981 gnorm: 0.028784453542 xtb: 6.7.1 (edcfbbe)
Fe           8.85257199186914      -18.28810617520704       10.09339902080379
N            9.52297877431761      -17.31898152380795        8.47009149719993
N            8.34561158496905      -16.51479988110705       10.95165570093714
N            8.12389840784635      -19.25538533009308       11.70535362686284
N            9.35457643485585      -20.02154995325641        9.25600313504258
C           10.02911363839538      -17.86848878156142        7.33541129912592
C           10.36423468804955      -16.83882080289799        6.37883499150447
C           10.05702178006963      -15.65088451130018        6.97016896896717
C            9.52427145080964      -15.97284495715091        8.27385242538737
C            8.50688371386624      -15.27883947677584       10.40738382237616
C            7.98776546112744      -14.26128917189688       11.28033142497834
C            7.49382574917699      -14.91444462202803       12.38557060857421
C            7.73606469237986      -16.32974710579068       12.14766746110978
C            7.51734553940841      -18.69769031548460       12.78701889800098
C            7.08322449396622      -19.71578084808295       13.70717045766002
C            7.45321376057398      -20.91576530246380       13.16010562640896
C            8.09235966226125      -20.59721238074819       11.89631278371054
C            9.24088534127445      -21.24788247708723        9.82568097766509
C            9.89656571459494      -22.24641247684717        9.01506950990866
C           10.36838890967072      -21.59675860384058        7.91402605839062
C            9.99320801687594      -20.21012410440084        8.07144224197286
C           10.24907970407559      -19.21938168876894        7.14224367929186
H           10.67337656810911      -19.52131872902583        6.19775666805400
C            9.06086275425847      -15.02610602653205        9.16392779521382
H            9.12263972328688      -13.99753069460241        8.84336349456681
C            7.34209783853029      -17.34220605879086       13.00180987223900
H            6.83997134188433      -17.05758588279151       13.91468278088773
C            8.59210571823016      -21.53206819538954       11.01211043395629
H            8.46986172742164      -22.57440451945339       11.25861400855355
C           10.23758837096724      -14.27875188246387        6.41813118420665
H           10.67602800321975      -14.32606087264806        5.42351704160329
H           10.89505287641030      -13.68653655006992        7.05633768294675
H            9.28373624501142      -13.75479450789642        6.34408654366576
C           10.94846789682485      -17.04153102802142        5.02469107985729
H           10.18129868306128      -16.93447379018902        4.25533387473859
H           11.39527130708351      -18.02720511200651        4.92479500592242
H           11.72155354034939      -16.29730134207200        4.83530996206642
C            8.02658051853266      -12.79861430323194       11.02040881203332
H            7.05212371150312      -12.44396837773336       10.67652250549769
H            8.76426772368354      -12.55048488207400       10.26081238607650
H            8.28188500956576      -12.26224843402691       11.93374657676922
C            6.88611561788953      -14.37896494054088       13.57381765324718
H            6.85208781256674      -15.06507154725029       14.41201921019905
C            6.37410792388854      -13.16042185641020       13.75064275462129
H            6.31622375598481      -12.42097156233732       12.96834270687597
H            5.96141336950623      -12.86322095687286       14.70073994634480
C            6.41434720156778      -19.48184831444070       15.01690505157620
H            5.34979519059120      -19.28185994959908       14.87617490911955
H            6.85139295178858      -18.62808376306500       15.53309801164176
H            6.51804777812668      -20.35480368442577       15.65822115651850
C            7.26048559631393      -22.22074207219149       13.74877719401147
H            6.33475961937362      -22.33018335474445       14.30464147130219
C            8.11727116766396      -23.23906890039817       13.71530670628277
H            9.08588493202571      -23.15808863897084       13.24179484518460
H            7.89905064969231      -24.18317380951152       14.18630506144712
C           10.08091369665200      -23.67892716350177        9.37382929074301
H            9.14262711953822      -24.22985867975587        9.30125957490262
H           10.45199753773017      -23.77992011592094       10.39404348003207
H           10.80026874556455      -24.13866978915353        8.69921270287215
C           11.18432769179775      -22.17589358378925        6.81165683796095
H           10.59268695982648      -22.86341675968638        6.20637324508194
H           12.02463753043542      -22.73395417581850        7.22715180983113
H           11.58491445357618      -21.40157074196734        6.16278764256580
O           10.91849076926090      -18.39165269938220       10.83810969335474
H           11.60549081491253      -18.06383389269732       10.27998923478949
H           11.31006814078366      -18.85407416210562       11.57389990910838
C            6.50142875344497      -17.68757898674202        7.39525241842196
H            5.47694335616579      -17.48282209063516        7.09789417306451
H            6.92642741522310      -18.46770642484560        6.77374873651693
H            7.11509285806510      -16.79529942367616        7.34328554779263
S            6.48557976936979      -18.34692608501151        9.10608469355261
H            6.07226175230364      -17.20901019493273        9.67588240630506
72
 energy: -105.970223150829 gnorm: 0.011494097803 xtb: 6.7.1 (edcfbbe)
Fe           8.79362329980862      -18.29325369399757       10.06403677914867
N            9.52045778757263      -17.32204468486657        8.47300409258659
N            8.35079714164304      -16.52190107387576       10.94704081413756
N            8.12884722539132      -19.25405968576226       11.69711214324301
N            9.34552789816716      -20.02153636685733        9.25198324308795
C           10.03504519422257      -17.86975198378988        7.33925036908948
C           10.36908160919387      -16.83992318286123        6.38265849880632
C           10.05934066794471      -15.65357633860794        6.97310300590902
C            9.52694603987748      -15.97486282790037        8.27599068767917
C            8.51602972764337      -15.28287304490199       10.40737356077123
C            7.99818188755773      -14.26537007352375       11.28151011564936
C            7.50302844602531      -14.91823713190012       12.38358276473752
C            7.74193556652837      -16.33276144518381       12.14493512491549
C            7.52558607279481      -18.69683090902588       12.78192454800460
C            7.09325196531923      -19.71511191108581       13.70272661482299
C            7.46602963538289      -20.91359792491326       13.15782145718153
C            8.10445516647084      -20.59584546294539       11.89553370024265
C            9.24035316730290      -21.24842122164877        9.82451582937105
C            9.89225988797726      -22.24597947373387        9.01090106904712