87
 energy: -124.720496512357 gnorm: 0.000128432018 xtb: 6.7.1 (edcfbbe)
Fe           5.14854864824573        4.58248079164309       26.52134352230135
N            5.73194665981413        5.83465121940096       27.97528140281677
N            3.98422998084391        6.02600206828474       25.76551479669955
N            4.56982652487708        3.34646850567818       25.06529932416641
N            6.37885998861922        3.17513715527210       27.23886907307266
C            6.68017523879073        5.59863194228131       28.92175809125408
C            6.82386601684508        6.74121658065774       29.79670244527450
C            5.94491579399670        7.67794191312585       29.34968325006645
C            5.28767746850727        7.09956266425940       28.19893105447017
C            3.79504136152617        7.27716922161886       26.26176681584063
C            2.90292303445752        8.03524145284690       25.41405222837611
C            2.56772432488298        7.21336495924081       24.38348981059929
C            3.24969551103309        5.96082595018464       24.62477148613577
C            3.72749573180777        3.62780968253611       24.04245640987146
C            3.50868031230504        2.45278381454553       23.22001641903698
C            4.25686922714627        1.45443666621674       23.78324051389042
C            4.91431200029507        2.03859338104695       24.92551957417567
C            6.51407383571926        1.90500510543572       26.78257877187881
C            7.51078991336262        1.18752011539407       27.55423267972396
C            7.99052964289754        2.08255715190085       28.47397029268475
C            7.26291649059171        3.30753446399932       28.26400984805216
C            7.41326472022577        4.43614893591592       29.05124778572009
H            8.14353416795057        4.39701623594428       29.84484768938925
C            4.37512485472646        7.77976363528901       27.41248360756411
H            4.11922034821865        8.78754031738606       27.70263297974309
C            3.11918901438308        4.84741683614006       23.81706749865437
H            2.47279100354991        4.93398894062412       22.95721398767541
C            5.80475677064354        1.35362271781375       25.73294068201858
H            5.97575367876246        0.31158818855078       25.51034463903009
C            7.76908436352289        6.80622402448217       30.94703083905462
H            8.79750898860380        6.68804254162894       30.60456110981216
H            7.55879100431352        6.01125546201953       31.66313026241636
H            7.68782762837227        7.76073718031305       31.46146154546688
C            5.66905898229090        9.04441050513225       29.87740251312021
H            4.61323231080094        9.15425411228145       30.12633129717402
H            5.92066152678565        9.80242749972643       29.13459894621515
H            6.25370410095344        9.23797452596285       30.77344668225403
C            9.08426491589388        1.89483617074221       29.46669140825504
H            8.68047076801663        1.67024674194279       30.45562545248012
H            9.68993787735843        2.79634789508650       29.54684425419165
H            9.72560417624164        1.06974868356244       29.16323925878103
C            7.90169761744234       -0.18527577379360       27.32402746913123
H            7.84876517945216       -0.52134333628689       26.29487574776046
C            8.29976743180722       -1.04204378395234       28.25904002277018
H            8.32578748174196       -0.78132702879752       29.30261610186929
H            8.58917110580665       -2.05012149999366       28.01235894082805
C            4.44792606977823        0.05828160165236       23.30297476009410
H            3.82384356102099       -0.63490447440989       23.86916443585690
H            5.48529106450748       -0.25278160622427       23.41818536286778
H            4.17774570574421       -0.01531367479166       22.25145619519663
C            2.67502016958023        2.41716657916100       22.03896529176337
H            2.64617665554312        3.33257534674834       21.45880366879723
C            1.95751874487172        1.37511827668857       21.63183026069363
H            1.90901107495965        0.45886152301882       22.19367826602130
H            1.36753013046706        1.41466662044043       20.73103300671413
C            1.67548600950235        7.47402207530657       23.21896330530995
H            0.82559012241292        6.79089989139591       23.22745508698859
H            2.21505740576915        7.32968091646059       22.28274019703787
H            1.29568740865977        8.49260577293534       23.24222707752844
C            2.47950442512332        9.43928489796544       25.68046968990702
H            1.96627634252899        9.50920617804071       26.63998087334261
H            1.80376953759661        9.79258107599441       24.90554826690435
H            3.34350082134905       10.10409996173709       25.71101186397670
C            9.45066544423199        4.99271636623551       23.00726705037160
H           10.40671930432422        5.33589577839195       23.40256179172409
H            9.28078840814256        5.48581883339343       22.05014208573270
H            9.50691828482782        3.92149254261323       22.84146405588542
N            8.04766399096261        6.56620197675290       24.35916060954545
H            8.52177681828901        7.40392544772405       24.06410845735310
C            8.34924018867265        5.29112808678697       23.95716112487474
C            7.00450874610373        6.48933872782180       25.21572364487798
H            6.55366881388356        7.33619191569741       25.69036488228070
N            6.62817338247426        5.24517402863100       25.37986376458365
C            7.45454250687483        4.48776379011671       24.60389064500873
H            7.35045556144081        3.42362794271060       24.56296949793914
C            1.06622148534996        5.06134669887987       27.29592203716146
H            0.37338697270060        5.86136386047748       27.54944661821057
H            0.52275736172939        4.11996874733901       27.26778827347741
H            1.47323489918893        5.25269868972684       26.30731779802906
C            2.18312182792874        4.99539013504068       28.31931042685189
H            1.79091666566958        4.73970864569561       29.30400672542552
H            2.72950312255800        5.93580154219526       28.37050342347818
S            3.37735639385696        3.67304553930759       27.86503540789219
C            4.08248040344156        3.39984850907507       29.51890273571924
H            3.29971457481908        3.04535553134742       30.18439127849278
H            4.52229409087589        4.32053145942841       29.88885259127645
H            4.85188777781813        2.64319970918525       29.41280893300035
