87
 energy: -128.362410696910 gnorm: 0.248267836170 xtb: 6.7.1 (edcfbbe)
Fe          20.79600000000000      -37.08200000000000        6.24700000000000
N           18.95100000000000      -36.25700000000000        5.69500000000000
N           19.92700000000000      -38.86399999999999        5.91800000000000
N           22.42900000000000      -37.90400000000000        6.83500000000000
N           21.49600000000000      -35.18299999999999        6.66300000000000
C           18.76800000000000      -34.90300000000000        5.49000000000000
C           17.64500000000000      -34.70100000000000        4.57900000000000
C           17.17100000000000      -35.89900000000000        4.25900000000000
C           17.97400000000000      -36.87900000000000        4.94200000000000
C           18.77200000000000      -39.12899999999999        5.19300000000000
C           18.72700000000000      -40.52800000000000        4.80200000000000
C           19.84700000000000      -41.08200000000000        5.27500000000000
C           20.61700000000000      -40.05900000000000        5.97900000000000
C           22.70500000000000      -39.24500000000000        6.96100000000000
C           24.01400000000000      -39.39900000000000        7.58500000000000
C           24.51300000000000      -38.17200000000000        7.80800000000000
C           23.51900000000000      -37.22500000000000        7.34800000000000
C           22.72600000000000      -34.92100000000000        7.23400000000000
C           22.82500000000000      -33.53200000000000        7.59900000000000
C           21.51300000000000      -32.89200000000000        7.19800000000000
C           20.75700000000000      -34.00400000000000        6.62100000000000
C           19.50500000000000      -33.90900000000000        6.08800000000000
H           19.03300000000000      -32.92800000000000        6.14300000000000
C           17.80300000000000      -38.22399999999999        4.86500000000000
H           16.84000000000000      -38.60200000000000        4.52300000000000
C           21.83900000000000      -40.24800000000000        6.58600000000000
H           22.14500000000000      -41.27500000000000        6.78600000000000
C           23.68900000000000      -35.85799999999999        7.42200000000000
H           24.69100000000000      -35.49699999999999        7.65300000000000
C           15.99000000000000      -36.21500000000000        3.32000000000000
H           15.79900000000000      -35.34300000000000        2.65800000000000
H           15.07700000000000      -36.41800000000000        3.92000000000000
H           16.23600000000000      -37.09800000000000        2.69200000000000
C           17.08800000000000      -33.34900000000000        4.11500000000000
H           17.77700000000000      -32.53600000000000        4.43100000000000
H           16.09200000000000      -33.17600000000000        4.57500000000000
H           17.00200000000000      -33.33900000000000        3.00700000000000
C           17.60100000000000      -41.23800000000000        3.99100000000000
H           17.12400000000000      -40.50800000000000        3.30200000000000
H           16.83100000000000      -41.63400000000000        4.68600000000000
H           18.03500000000000      -42.06700000000000        3.39300000000000
C           20.20300000000000      -42.56800000000000        5.12700000000000
H           20.91900000000000      -42.94600000000000        4.38500000000000
C           19.57900000000000      -43.39200000000000        5.97100000000000
H           18.86500000000000      -42.99900000000000        6.70900000000000
H           19.77100000000000      -44.47499999999999        5.93900000000000
C           24.69600000000000      -40.74000000000000        7.91100000000000
H           25.31100000000000      -41.06400000000000        7.04400000000000
H           23.92500000000000      -41.51299999999999        8.11500000000000
H           25.35600000000000      -40.61999999999999        8.79600000000000
C           25.86400000000000      -37.71800000000000        8.43600000000000
H           25.88600000000000      -36.81400000000000        9.06200000000000
C           27.01300000000000      -38.36199999999999        8.26300000000000
H           27.05500000000000      -39.27300000000000        7.64800000000000
H           27.93600000000000      -37.99200000000000        8.73300000000000
C           23.99200000000000      -32.79800000000000        8.24900000000000
H           24.75400000000000      -32.55600000000000        7.47800000000000
H           24.45700000000000      -33.44400000000000        9.02400000000000
H           23.63200000000000      -31.85300000000000        8.70800000000000
C           21.14400000000000      -31.40200000000000        7.36700000000000
H           22.02600000000000      -30.77200000000000        7.12300000000000
H           20.84200000000000      -31.20700000000000        8.41800000000000
H           20.31200000000000      -31.14100000000000        6.67800000000000
C           18.60500000000000      -36.39900000000000       11.42600000000000
H           19.12200000000000      -36.81400000000000       12.31700000000000
H           17.51500000000000      -36.59199999999999       11.52000000000000
H           18.79400000000000      -35.30500000000000       11.37600000000000
N           19.03800000000000      -38.41500000000000        9.99500000000000
H           18.61900000000000      -39.05800000000000       10.63500000000000
C           19.12800000000000      -37.05700000000000       10.19700000000000
C           19.58800000000000      -38.71900000000000        8.83500000000000
H           19.65000000000000      -39.72699999999999        8.42600000000000
N           20.03600000000000      -37.60200000000000        8.27900000000000
C           19.77300000000000      -36.54900000000000        9.12000000000000
H           20.07000000000000      -35.53800000000000        8.87200000000000
C           23.43000000000000      -36.84800000000000        0.97200000000000
H           24.25300000000000      -36.10300000000000        0.99600000000000
H           22.81600000000000      -36.67700000000000        0.06200000000000
H           23.86900000000000      -37.86800000000000        0.94800000000000
N           21.91400000000000      -35.52200000000000        2.49200000000000
H           21.92500000000000      -34.70300000000000        1.91900000000000
C           22.57700000000000      -36.69200000000000        2.19600000000000
C           21.27300000000000      -35.66100000000000        3.63800000000000
H           20.66300000000000      -34.88700000000000        4.10200000000000
N           21.50200000000000      -36.87299999999999        4.10000000000000
C           22.31700000000000      -37.53900000000000        3.22000000000000
H           22.63600000000000      -38.55700000000000        3.40600000000000
87
 energy: -128.421234736264 gnorm: 0.104749808022 xtb: 6.7.1 (edcfbbe)
Fe          20.76904333308545      -37.09694332966551        6.26008183800842
N           18.97380630652560      -36.24207865360685        5.64285922255285
N           19.95524406015786      -38.88142330637703        5.84348209983763
N           22.44051473423909      -37.89579232979163        6.84427219576204
N           21.48034788064857      -35.18664470890027        6.68606552507589
C           18.75924172276081      -34.89587453971964        5.49033190024315
C           17.63098342154678      -34.67918401869797        4.59676851075343
C           17.15022347778794      -35.89763002244796        4.26599608697014
C           17.97144123398993      -36.86683737829178        4.94637361247329
C           18.77570939215281      -39.14910422935768        5.19122055499973
C           18.71968553175018      -40.54360954781887        4.80652480704242
C           19.86006035164258      -41.10677822737593        5.27400561877243
C           20.62396190945968      -40.06992890265036        5.95207783490966
C           22.71166288603285      -39.23331938664915        6.97991519280696
C           24.02606894266916      -39.40448679982774        7.58822431521769
C           24.53477162426571      -38.16106912898485        7.80714068926727
C           23.52966278621899      -37.22127436551824        7.34047205506724
C           22.70539115232704      -34.89616787068841        7.22310736518689
C           22.79266894790052      -33.50421852402916        7.57847876697494
C           21.55073899123825      -32.91663042484177        7.20857972599124
C           20.77117243998341      -34.00660015697161        6.64760857603359
C           19.50536928222828      -33.89666481002887        6.09652770273848
H           19.04696535807278      -32.91335282827604        6.12654498240546
C           17.80020491859984      -38.23001627109730        4.87144820265766
H           16.85345256652726      -38.60296993667786        4.49568452539980
C           21.84700464070154      -40.24677815380316        6.58500073725790
H           22.15672841874342      -41.27175019160271        6.76594795929421
C           23.68947513113890      -35.84884253313768        7.41938050577741
H           24.68042652064415      -35.49276276907315        7.68014882293634
C           16.00216584616994      -36.21315109987437        3.33098546485879
H           15.80352165431686      -35.35879665030771        2.67429088058813
H           15.09355966174224      -36.41890749341248        3.90899612122062
H           16.23207143986192      -37.08427578624497        2.70780292691241
C           17.09820080607244      -33.35001025782777        4.12402912413235
H           17.76697928207598      -32.53875832820650        4.42424397070991
H           16.10950086533100      -33.17477033615017        4.56366853889046
H           17.00279107699202      -33.33867153832984        3.03120336852399
C           17.61746268557451      -41.22150637112618        4.00391105208443
H           17.13685323548845      -40.51606280490225        3.31717038593355
H           16.85040831217477      -41.62437131592088        4.67591583822955
H           18.03197492948710      -42.04783962488408        3.41589134641285
C           20.20216930246915      -42.55727855819131        5.15582057447811
H           20.90548862600516      -42.91402033759294        4.40454713270814
C           19.58410656370482      -43.39616728368071        5.97314830072551
H           18.87492480609203      -43.02126178335423        6.70269922537982
H           19.76409602816614      -44.46588152064195        5.94064660673513
C           24.68508377004370      -40.72866070513999        7.90656672588253
H           25.29595328521004      -41.06057095853808        7.05735691378112
H           23.93698412408543      -41.50051602039153        8.11367678241178
H           25.34001549432326      -40.62005469639973        8.77809537747217
C           25.84033789336642      -37.73728466072716        8.42335419593669
H           25.84629727086148      -36.83472552372710        9.03677113174281
C           26.99575886887787      -38.37071244051491        8.26012320641966
H           27.06448329350805      -39.26302319901999        7.65078844877815
H           27.91115519807186      -38.00403904103104        8.71966817866096
C           23.96386243753332      -32.80685100282940        8.23123995672701
H           24.73653258163244      -32.56192449544014        7.48852151144632
H           24.43453580064755      -33.43345148621374        9.00114833009102
H           23.63651770579497      -31.87247000568734        8.69920072906101
C           21.16176495319554      -31.45059218661397        7.36245083225027
H           22.01187872815740      -30.79733659226632        7.12635697725691
H           20.85067577820223      -31.22467400612821        8.39275658257424
H           20.33560967394365      -31.16778031313825        6.69591829562060
C           18.60306869928722      -36.40044832658528       11.43502314818944
H           19.10966234542495      -36.80312131170830       12.31958883466512
H           17.52635708904111      -36.58185857490277       11.53042670206212
H           18.78622668319100      -35.32388069600219       11.38068969578224
N           19.03328124880759      -38.40686636431420       10.00632963156162
H           18.61254198128112      -39.05921895344482       10.64487265628711
C           19.12658772928999      -37.05444075527141       10.21115178425200
C           19.59607432519933      -38.69501085624535        8.82668468437568
H           19.65811210034708      -39.69243049468793        8.41996429080731
N           20.04741879175307      -37.58987242476051        8.26928809625927
C           19.77028504405791      -36.55819648252492        9.11951608167997
H           20.06197997229135      -35.55393083461398        8.87344914773037
C           23.42755830480053      -36.84568584318040        0.97521779788379
H           24.24467341958655      -36.11439748871185        0.98849721392861
H           22.83039144807242      -36.68296998936584        0.06997695644558
H           23.85844797388045      -37.85003891554629        0.94676858356368
N           21.92132399348789      -35.52316629130755        2.47704172245058
H           21.93073667820365      -34.69931613366371        1.90191109545641
C           22.58287409437258      -36.69088359990403        2.19465294634956
C           21.27861587811051      -35.67158430020222        3.64115803466819
H           20.67461253598729      -34.90472066506359        4.09560917896525
N           21.49490477517973      -36.87316356316278        4.12730655454004
C           22.30582662276584      -37.52691626120499        3.23659133739618
H           22.62268832336200      -38.53874910326070        3.41504885764858
87
 energy: -128.438857838881 gnorm: 0.035410923733 xtb: 6.7.1 (edcfbbe)
Fe          20.74494955383554      -37.10577318340235        6.25718152251167
N           18.98696647358554      -36.23186420836429        5.62133706753380
N           19.98165298813311      -38.89005855050682        5.79085581940922
N           22.44675397108829      -37.88932495496165        6.85504803967632
N           21.46190077632065      -35.19314143183965        6.71648006365371
C           18.76007404604675      -34.89304009541429        5.49144927704482
C           17.62120805874866      -34.66436727887933        4.62177408190933
C           17.13781404876622      -35.89363414870940        4.28252581240703
C           17.98614531395705      -36.85567156322213        4.94290967900295
C           18.79868056665368      -39.15593260169516        5.17194391084104
C           18.71909804630387      -40.55341977795626        4.81798847935814
C           19.87070192121433      -41.12367435505405        5.28062847235434
C           20.64144117931190      -40.06994409163003        5.91529552662563
C           22.71632712189982      -39.22191601280616        6.98758078410716
C           24.02889062680699      -39.40769434735810        7.58505236752386
C           24.54703744845604      -38.15470810094732        7.79649245995593
C           23.53040871676404      -37.21862742090633        7.33913765122222
C           22.68341729334051      -34.89098987256796        7.22784060190052
C           22.76371536136403      -33.48779214444291        7.56061075053427
C           21.57782643920795      -32.93836240748080        7.21537159945361
C           20.77251173710025      -34.01516741619699        6.67099092974287
C           19.50889934444845      -33.88755790158418        6.09812351596725
H           19.06786545737924      -32.89852546966305        6.09866735526711
C           17.82253290680704      -38.22797183788989        4.85263211510917
H           16.88574157962710      -38.59701948001684        4.45708157803619
C           21.86335606679649      -40.24045497644309        6.56439555625965
H           22.17646652349558      -41.26410346064856        6.72959940956797
C           23.68071417334232      -35.84374927717851        7.42988312402376
H           24.65944679981425      -35.48489592745776        7.72032239644408
C           16.01186818634752      -36.20816502898625        3.35235438786787
H           15.81080499382988      -35.36386055633291        2.69629161415726
H           15.10016561556416      -36.42303558858812        3.91004531374509
H           16.24058442197196      -37.07229403158377        2.73207669252561
C           17.10366206299238      -33.35057784274439        4.14088517424181
H           17.76288498093123      -32.53759212821755        4.42481729441727
H           16.11582124220630      -33.16268879043903        4.56124727023502
H           17.00683473954123      -33.34638771230676        3.05482851973557
C           17.63497761070472      -41.21171571840553        4.02695160467591
H           17.16187477074014      -40.51393626167884        3.33978559252190
H           16.86109856836388      -41.61446639390411        4.68142070399031
H           18.03931035197409      -42.03807560164388        3.44483767706166
C           20.19758977224243      -42.54622155311642        5.18441986034072
H           20.90780652083177      -42.87633890174212        4.43434822332269
C           19.58692474236248      -43.40962972706233        5.97865684371580
H           18.87927994676413      -43.05532362721789        6.70904808263755
H           19.76451606573805      -44.46991834992009        5.94196947660503
C           24.67270865558338      -40.71625662288101        7.90204379988785
H           25.27988854790168      -41.05624545768600        7.06180744293076
H           23.93396669810812      -41.48483564828363        8.11267324098746
H           25.32736878827835      -40.61297352303701        8.76571539031752
C           25.81061343090406      -37.75564198501106        8.39435056172198
H           25.79561059850043      -36.85659410372495        9.00348630209809
C           26.97450298643049      -38.38186721185655        8.24902117686784
H           27.07157768711367      -39.26460032229814        7.64468235893676
H           27.87813431270887      -38.02041898060249        8.71615237882069
C           23.93690856143825      -32.81366460792421        8.20875167622802
H           24.71376887173561      -32.57482909033237        7.47830553678121
H           24.39524754274916      -33.44269259924373        8.97277155281844
H           23.62729924287952      -31.88491850839674        8.68364186490142
C           21.17734778386836      -31.49494704803637        7.35862098592021
H           22.01517016077211      -30.83673273173827        7.12489904210957
H           20.86107449432017      -31.26588349286407        8.38007021476187
H           20.35416753041170      -31.22168834238008        6.69880112586022
C           18.60274000501812      -36.39893901467757       11.44513236750631
H           19.10099138496466      -36.79413214176605       12.32839104841947
H           17.53301348970783      -36.57468590072616       11.54224929487436
H           18.78019107428142      -35.33118702843039       11.38918457056293
N           19.03522943757698      -38.39797456500953       10.00795907353591
H           18.61860468759244      -39.06130047491938       10.64253868771323
C           19.12767597097464      -37.04863534359493       10.22125282633132
C           19.60027530766301      -38.66525358561413        8.80952394606877
H           19.66806998020977      -39.65472015864400        8.40351795099286
N           20.03492911143072      -37.56285696684314        8.24807529640038
C           19.76280205334350      -36.55410886395753        9.11905588347175
H           20.04712361099052      -35.55108453399455        8.88105866056760
C           23.42448172902876      -36.85079308314624        0.98141378760680
H           24.23732568790372      -36.12484539071315        0.98606867397115
H           22.83441251807711      -36.69107427943469        0.07982793477155
H           23.85084901279249      -37.84677139942292        0.94931941196983
N           21.92656010573192      -35.52217073784119        2.46548869191827
H           21.93353618553274      -34.69811686123453        1.88693406905888
C           22.58664932371612      -36.69223522706076        2.19870485081520
C           21.28662019916390      -35.67002926492172        3.64239720404031
H           20.68548817413937      -34.90679340977435        4.08794127495921
N           21.49547674055774      -36.85937507253204        4.14815349407222
C           22.29938066525811      -37.51273191161352        3.25654586398529
H           22.61366851691916      -38.52178439871748        3.43028620519544
87
 energy: -128.445052604294 gnorm: 0.018340362156 xtb: 6.7.1 (edcfbbe)
Fe          20.73784337483966      -37.10177698040697        6.25410981909501
N           19.00056792436474      -36.22716070030177        5.60652637902136
N           20.01411470747944      -38.88338612235145        5.74230822109764
N           22.44622515739428      -37.88977505036045        6.85165558815788
N           21.44624185056657      -35.20157007968430        6.73829515567193
C           18.75809526116463      -34.88974765507093        5.49704957648795
C           17.61126379727045      -34.65733652590654        4.64441115283628
C           17.13219893805617      -35.88757606080480        4.29974179058327
C           18.00097176062005      -36.85072862919281        4.93206038107609
C           18.82561560634849      -39.15175124610748        5.14057028638950
C           18.72929939543969      -40.55687865907674        4.82388594382270
C           19.87766768553104      -41.13009214032028        5.29091134350895
C           20.66295809643270      -40.06650048434535        5.88513597434701
C           22.71994991010021      -39.22033783021617        6.97171274500563
C           24.02618031904809      -39.41183811752188        7.56542095721992
C           24.54462933399006      -38.15992813275732        7.77715783693266
C           23.52476732746067      -37.22241414381983        7.33728219967233
C           22.67141132082393      -34.90608944038240        7.24046791176858
C           22.76388734473857      -33.49858657548387        7.55624738988246
C           21.56694498672164      -32.94815944943606        7.21494216191865
C           20.75840316172660      -34.02562567036399        6.68164056287024
C           19.50541991423857      -33.88367131835954        6.09968755040237
H           19.08524088844633      -32.88451587215644        6.06965122321694
C           17.85045196595778      -38.22353022530802        4.81920551737272
H           16.92354137566939      -38.59256426756667        4.40058031361839
C           21.88129824171217      -40.23963235197180        6.53331241618306
H           22.20598333552936      -41.26284900839942        6.67749008398176
C           23.66991897962609      -35.84945296807710        7.44656039865472
H           24.63738991110507      -35.48417209861437        7.76872379000229
C           16.00975764620270      -36.20471123362054        3.37250166737557
H           15.80750396836020      -35.35855961641574        2.71931251041655
H           15.09669962302775      -36.42977247627305        3.92472193903187
H           16.24954218954248      -37.06610353365381        2.75210564859446
C           17.10039200280319      -33.34310416754428        4.16037307316880
H           17.76238178106550      -32.52830325897914        4.43597985672417
H           16.11102260145068      -33.14295838241834        4.57234043346306
H           17.00817415373645      -33.35064053819970        3.07361078765715
C           17.64120954580789      -41.21399801799452        4.04719039275783
H           17.18006648635672      -40.51408583662454        3.35379433867154
H           16.86191474600690      -41.60354978185964        4.70302748502558
H           18.04383407175113      -42.04881361856632        3.47608333938168
C           20.20618470158412      -42.55047829043969        5.21545701853232
H           20.93280310038681      -42.86266090294843        4.47391239320235
C           19.59488766928426      -43.43120798072012        5.99203899068114
H           18.87128704095582      -43.09718446293405        6.71808427242463
H           19.77514845086533      -44.49020509066921        5.93972215583618
C           24.66246839476420      -40.71686678765291        7.89342060145760
H           25.26766208194761      -41.06693622454512        7.05572030480016
H           23.91892290239791      -41.47874082497270        8.11276567216954
H           25.31786357719504      -40.60623502926482        8.75585840712375
C           25.79822629974178      -37.77014858316757        8.37878291526856
H           25.77029933439953      -36.86610321163160        8.97833371738916
C           26.96238849920006      -38.39881427596767        8.24620597614572
H           27.07320491029668      -39.27320668878399        7.62999658139102
H           27.85910853671837      -38.03665212259204        8.72144930485718
C           23.93357384674082      -32.82311974696221        8.19332217741615
H           24.70538547620016      -32.59195224994038        7.45771354928570
H           24.37818933572282      -33.45927862530888        8.95658041793952
H           23.62277561526421      -31.89345911253942        8.66495539860253
C           21.17230613824923      -31.51393543786396        7.35421644328725
H           22.01509899877792      -30.86501224489129        7.11942655818067
H           20.85862989138097      -31.29659161986889        8.37692430965986
H           20.35053676240460      -31.25726497469524        6.69065302822460
C           18.60308731413463      -36.39590861073017       11.45902208296953
H           19.10115598225245      -36.78931219273706       12.34360652946828
H           17.53352087128366      -36.57348492519194       11.55870946789223
H           18.77461505821884      -35.32668299903138       11.40597156616341
N           19.04306573682996      -38.38421207988502       10.00074408100244
H           18.63703546409366      -39.05896583572390       10.63064184006754
C           19.12691680815522      -37.03552934166979       10.22784282751182
C           19.59614433631625      -38.63076685121807        8.78910402138102
H           19.67163557816811      -39.61434181187887        8.37239738836834
N           20.01561544860638      -37.52041613658183        8.23486023081624
C           19.74256367789184      -36.52518374754098        9.12116379763126
H           20.01519510832668      -35.51691125217113        8.89342478744723
C           23.42021013565673      -36.86404330899294        0.99091418613149
H           24.23498170789241      -36.13953077643446        0.98608321320558
H           22.82827976170523      -36.70762122335857        0.08962247514724
H           23.84396371526378      -37.86118049993796        0.96131634864974
N           21.93064530456289      -35.51684364776111        2.46059615298834
H           21.93689724807277      -34.70002856574136        1.87156862997375
C           22.58729998350408      -36.69317513872454        2.20975069262328
C           21.29462916247442      -35.64896125818649        3.64277760609931
H           20.69499988492333      -34.88030110596257        4.07970881494099
N           21.50025850389479      -36.83106395875230        4.16426734624952
C           22.29938702776538      -37.49743898126015        3.28047850759256
H           22.60996392701615      -38.50579299565443        3.46210106873592
87
 energy: -128.449809463191 gnorm: 0.014287645065 xtb: 6.7.1 (edcfbbe)
Fe          20.73166515566365      -37.09433887851861        6.23990320905760
N           19.01587179256094      -36.22100519876051        5.59416978138498
N           20.04550290956706      -38.87361357393977        5.70506665071908
N           22.44112734729807      -37.89179696521564        6.84939772644651
N           21.42653193790041      -35.21957640586648        6.75436595098765
C           18.75839151895711      -34.88563608263833        5.50199207935260
C           17.59944137589787      -34.65151307524099        4.67044179999718
C           17.12907227833485      -35.88142494921895        4.31681188198725
C           18.01960179189298      -36.84514834359267        4.91853969641272
C           18.85661873861031      -39.14433994540303        5.10869637958740
C           18.74178876068060      -40.55768435168090        4.83314870483987
C           19.88282004723246      -41.13402178328371        5.30890669795934
C           20.68393705176291      -40.06192905729101        5.86071364387071
C           22.72401065671657      -39.22080666197420        6.94974218759470
C           24.02543638719788      -39.41713987294725        7.53676331360201
C           24.54063340965651      -38.16679723406616        7.75794812279188
C           23.51563870171587      -37.22864791720834        7.33978611267455
C           22.65137264948378      -34.92921826422382        7.25644529942740
C           22.75522618120493      -33.51956960532565        7.55661538136998
C           21.55873186626366      -32.96415484474907        7.20830472665683
C           20.74668029522818      -34.04175849889540        6.68707016571810
C           19.50614358874779      -33.87987542446946        6.09567994224208
H           19.10630564025328      -32.87498318597015        6.04616321845245
C           17.88787814516284      -38.21629511284487        4.77349638809942
H           16.97412552917375      -38.58455307973558        4.32639141480596
C           21.90298636790499      -40.24127157440688        6.49378471440499
H           22.24319687277251      -41.26283346198597        6.61131548179155
C           23.65168929799819      -35.85821276228611        7.47401273108321
H           24.60547580530087      -35.48370196755896        7.82141905955831
C           16.00322016138504      -36.20090212394424        3.39567101479716
H           15.79323302772214      -35.35181851586664        2.74768644606020