87
 energy: -128.467841067545 gnorm: 0.000134297775 xtb: 6.7.1 (edcfbbe)
Fe          20.78900809632751      -36.98531562492930        6.17511858901068
N           19.08973398442000      -36.14631514491078        5.52169768713317
N           20.11857097906760      -38.79056349245000        5.61245720386441
N           22.48714880926753      -37.82031420666194        6.84531817852552
N           21.46265912431295      -35.17797154909533        6.72258574464751
C           18.75849673720244      -34.82984473475614        5.55752929851667
C           17.43956417253054      -34.61778720691760        5.00193941882588
C           16.98300610567851      -35.84274105627927        4.62831753778113
C           18.03020092286024      -36.78500506941216        4.96009374838766
C           18.92628891859984      -39.07006298879217        5.02205186245136
C           18.80037172689908      -40.48126103481843        4.76286679354289
C           19.95508148719077      -41.06177034317835        5.21851582334822
C           20.76596635045593      -39.97700441241173        5.73889877647999
C           22.80649610535109      -39.14337222554941        6.82957161219116
C           24.10667917861467      -39.36426389875569        7.40812767961218
C           24.57792740843681      -38.13048997331909        7.77431224136468
C           23.53812211021659      -37.18399242070883        7.41780010557372
C           22.66246170982447      -34.89514837526519        7.29152430952983
C           22.79493030381407      -33.47332845660271        7.52544996436281
C           21.64099493178806      -32.90482078761200        7.08452214961531
C           20.82177490547360      -33.98767902917061        6.58577008527312
C           19.55915820284394      -33.81259795371977        6.04744411949778
H           19.16811260586237      -32.80662015134446        6.00826481541814
C           17.94421739859386      -38.14152768099607        4.72044824365841
H           17.03556173374289      -38.50782546710242        4.26685849551373
C           22.00994576464401      -40.15434284377997        6.31595447208013
H           22.39675119453480      -41.16146144920693        6.36399321152369
C           23.63671520449958      -35.81918974159635        7.61669079881723
H           24.54553091742982      -35.44327578638725        8.06179299396228
C           15.68353858594445      -36.21426705945466        3.99948470953653
H           15.05942943784986      -35.33622859867975        3.85072088052421
H           15.14024826893665      -36.91835971265735        4.63018974604051
H           15.84739269340437      -36.68649417369779        3.03033780064345
C           16.77510670165674      -33.28724368823878        4.89376672553582
H           17.36595844391645      -32.61033926720017        4.27550708734079
H           16.66324668093819      -32.83259072089322        5.87857215679476
H           15.78808933465511      -33.38271773209244        4.44766787697408
C           17.65439789983452      -41.12774288090000        4.06509695282060
H           17.28462479313210      -40.49175145472946        3.26216334347156
H           16.82987762212424      -41.31183390932397        4.75625528906452
H           17.96484397072966      -42.08020763734615        3.63990263104003
C           20.35544768566206      -42.45040567978482        5.18984428836246
H           21.41747953285494      -42.62929244133864        5.06406699884848
C           19.54102458353712      -43.49421300984125        5.31285400280537
H           18.48547993058525      -43.38031449336003        5.48785448070575
H           19.91037159605194      -44.50553371000013        5.26733798595915
C           24.74161644967165      -40.69613780155753        7.61374538251480
H           25.24460270588847      -41.03362453430204        6.70567704004657
H           23.99602979871455      -41.44349881557594        7.88228566492201
H           25.47921594432034      -40.63852724556644        8.41190130142839
C           25.82573611624089      -37.78311616196883        8.41586270724915
H           25.78495586840768      -36.93361068711850        9.08814366080315
C           26.98721519559607      -38.40563645528810        8.23940893671621
H           27.10103923155565      -39.22248806224651        7.54844639908651
H           27.87686253996506      -38.09778894479757        8.76389267974475
C           23.99093371997011      -32.82807388952201        8.13785247026443
H           24.88386914240906      -33.03780576125128        7.54840694568654
H           24.15613701391944      -33.20738323104495        9.14670767978825
H           23.86353578491839      -31.74956268538908        8.19503054334145
C           21.23301426581930      -31.47051997722025        7.08393193388118
H           22.01688358199482      -30.84518780322983        7.50437126998684
H           20.32787826137658      -31.32828147369944        7.67526438483225
H           21.02923910572399      -31.12784154545705        6.06879166443723
C           18.08932312441699      -36.32044934023476       11.03426482271323
H           18.67949314278338      -36.33469516500242       11.95067404141809
H           17.18391635363965      -36.90356828716806       11.20311060178115
H           17.80730241935579      -35.29472074282862       10.81814487433608
N           19.35625367407852      -38.15272234005329        9.88964552422953
H           19.24389928632186      -38.82975708481579       10.62623170647459
C           18.86802843843243      -36.87187423059655        9.89633753021002
C           20.01130829881068      -38.33444745851840        8.72088449051172
H           20.49596838660707      -39.24724580490676        8.44162598528096
N           19.96782693650162      -37.24906842085204        7.98864092736852
C           19.25994389734342      -36.33070505707625        8.70577215050590
H           19.08177282401850      -35.34888720555099        8.31945142015130
C           23.56933267323231      -37.63006164251403        1.36143737226190
H           24.46521358911722      -37.02822913432831        1.20804824328088
H           22.99845572299472      -37.63446508541115        0.43279503922787
H           23.86926468166649      -38.64789884966533        1.59024861153105
N           22.22897336421637      -35.82351237469335        2.46284636981857
H           22.33536069341323      -35.15165155424025        1.72068969289540
C           22.75514565150667      -37.08922926376458        2.47931002383163
C           21.54970762697465      -35.64822319945549        3.61886989106138
H           21.03260826643498      -34.74819895283547        3.88044051985705
N           21.61346223177324      -36.72329498515022        4.36451533798531
C           22.35962306840991      -37.62832530645422        3.66952967191992
H           22.56101606927269      -38.60025416353334        4.06922556958674
