78
 energy: -116.001757610575 gnorm: 0.220366052591 xtb: 6.7.1 (edcfbbe)
Fe         -11.58700000000000       -2.29500000000000       -1.08300000000000
N          -12.16600000000000       -0.55100000000000       -1.95100000000000
N           -9.86900000000000       -2.28600000000000       -2.14800000000000
N          -10.91400000000000       -3.87700000000000       -0.03000000000000
N          -13.20300000000000       -2.18600000000000        0.07400000000000
C          -13.33400000000000        0.13500000000000       -1.70200000000000
C          -13.35100000000000        1.34000000000000       -2.52100000000000
C          -12.19400000000000        1.37900000000000       -3.26200000000000
C          -11.45900000000000        0.18700000000000       -2.89600000000000
C           -9.52000000000000       -1.35900000000000       -3.16100000000000
C           -8.31900000000000       -1.78100000000000       -3.83700000000000
C           -7.98000000000000       -2.98000000000000       -3.26200000000000
C           -8.92800000000000       -3.27200000000000       -2.19300000000000
C           -9.78800000000000       -4.57200000000000       -0.30100000000000
C           -9.57600000000000       -5.64600000000000        0.68700000000000
C          -10.63000000000000       -5.55400000000000        1.53200000000000
C          -11.49500000000000       -4.46100000000000        1.06200000000000
C          -13.58200000000000       -3.10500000000000        1.08600000000000
C          -14.93100000000000       -2.92600000000000        1.54600000000000
C          -15.40500000000000       -1.79300000000000        0.82300000000000
C          -14.33200000000000       -1.37800000000000       -0.04800000000000
C          -14.31100000000000       -0.27300000000000       -0.85500000000000
H          -15.19500000000000        0.36200000000000       -0.81100000000000
C          -10.22100000000000       -0.17700000000000       -3.44000000000000
H           -9.76200000000000        0.51900000000000       -4.14200000000000
C           -8.90500000000000       -4.31300000000000       -1.34800000000000
H           -8.10600000000000       -5.03900000000000       -1.49700000000000
C          -12.73300000000000       -4.11800000000000        1.54300000000000
H          -13.10000000000000       -4.70700000000000        2.38400000000000
C          -11.70900000000000        2.42600000000000       -4.27200000000000
H          -12.46300000000000        3.23700000000000       -4.35600000000000
H          -11.57600000000000        1.95300000000000       -5.26800000000000
H          -10.74700000000000        2.86300000000000       -3.92700000000000
C          -14.45100000000000        2.37200000000000       -2.44900000000000
H          -14.75100000000000        2.52100000000000       -1.39000000000000
H          -15.33300000000000        2.02200000000000       -3.02700000000000
H          -14.08700000000000        3.33800000000000       -2.85900000000000
C           -7.64700000000000       -1.01400000000000       -4.94300000000000
H           -7.83100000000000        0.07300000000000       -4.80500000000000
H           -8.06300000000000       -1.32800000000000       -5.92400000000000
H           -6.55200000000000       -1.20000000000000       -4.91700000000000
C           -6.83700000000000       -3.85400000000000       -3.60600000000000
H           -6.43900000000000       -4.53400000000000       -2.83900000000000
C           -6.24400000000000       -3.87800000000000       -4.79600000000000
H           -6.59300000000000       -3.22200000000000       -5.60700000000000
H           -5.39700000000000       -4.55400000000000       -4.98400000000000
C           -8.36600000000000       -6.53500000000000        0.75200000000000
H           -7.45400000000000       -5.93500000000000        0.54800000000000
H           -8.44800000000000       -7.33700000000000       -0.01200000000000
H           -8.28300000000000       -6.98300000000000        1.76500000000000
C          -10.90000000000000       -6.30000000000000        2.78200000000000
H          -11.31400000000000       -5.75400000000000        3.64200000000000
C          -10.68200000000000       -7.58300000000000        2.95100000000000
H          -10.26900000000000       -8.19200000000000        2.13300000000000
H          -10.90900000000000       -8.06600000000000        3.91300000000000
C          -15.65500000000000       -3.77000000000000        2.52200000000000
H          -15.22200000000000       -3.62100000000000        3.53400000000000
H          -15.55400000000000       -4.84000000000000        2.24100000000000
H          -16.72800000000000       -3.48300000000000        2.54400000000000
C          -16.76600000000000       -1.14300000000000        0.91800000000000
H          -17.24700000000000       -1.42900000000000        1.87800000000000
H          -17.40600000000000       -1.48700000000000        0.07700000000000
H          -16.65700000000000       -0.03800000000000        0.88500000000000
O          -10.55100000000000       -0.99000000000000        0.24100000000000
H          -10.86500000000000       -0.10800000000000        0.04100000000000
H           -9.94800000000000       -1.20700000000000        0.85800000000000
C          -14.86400000000000       -6.06600000000000       -3.71200000000000
H          -14.40900000000000       -7.03800000000000       -3.99800000000000
H          -15.45200000000000       -5.67700000000000       -4.57000000000000
H          -15.52900000000000       -6.22400000000000       -2.83600000000000
N          -12.82500000000000       -4.73500000000000       -4.26100000000000
H          -12.72200000000000       -5.12100000000000       -5.17800000000000
C          -13.78700000000000       -5.09700000000000       -3.35900000000000
C          -12.06100000000000       -3.78900000000000       -3.70500000000000
H          -11.23400000000000       -3.28900000000000       -4.20700000000000
N          -12.48700000000000       -3.58200000000000       -2.46800000000000
C          -13.54500000000000       -4.39400000000000       -2.22400000000000
H          -14.03700000000000       -4.40200000000000       -1.26000000000000
78
 energy: -116.037354655178 gnorm: 0.084187297501 xtb: 6.7.1 (edcfbbe)
Fe         -11.58262812859589       -2.28788711889042       -1.07330758329762
N          -12.16352791742250       -0.56123713951181       -1.97414844679040
N           -9.88845339878155       -2.28241669665926       -2.18146883348022
N          -10.91415461217262       -3.88409264770828       -0.04223816335334
N          -13.22358489571404       -2.21672258367987        0.07685560224607
C          -13.31919004154740        0.13234029327862       -1.72401166001185
C          -13.34203086744957        1.34736789944116       -2.51730285748374
C          -12.19064171309474        1.37390157647491       -3.25167263735895
C          -11.46042693555745        0.17459327868996       -2.89622976159969
C           -9.52794637524025       -1.35676225195969       -3.14883837153771
C           -8.32828657135012       -1.78311312551865       -3.82792741923091
C           -7.96930052012289       -2.98136816671671       -3.26320021397869
C           -8.93767718816666       -3.25934150171480       -2.21259752127862
C           -9.78272459401449       -4.57606276101082       -0.30180052259671
C           -9.58101393918156       -5.63064095277449        0.68918061270939
C          -10.63788865821702       -5.54077607565356        1.54518433237719
C          -11.48828866840439       -4.45679402477122        1.05649606162629
C          -13.57609446857934       -3.12059871685543        1.06572710533118
C          -14.92081810401623       -2.90535419244025        1.52228547354827
C          -15.38880004688172       -1.80223479287342        0.82422823309682
C          -14.31846678236238       -1.38821155971397       -0.04451670871382
C          -14.31431123618990       -0.27145202300532       -0.86218975829428
H          -15.19642219468202        0.36082432976150       -0.81698944049584
C          -10.22859894345917       -0.18793430849196       -3.42869813282260
H           -9.78166713110734        0.49906112890387       -4.13932172142050
C           -8.90215671730133       -4.32358309909302       -1.34876506027904
H           -8.09925554394938       -5.03923113086484       -1.48489985853457
C          -12.73174776501373       -4.12006685703160        1.54458305376413
H          -13.10108210230975       -4.70600437501545        2.38053995946237
C          -11.72037206413774        2.40683670018009       -4.24951217421047
H          -12.45107535620903        3.21548152398867       -4.34884691889948
H          -11.57924529797763        1.95643317285672       -5.23838650898848
H          -10.76749787270208        2.84568272908380       -3.93167948515958
C          -14.44080248598292        2.36606705468540       -2.45103990396731
H          -14.74820168412543        2.52330863641486       -1.41168293750882
H          -15.31783608501035        2.03329208897869       -3.01865526766968
H          -14.10146853270853        3.32326918931898       -2.85653811379415
C           -7.65631520821906       -1.01795339208634       -4.92589437638992
H           -7.82780252474368        0.05650624293235       -4.80828440837212
H           -8.05133287851242       -1.31751629155047       -5.90503663114261
H           -6.57573133447681       -1.19441151338981       -4.91513868738945
C           -6.83986959536329       -3.84189931378889       -3.60494682387394
H           -6.46729582802783       -4.51756328697711       -2.83608728748599
C           -6.24319496478218       -3.87505466565217       -4.79401934260658
H           -6.58349786084394       -3.25395291752239       -5.61107894724598
H           -5.40914466993552       -4.53992052299748       -4.98523713368496
C           -8.37987966718479       -6.52130452783541        0.75104066750745
H           -7.46869273292250       -5.94711405976471        0.54987239129519
H           -8.44666194408956       -7.32264420250366        0.00503861104910
H           -8.28930945140262       -6.97404216217057        1.74357951482372
C          -10.90375095645487       -6.29127795241471        2.77409407308239
H          -11.31982707911153       -5.73617426374374        3.61399113151818
C          -10.67528104201181       -7.58552418296982        2.94697456920241
H          -10.28128353238141       -8.19942345946193        2.14628106114204
H          -10.89550181935019       -8.07100715717284        3.89141887038498
C          -15.64403700775482       -3.75212824663972        2.51107533518263
H          -15.22863696049903       -3.62515599010645        3.51928042625803
H          -15.56001860738975       -4.81412766746668        2.24890215599081
H          -16.70619757247700       -3.49015491081735        2.54536398287310
C          -16.74185423880629       -1.15545257227945        0.91900290888854
H          -17.23557539261407       -1.42437244878619        1.85868656814204
H          -17.38870065780742       -1.47598338202436        0.09231423853198
H          -16.65782424712967       -0.06402032765481        0.88292880306821
O          -10.56699314888663       -0.97705773032617        0.25545576834162
H          -10.84507946001611       -0.08221083151562        0.06327654160294
H           -9.91475062812075       -1.18872560486140        0.89871493872200
C          -14.85991811287647       -6.07495702545991       -3.71153560287952
H          -14.42544148854741       -7.03849498779416       -3.99786194741150
H          -15.44988600460494       -5.69524395701447       -4.55322858381547
H          -15.51933454784255       -6.22478717026419       -2.85422554306179
N          -12.83602647523072       -4.72952945350808       -4.26500953434113
H          -12.73022139418957       -5.11528146654761       -5.18762666621975
C          -13.78980693640097       -5.10468944514088       -3.36091579955656
C          -12.06397312645543       -3.78690202251105       -3.69037585141094
H          -11.24496110144272       -3.29567023562974       -4.18486268906046
N          -12.47487975444833       -3.56272677305245       -2.45973255801833
C          -13.53915760813873       -4.38000235608545       -2.23224876789014
H          -14.03066699876739       -4.38962126554651       -1.27755982715489
78
 energy: -116.047040191519 gnorm: 0.026826836170 xtb: 6.7.1 (edcfbbe)
Fe         -11.57786835699207       -2.28621416458138       -1.07636492972331
N          -12.16718313220868       -0.57266960981161       -1.98540510131016
N           -9.89418812621519       -2.27849641290021       -2.19446339334436
N          -10.91250930875631       -3.88076721067877       -0.05262500229995
N          -13.23344906211986       -2.23889497062974        0.07496399678934
C          -13.31282097344562        0.12205650164319       -1.73648849838102
C          -13.33879591409058        1.34548963510044       -2.51079725311856
C          -12.18988371917949        1.36497757128729       -3.24149433390506
C          -11.46800356145115        0.15699591426801       -2.89617148384078
C           -9.54223067185474       -1.36590767890075       -3.14315477604993
C           -8.33950182480608       -1.78297146465549       -3.82154546912253
C           -7.96974980679804       -2.98326613518131       -3.26511255037534
C           -8.94709511554298       -3.25354033896914       -2.22355653938027
C           -9.77558459614266       -4.57357966443799       -0.30399536443328
C           -9.58426759099674       -5.61553779325496        0.68398120361864
C          -10.64467611360649       -5.52766279992699        1.54594048230647
C          -11.48212447907900       -4.44861495571847        1.04563743076692
C          -13.56956805230461       -3.13398591975833        1.04181732748409
C          -14.91471097165657       -2.89391816836625        1.50440620914691
C          -15.37391121138425       -1.80955659578469        0.82325374501038
C          -14.30347511258494       -1.40177384412163       -0.05400443036861
C          -14.31910283962109       -0.27983805964052       -0.87222621221763
H          -15.19836967504131        0.34877559986313       -0.82371524843002
C          -10.24411790384714       -0.20558972787892       -3.42989811945786
H           -9.80668886121827        0.47483198334537       -4.14765003203084
C           -8.89829685846505       -4.32870401618247       -1.35112010182721
H           -8.08753782135457       -5.03145288529698       -1.47577013871596
C          -12.73183855751110       -4.12336048952981        1.53898212842936
H          -13.10092645851214       -4.70575568282900        2.37252822270570
C          -11.72536889263856        2.38709277919289       -4.22695905018428
H          -12.45095234203057        3.18963593127785       -4.32731701645041
H          -11.58371169776578        1.94075731820526       -5.21047613824878
H          -10.77562466997643        2.82442785625639       -3.92037464818224
C          -14.43249545375402        2.35907801563517       -2.45200349633510
H          -14.74286389896852        2.52314317615151       -1.42232157811570
H          -15.30357464292929        2.02814285183685       -3.01656351473687
H          -14.10301030025275        3.30927280069536       -2.86213379178702
C           -7.66467894367537       -1.01581501974028       -4.90879719846098
H           -7.83328821609979        0.05183660627250       -4.79729827279446
H           -8.04793215006092       -1.31198207145965       -5.88693091597991
H           -6.59232826622586       -1.19502308245547       -4.89709949103930
C           -6.85305469375141       -3.83492672405434       -3.60516657290282
H           -6.49495854132229       -4.49493960592869       -2.82457674271782
C           -6.25001037608395       -3.88019539815336       -4.79183436695839
H           -6.57679768687750       -3.28235551749016       -5.62052133576416
H           -5.41499789790266       -4.53253140631831       -4.97545190776285
C           -8.39223172114599       -6.50912045595119        0.75119112484140
H           -7.48159814195598       -5.94698364806470        0.55157189105913
H           -8.45871898879020       -7.30895751720338        0.01315349345569
H           -8.30802552428470       -6.96141739291849        1.73598975812861
C          -10.90963834480520       -6.28167615653303        2.75719692020232
H          -11.33552778209683       -5.71794277844377        3.57934088270670
C          -10.67286538833230       -7.57895660018040        2.93418201845283
H          -10.28536037240678       -8.19940606289099        2.14740490446541
H          -10.88117947407372       -8.06479596832078        3.87176953318027
C          -15.63456309761002       -3.73972667032043        2.50394081523600
H          -15.21823131578108       -3.61469339943734        3.50408858547089
H          -15.55506001062708       -4.79504195950788        2.24372204159941
H          -16.68940627022646       -3.48261831660200        2.54166668449187
C          -16.71779231955737       -1.16224354487290        0.91823333772476
H          -17.21260849995599       -1.42932565036284        1.84860141128148
H          -17.35989293111567       -1.47576862116858        0.09386802174956
H          -16.63710712200852       -0.07823422256689        0.88011965174412
O          -10.60817192032558       -0.96904956278941        0.31318731103700
H          -10.78866240809992       -0.04525465293714        0.09995874766785
H           -9.88101694086934       -1.15813387640531        0.91456521234150
C          -14.85706041357511       -6.08241357065505       -3.70747916070106
H          -14.43009275023907       -7.04102988472529       -3.99360768924499
H          -15.44998594328829       -5.71077780464773       -4.54199390207973
H          -15.51130257595545       -6.22908134586889       -2.85703712518862
N          -12.84480656800321       -4.71913948476072       -4.26975122090390
H          -12.73618107915644       -5.10105572005609       -5.19594368551370
C          -13.79369750677819       -5.10556018672745       -3.36259492314195
C          -12.06983604206192       -3.78020339332813       -3.68166275430546
H          -11.25130245815738       -3.29658930926957       -4.16922121402980
N          -12.47089916879392       -3.54746828140842       -2.45620345087023
C          -13.53928942270071       -4.36730004584729       -2.24020935606008
H          -14.03576215011906       -4.37772104162340       -1.29317359430136
78
 energy: -116.048944270092 gnorm: 0.057662293660 xtb: 6.7.1 (edcfbbe)
Fe         -11.57432741302364       -2.28447423857086       -1.07539494980701
N          -12.17536134618306       -0.58678057841568       -1.98929622269869
N           -9.89995234446158       -2.28128882275931       -2.19660199907486
N          -10.91284830283572       -3.87677348575201       -0.06311840832654
N          -13.24055161046067       -2.25671872036881        0.06007075977853
C          -13.31575054726274        0.10834758460611       -1.74145249586376
C          -13.34036291537071        1.33629529403883       -2.50614635354636
C          -12.19201226515966        1.35403300507687       -3.23505287961538
C          -11.47575459141398        0.14225442511971       -2.89574572497312
C           -9.55186404975082       -1.37180276759578       -3.14053571009556
C           -8.35050810987190       -1.78212332355699       -3.82191589557380
C           -7.97725400750664       -2.98309195603968       -3.26852208531809
C           -8.95329863159468       -3.25346124291217       -2.22732505588358
C           -9.77092943619311       -4.57004724175295       -0.30820522739171
C           -9.58519736611417       -5.60616533161087        0.67716060186833
C          -10.64952504671841       -5.52012656711147        1.53698416780997
C          -11.48081114487601       -4.44374126995468        1.03207632590273
C          -13.56714090237342       -3.14524130665583        1.02558258838091
C          -14.91242785959565       -2.89701227547148        1.49707426795525
C          -15.36771142647943       -1.81512007526523        0.81900159885548
C          -14.29787419644154       -1.41425123917397       -0.06819928318092
C          -14.32698635991384       -0.29204608485983       -0.88139485385775
H          -15.20610149908176        0.33296619746228       -0.83239520142898
C          -10.25675898559127       -0.21641013216811       -3.43567131733310
H           -9.83127581873579        0.45516964815124       -4.16709056154543
C           -8.89327494605351       -4.32931026113212       -1.35279720237173
H           -8.07455872886313       -5.02253922556078       -1.46999996219725
C          -12.73319199056629       -4.12891720123256        1.52993326244992
H          -13.10012761159094       -4.71130701677024        2.36217939925551
C          -11.72509395861340        2.37346162489302       -4.21320871206237
H          -12.45063063016787        3.17499438353011       -4.31104149990413
H          -11.58388173820412        1.92548003610733       -5.19540802250748
H          -10.77465824691297        2.80723465583194       -3.90627549386379
C          -14.43029974490708        2.35060228434098       -2.45272069318095
H          -14.74149856109877        2.52370566593056       -1.42548876331391
H          -15.29991020386719        2.01579029670334       -3.01626210056437
H          -14.10133654227659        3.29701413561161       -2.87130018383075
C           -7.66988639773761       -1.01016498898375       -4.89834087855198
H           -7.83782054826390        0.05633279113664       -4.78272255401769
H           -8.04584261473594       -1.30233903593365       -5.87981217865795
H           -6.59941391569979       -1.19477764432235       -4.87754740975132
C           -6.85947295356323       -3.82763921952878       -3.60189212742370
H           -6.51156451469933       -4.47908064469117       -2.81068558624408
C           -6.25040627159931       -3.88497268393842       -4.78502151811836
H           -6.58036556620128       -3.31408460947341       -5.63286695905433
H           -5.41572530570766       -4.53963320508432       -4.95851845292578
C           -8.39890421448633       -6.50265947354348        0.75214870991785
H           -7.48543318662528       -5.94607548335847        0.55426663415741
H           -8.46881154832668       -7.30349463727765        0.01656486979068
H           -8.32497150948039       -6.95165441535060        1.73818205663592
C          -10.91717075706877       -6.27477259754100        2.74092905870418
H          -11.35775778478284       -5.70661884552360        3.55179562072716
C          -10.66954129388171       -7.56979319295518        2.92206857521570
H          -10.28246077911340       -8.19490482558981        2.13932385983798
H          -10.87574472394392       -8.05722346714253        3.85837201811602
C          -15.62659080660448       -3.73694449247760        2.50517203138746
H          -15.20105700062702       -3.60562826464249        3.49877942631718
H          -15.54888969693856       -4.79043367020506        2.24406377952742
H          -16.67920618600078       -3.47576519098036        2.54600170659747
C          -16.70378902441821       -1.16142908709075        0.91491927767561
H          -17.19835184007114       -1.43119351425873        1.84319972084396
H          -17.34160399822184       -1.47131930812860        0.08708473861858
H          -16.61576225582527       -0.07925593310117        0.87919647379081
O          -10.68026566987913       -0.96376490887694        0.41507147914506
H          -10.69893756977868       -0.01136464594601        0.11072005836317
H           -9.82523314142420       -1.12382555000004        0.90237498717019
C          -14.85251472142460       -6.08429244585790       -3.70113031547311
H          -14.42234526428174       -7.04187538174816       -3.98496260711597
H          -15.45292731039927       -5.72307076392077       -4.53461211164827
H          -15.50254561845221       -6.23254281516023       -2.84812560313028
N          -12.84893944118012       -4.70502050290577       -4.27282575828958
H          -12.73986894577026       -5.08185091455740       -5.20119104106352
C          -13.79611437711507       -5.09660910705305       -3.36341124133746
C          -12.07403703106480       -3.76802199283572       -3.67945979436862
H          -11.25193431173787       -3.28859705493465       -4.16401070905906
N          -12.47124351213477       -3.53396407183870       -2.45471038860610
C          -13.54197008388119       -4.35432404617536       -2.24376825175230
H          -14.04552922671918       -4.36494903091541       -1.30111570889561
78
 energy: -116.051111941304 gnorm: 0.019467343194 xtb: 6.7.1 (edcfbbe)
Fe         -11.56918646497859       -2.28245250556729       -1.07433512586607
N          -12.18000288405343       -0.59669419566278       -1.98851623729352
N           -9.90118550520064       -2.28416691936355       -2.19371759737943
N          -10.91152802649289       -3.87201534534576       -0.07008846310688
N          -13.23953378724155       -2.26495336129332        0.04621033961449
C          -13.31964907596310        0.09775388688505       -1.74263142860919
C          -13.34259522712443        1.32703246063102       -2.50434738302351
C          -12.19416433785201        1.34520921694419       -3.23270804260014
C          -11.48065812036309        0.13254524555603       -2.89690464266629
C           -9.55724492776605       -1.37627260383280       -3.14336508409406
C           -8.35785629834756       -1.78294280112187       -3.82654107667291
C           -7.98466702644600       -2.98361970541841       -3.27310847872600
C           -8.95485553621919       -3.25547230553374       -2.22806714752359
C           -9.76726772641565       -4.56648701818069       -0.31204100763943
C           -9.58429856192793       -5.60164539416173        0.67170375728772
C          -10.65150309124619       -5.51663819058120        1.52683909440301
C          -11.48015765142649       -4.44053468172423        1.02154521295480
C          -13.56472056282999       -3.15101012863698        1.01642646394319
C          -14.90930986227088       -2.90248220790523        1.49512030595574
C          -15.36353262543275       -1.81790803471135        0.81475996158585
C          -14.29472903505246       -1.42237331667542       -0.07950372721160
C          -14.33213837223212       -0.30230850968010       -0.88836581189332
H          -15.21261750475897        0.31979488675688       -0.84022526559961
C          -10.26537326236921       -0.22364500702618       -3.44481408325945
H           -9.84899657854223        0.44100965895303       -4.18746252839275
C           -8.88826752697969       -4.32792361188172       -1.35434577239987
H           -8.06508153019340       -5.01670757307968       -1.46815281492727
C          -12.73314825619000       -4.13295475886170        1.52143585252454
H          -13.09829640397625       -4.71671435417454        2.35303029654592
C          -11.72255434663385        2.36556902590385       -4.20724626571243
H          -12.44916424727869        3.16827129615907       -4.30165555159109
H          -11.58247982895230        1.91495609294126       -5.18978500766787
H          -10.77038012316217        2.79525322442484       -3.89567583402096
C          -14.43060499734851        2.34359335357506       -2.45362675037822
H          -14.74047913906075        2.52421487114696       -1.42571511282736
H          -15.30119999472312        2.00417072556130       -3.01581088124507
H          -14.09931385087259        3.28790924315851       -2.88002309991197
C           -7.67215280460755       -1.00630243028732       -4.89495438653128
H           -7.84021620869048        0.06103280442293       -4.77216741711487
H           -8.04417088868111       -1.29425833525744       -5.88033273165886
H           -6.60115037309330       -1.19558932912986       -4.86533572790788
C           -6.86402700684703       -3.82678489148956       -3.60138830664296
H           -6.51653947915518       -4.46858938346976       -2.80082559109653
C           -6.25339272737749       -3.89512957704557       -4.78267326821979
H           -6.58423621516937       -3.33688169950838       -5.64205675621846
H           -5.41336523577242       -4.54919059520169       -4.94498872849725
C           -8.40131435833010       -6.50067579745170        0.75258581099604
H           -7.48468191262400       -5.94639835281468        0.55576577812991
H           -8.47505100400311       -7.30324254436229        0.01746034990426
H           -8.33563092972760       -6.94596665981649        1.74237173162784
C          -10.92402321869240       -6.27117387303881        2.72891114575423
H          -11.37526628791285       -5.70141371112197        3.53436387616873
C          -10.66886451981657       -7.56295392508562        2.91257455524885
H          -10.27544319712759       -8.18908829696334        2.13096369254295
H          -10.87418761521340       -8.05133194366915        3.85045475599277
C          -15.61871338071352       -3.73567497794784        2.50913655508707
H          -15.18379287076286       -3.59781111914118        3.49864851420478
H          -15.54302194748407       -4.79002796912944        2.24810996826792
H          -16.67121935259826       -3.46861769943049        2.55355339737634
C          -16.69485286029943       -1.15778285672662        0.91232250703123
H          -17.18943837585195       -1.43086229122104        1.84105716073401
H          -17.33071806651658       -1.46435372137865        0.08031111603171
H          -16.59784716079012       -0.07516212933441        0.88087698988728
O          -10.62967420021062       -0.94130703979042        0.40054376474926
H          -10.72683459849224       -0.01509168357120        0.18777514163572
H           -9.83864591404915       -1.09932730808347        0.93177436548666
C          -14.84952880757509       -6.08306685799370       -3.69393828951256