78
 energy: -116.058078022876 gnorm: 0.000052205717 xtb: 6.7.1 (edcfbbe)
Fe         -11.57422883593173       -2.27631131562780       -1.02221696352420
N          -12.18990153338480       -0.60688350740378       -1.96482049520193
N           -9.89080469498949       -2.26466192833350       -2.13231048854862
N          -10.92845812504128       -3.89440319952484       -0.05363006329525
N          -13.21541124275921       -2.23851982393600        0.10511830478514
C          -13.36451053768360        0.05100296072429       -1.77448591900303
C          -13.47045202835159        1.17852677229566       -2.67203805874373
C          -12.33043581196429        1.18599936262663       -3.41490125959220
C          -11.54490445447328        0.05999005250326       -2.96311550501095
C           -9.55272425643477       -1.37236303297912       -3.10670437165644
C           -8.29732131076065       -1.72747337315654       -3.71326691111609
C           -7.88070546196651       -2.87675531787113       -3.09241738313959
C           -8.89222858508716       -3.18630879135516       -2.10231394491717
C           -9.78316235712235       -4.58880068228554       -0.29389692737761
C           -9.67292050146447       -5.72033468624214        0.59292407168194
C          -10.79012901527833       -5.69792610207349        1.38363111698021
C          -11.55570577173482       -4.54065983379705        0.95931573185758
C          -13.54241243232897       -3.11037118641303        1.09300398843056
C          -14.82340847132919       -2.76988369731992        1.67541848169833
C          -15.26276388011570       -1.66964384009705        1.01012272030429
C          -14.24333391919721       -1.35355504009836        0.03186929261702
C          -14.32845313962116       -0.28859256539552       -0.84367833195224
H          -15.21277437042088        0.32811615747122       -0.79605346253557
C          -10.31524266685929       -0.28131990554915       -3.49237230683897
H           -9.92992278766961        0.33825309945667       -4.28774447194309
C           -8.84015658352612       -4.27712512544745       -1.25660421835472
H           -7.99602580431445       -4.94203602869717       -1.35585839257510
C          -12.77869613655898       -4.18755080896721        1.49876537062818
H          -13.17129410107451       -4.80259379990346        2.29418029639102
C          -11.90918205046292        2.12871220352038       -4.49003378703428
H          -12.66242522744471        2.89668016823808       -4.64725445967611
H          -11.75954700262892        1.59810204336388       -5.43091529243434
H          -10.97116824845710        2.61823840117282       -4.22640830043783
C          -14.63169058092038        2.11134161820228       -2.71605860253925
H          -14.76336690534611        2.60498224724574       -1.75290702212700
H          -15.54935662370927        1.56937191273018       -2.94540642029659
H          -14.48634346394170        2.87596378092748       -3.47529620205512
C           -7.59261042778927       -0.93141902533051       -4.75619585896037
H           -7.72279962422084        0.13564905835256       -4.58134617909112
H           -7.97942009456830       -1.15962126459731       -5.75103241244317
H           -6.52859156531233       -1.15884610246470       -4.74241705951167
C           -6.67559407681276       -3.64580626595554       -3.30873519273030
H           -6.26499405045998       -4.12918026256627       -2.42985689575308
C           -6.05910719803461       -3.80413971616893       -4.47558644008839
H           -6.44531240948243       -3.38862977637089       -5.38993602037818
H           -5.15378541673523       -4.38210409240590       -4.55989344214043
C           -8.51485153049650       -6.65415004891968        0.65252740802427
H           -7.57835750529112       -6.11615962830364        0.51301885418415
H           -8.58672511141936       -7.41441339648637       -0.12715889404467
H           -8.48798621157434       -7.15364919424400        1.61876503014179
C          -11.17163623749852       -6.59063607763780        2.45559646108392
H          -11.70740072625180       -6.13121379585193        3.27815783484788
C          -10.92461184757063       -7.89593680343734        2.49691580323568
H          -10.43868983731801       -8.41285577265687        1.68777525886728
H          -11.22553259465693       -8.50022549055085        3.33670362454508
C          -15.46798799385177       -3.52357817051208        2.78762726612870
H          -14.83146177353478       -3.51654493125880        3.67256240951051
H          -15.63707800724931       -4.56194853478266        2.50110616428873
H          -16.42538894321491       -3.08097055500483        3.05142465029774
C          -16.52026397214777       -0.89168694829211        1.19578998536416
H          -17.12986729056525       -1.32473838110912        1.98499197200677
H          -17.10535768846232       -0.88277861102490        0.27581122956667
H          -16.29577099168421        0.14097639431584        1.46379452808641
O          -10.46421670565893       -0.88323674668901        0.42379894500665
H          -10.82092685777755       -0.03713486435506        0.13204406525581
H           -9.57227899884661       -0.95279634811853        0.06633902399409
C          -14.52037438775831       -6.20614609532023       -3.65752004748337
H          -13.97688508504132       -6.91362499343032       -4.28361677229858
H          -15.42209460133743       -5.90293573017881       -4.18951290288573
H          -14.80970099247284       -6.70581835497742       -2.73841712195544
N          -13.15703420588709       -4.20774984233442       -4.30501654775396
H          -13.28747702911746       -4.31329017297385       -5.29769110789888
C          -13.67511339307909       -5.02819042446593       -3.33743530674979
C          -12.44206462518322       -3.24286170320826       -3.68411831944879
H          -11.92218256874416       -2.45887288712244       -4.19465551091195
N          -12.47616576354581       -3.40211845458188       -2.38346704482357
C          -13.23989249282041       -4.50851802664831       -2.15210076780440
H          -13.42284024615817       -4.85430515032718       -1.15568048273006
