87
 energy: -124.720514807604 gnorm: 0.000032839801 xtb: 6.7.1 (edcfbbe)
Fe          83.30445560454380       24.09044489471144       17.72597738132324
N           82.43607242789469       23.80447249065915       15.95072127679470
N           83.89589797468309       25.91256206052034       17.14118149598322
N           84.17902279460968       24.38536642949713       19.51031011295626
N           82.64385376900483       22.30174109391298       18.34466722001522
C           81.75074016244453       22.70372614603662       15.54731737618035
C           81.31392645168982       22.84745507001279       14.17478765306422
C           81.75092824087413       24.06589740501702       13.76187940107056
C           82.44722456965150       24.64908943608801       14.88846619857833
C           83.66821639585463       26.49816589749114       15.93633074086363
C           84.22222884448298       27.83365313396289       15.90378082499409
C           84.79059307230123       28.04016497751978       17.12209965596296
C           84.57596705669350       26.82773180439422       17.88003838462497
C           84.84443490883383       25.49420788351700       19.92157315219094
C           85.35232199458170       25.31753390698193       21.26793637520175
C           84.93838442728487       24.07412016950311       21.66740596638960
C           84.20001997959206       23.52005011212906       20.56201483087436
C           82.83761039743926       21.73584822276162       19.56374420359922
C           82.19185697527223       20.43932362359086       19.63511975313511
C           81.58953105894413       20.25255330842095       18.41905751739299
C           81.88827223632198       21.42319231208979       17.63478499520328
C           81.47948671735888       21.59664159994727       16.32383663908880
H           80.90998634500482       20.79970173438842       15.87086529899120
C           83.01122157982901       25.91066344708096       14.87091334243260
H           82.92840821163053       26.48304710199135       13.95948640921839
C           85.03465762983926       26.63903121929158       19.16960552092801
H           85.58580215878914       27.44885919895271       19.62233840215444
C           83.58144893310865       22.28135396500711       20.59231749935359
H           83.68636356987570       21.69784479938973       21.49421959642259
C           80.54073853293229       21.81698362156316       13.42594501999700
H           79.58966258780659       21.61599823539869       13.92005792499443
H           81.09960641933259       20.88250359624317       13.37547680181994
H           80.33555569461026       22.14851231953679       12.41097068313529
C           81.58725263416842       24.73166332414000       12.43846795537755
H           82.56024518211544       24.95664001504854       12.00160305598884
H           81.03901982787264       25.66872090742225       12.54290542549371
H           81.04188694532341       24.09223432782291       11.74877021067241
C           80.73039406309167       19.12030288924304       17.97599983661587
H           81.29777251536221       18.41692087469130       17.36408248308327
H           79.89225838183086       19.48282301470919       17.38274658457086
H           80.34082999180075       18.58650025004394       18.84057012729276
C           82.19630706332953       19.57871754879330       20.79703653220396
H           82.20775703190135       20.08495075878982       21.75567176681579
C           82.19642294794029       18.24977378354713       20.77273888665000
H           82.23353757995478       17.69359619518591       19.85240182174938
H           82.18582205763467       17.66969559575795       21.68062063445215
C           85.12227709581418       23.41935484602526       22.99195432330325
H           85.93608992502421       22.69265544564979       22.95913400885109
H           84.21643132841483       22.89495849874859       23.29313451411715
H           85.35873312958888       24.16607746381182       23.74723207205283
C           86.11328884426413       26.30602257025352       21.99923004186130
H           85.85933372174418       27.33950802075233       21.79322101978230
C           87.08013731508332       26.04292278449745       22.87240555848672
H           87.40727327873773       25.03904458798670       23.08047472556799
H           87.59884257065407       26.83082718197748       23.39300599681617
C           85.50888657689005       29.23924707150610       17.63833758800774
H           86.53615107061387       28.98621747376445       17.90231851559769
H           85.01671254706245       29.62691551146252       18.53065582303217
H           85.53278883519752       30.02802169866355       16.89035234596513
C           84.15300821912697       28.74405068831264       14.72570503377401
H           84.63262434353052       29.69514408059941       14.94347477817105
H           83.11633687280421       28.93805779384053       14.44868983448605
H           84.65357966334105       28.29682664226632       13.86640237074338
C           78.91019328119954       25.60069069235456       20.81745857313381
H           77.91845305859104       25.30104371347491       20.47878723727841
H           78.85709794252399       26.63616435211458       21.15378420305852
H           79.19410822471676       24.97597199696946       21.65849592515167
N           79.80428906504429       26.11940962451721       18.53615149433853
H           79.06941684286156       26.75902873517903       18.28220135163716
C           79.90744954373844       25.45045205621904       19.72777030696430
C           80.86239256004060       25.76392700958239       17.77367415099996
H           81.04231312446723       26.13323788062676       16.78534248782571
N           81.62836158348617       24.91173122943642       18.40945374313442
C           81.04791030451501       24.70668921721226       19.62585098157237
H           81.48515212972279       24.04277962574562       20.34199245566684
C           86.96710164534771       25.03274017124380       15.84882155146043
H           87.80929924871592       25.70037436868536       16.01973286628474
H           86.08831922829548       25.63096713553920       15.62753587816605
H           87.18341345993878       24.40589350896365       14.98698024329831
C           86.72562403062980       24.17668965441642       17.07682872769891
H           86.51706285080185       24.79039442018503       17.95152789042075
H           87.58284680023074       23.53238682184512       17.27226851251475
S           85.28253112440918       23.06858857343302       16.80465056021465
C           85.77038960220510       21.74021120305493       17.94767331455882
H           85.87540160745785       22.13837202222893       18.95183689207243
H           86.70197760287139       21.29969187692797       17.60205737177144
H           84.97939585486594       20.99873104716382       17.92855175424621
