87
 energy: -124.452623555558 gnorm: 0.329346732120 xtb: 6.7.1 (edcfbbe)
Fe          83.26300000000001       24.16800000000000       17.72100000000000
N           82.37200000000000       23.87100000000000       15.98300000000000
N           83.83100000000000       25.95400000000000       17.16900000000000
N           84.17300000000000       24.43900000000000       19.46800000000000
N           82.65800000000000       22.39100000000000       18.32300000000000
C           81.61699999999999       22.79600000000000       15.57200000000000
C           81.18400000000000       22.94300000000000       14.19300000000000
C           81.63700000000000       24.15000000000000       13.78100000000000
C           82.37700000000000       24.72500000000000       14.89100000000000
C           83.69199999999999       26.53700000000000       15.91900000000000
C           84.32500000000000       27.84100000000000       15.86500000000000
C           84.81299999999999       28.08200000000000       17.10200000000000
C           84.52300000000000       26.91400000000000       17.90500000000000
C           84.79900000000001       25.57400000000000       19.93500000000000
C           85.27799999999999       25.39000000000000       21.29100000000000
C           84.92100000000001       24.14000000000000       21.66600000000000
C           84.26300000000001       23.53700000000000       20.52400000000000
C           82.92699999999999       21.74000000000000       19.53300000000000
C           82.21400000000000       20.47200000000000       19.64500000000000
C           81.48300000000000       20.37100000000000       18.49100000000000
C           81.77900000000000       21.53600000000000       17.67400000000000
C           81.30900000000000       21.71600000000000       16.39000000000000
H           80.64499999999998       20.95200000000000       15.98600000000000
C           82.99599999999998       25.96300000000000       14.86600000000000
H           82.93099999999998       26.53500000000000       13.94000000000000
C           84.96399999999998       26.73900000000000       19.20700000000000
H           85.47400000000000       27.57300000000000       19.68900000000000
C           83.69400000000000       22.28100000000000       20.55000000000000
H           83.86100000000000       21.66900000000000       21.43700000000000
C           80.46599999999999       21.92000000000000       13.32400000000000
H           79.57100000000000       21.83100000000000       13.97600000000000
H           81.15800000000000       21.08000000000000       13.54600000000000
H           80.14399999999999       21.87600000000000       12.26200000000000
C           81.33499999999998       24.80100000000000       12.43900000000000
H           82.39000000000000       24.91700000000000       12.11100000000000
H           80.98699999999998       25.76000000000000       12.87800000000000
H           80.71100000000000       24.53700000000000       11.55800000000000
C           80.52600000000000       19.23600000000000       18.10700000000000
H           81.33799999999999       18.48100000000000       18.18400000000000
H           79.81600000000000       18.92100000000000       17.31300000000000
H           80.00000000000000       19.30100000000000       19.08300000000000
C           82.30699999999999       19.50100000000000       20.68300000000000
H           81.45399999999998       19.50600000000000       21.37300000000000
C           82.87800000000000       18.16400000000000       20.46200000000000
H           83.73800000000000       18.02800000000000       19.79000000000000
H           82.45200000000000       17.28400000000000       20.96600000000000
C           84.98300000000000       23.55900000000000       23.07100000000000
H           85.53099999999999       22.64500000000000       22.75700000000000
H           83.90499999999999       23.31200000000000       23.18100000000000
H           85.39300000000000       23.91000000000000       24.04200000000000
C           85.93300000000001       26.34100000000000       22.06700000000000
H           85.51600000000001       27.32000000000000       21.83100000000000
C           87.22399999999999       26.09500000000000       22.69300000000000
H           87.56100000000001       25.06700000000000       22.89200000000000
H           87.87700000000000       26.93400000000000       22.97400000000000
C           85.56599999999999       29.33400000000000       17.54700000000000
H           86.30000000000000       29.26600000000000       16.71600000000000
H           86.06999999999999       29.76500000000000       18.43800000000000
H           84.72499999999999       29.98900000000000       17.23300000000000
C           84.65699999999998       28.62900000000000       14.60700000000000
H           85.68999999999998       28.83299999999999       14.96200000000000
H           83.99799999999999       29.46800000000000       14.91700000000000
H           84.66700000000000       28.54300000000000       13.49900000000000
C           78.75300000000000       25.16900000000000       20.82600000000000
H           77.84399999999999       24.70300000000000       20.38900000000000
H           78.48999999999999       26.17599999999999       21.21300000000000
H           79.12400000000000       24.52900000000000       21.65400000000000
N           79.63300000000000       26.03800000000000       18.57900000000000
H           78.84600000000000       26.61100000000000       18.35100000000000
C           79.83099999999999       25.29500000000000       19.74700000000000
C           80.74500000000000       25.79600000000000       17.85000000000000
H           80.90900000000001       26.24300000000000       16.86900000000000
N           81.56900000000000       24.98900000000000       18.44500000000000
C           81.03900000000000       24.62800000000000       19.69700000000000
H           81.54899999999999       23.96900000000000       20.38700000000000
C           87.30100000000000       25.14000000000000       16.51600000000000
H           88.24500000000000       25.55000000000000       16.93400000000000
H           86.55800000000001       25.96300000000000       16.44600000000000
H           87.50799999999998       24.73600000000000       15.50200000000000
C           86.76500000000000       24.03000000000000       17.41900000000000
H           86.57500000000000       24.46099999999999       18.42400000000000
H           87.55000000000000       23.25100000000000       17.51600000000000
S           85.23300000000000       23.26300000000000       16.79600000000000
C           85.51100000000000       21.62000000000000       17.33000000000000
H           85.62100000000000       21.56800000000000       18.43400000000000
H           86.44099999999999       21.22000000000000       16.87300000000000
H           84.65699999999998       20.97200000000000       17.03900000000000
87
 energy: -124.584069723406 gnorm: 0.178742849801 xtb: 6.7.1 (edcfbbe)
Fe          83.26870274485970       24.16408068093467       17.72406271256162
N           82.36169674016614       23.87248431389842       15.96513128896291
N           83.83437112150332       25.95862306126089       17.16694414342552
N           84.17831221208446       24.43749414847102       19.48625477272828
N           82.65150168853665       22.38182564296545       18.33188332071628
C           81.62019310909035       22.79290344045750       15.56409104221533
C           81.18751105887783       22.94433488800674       14.18481108166595
C           81.62886583148186       24.14792256616639       13.77731244792786
C           82.37008163413185       24.72404951110731       14.88604921632675
C           83.69077541918284       26.51832727980177       15.92208586626376
C           84.33996367711993       27.80005137415071       15.86109337273574
C           84.81314745005940       28.05682133719228       17.11621344898890
C           84.51422785581003       26.89991357066224       17.90958353670813
C           84.79201993625891       25.57337052045122       19.93824662347403
C           85.27910602606194       25.39150812519751       21.29256259330404
C           84.91607723097395       24.14398747263306       21.67072407037325
C           84.25406435923358       23.54289569803528       20.53336910774884
C           82.92509498866018       21.74392022322850       19.52621549472592
C           82.23018918727679       20.47117864141490       19.61529864513451
C           81.48423776819985       20.39056616518754       18.46617928008108
C           81.78166401360484       21.54946724752955       17.67184014109907
C           81.30919168607051       21.72200046085988       16.38503105385922
H           80.65050939362811       20.95547977556496       15.98825617376075
C           82.99544568631885       25.95697761178263       14.86473744495730
H           82.93452641028371       26.53312800651307       13.94600804879638
C           84.95606256824405       26.73440168231469       19.20813058585432
H           85.47089358586565       27.56599407737204       19.68076444688180
C           83.69456843993092       22.27792285154333       20.54601702662993
H           83.85477477615599       21.66818488358443       21.43061990207660
C           80.46355125533859       21.89783245682333       13.37162130235246
H           79.54990061812546       21.78702688565313       13.96617897596061
H           81.13105502801523       21.04348226695961       13.53427162673342
H           80.17932709234704       21.92561894513085       12.30386281976361
C           81.36774140844351       24.83513188078632       12.45906616848024
H           82.38967761017251       24.95056420167764       12.08082831086799
H           80.98989541421891       25.79215855704835       12.83681751187005
H           80.72581525352699       24.50508550664278       11.62201024347274
C           80.55309127843098       19.22741055545159       18.14963633513635
H           81.30859169290046       18.43224861050260       18.19487533458967
H           79.86078090627650       18.98937395848401       17.32145108380973
H           79.97826461059765       19.24851063362812       19.08441549160788
C           82.28274549157888       19.44285484233427       20.64277397987849
H           81.47016274929447       19.49596592727851       21.37800088259570
C           82.85807962161827       18.20002230701247       20.46193256227828
H           83.70754838631314       18.04582131491009       19.79615351863031
H           82.47709559690344       17.32038476784362       20.98229512741351
C           84.97115209686646       23.51902667300413       23.04327242590555
H           85.52505928181583       22.60678257877265       22.79631032018502
H           83.91122207273058       23.28582920613596       23.21027415419969
H           85.38823954478306       23.93929829144346       23.97593768562983
C           85.99051958538790       26.35594774831091       22.05228028489725
H           85.56407953451907       27.33841905786334       21.85995243533829
C           87.18991476663302       26.11113722801090       22.67821992282627
H           87.53999588398736       25.09535053208413       22.86904604440018
H           87.84478903235230       26.92370007042230       22.98561879676797
C           85.54854214436158       29.33205935337106       17.50138741757521
H           86.31845994624661       29.31667418795195       16.71700222753394
H           86.03035853190205       29.69452844411182       18.42741707800410
H           84.75373827863403       30.03889792756630       17.22743116426036
C           84.66025746677063       28.65654450117606       14.64889776048108
H           85.70051863720079       28.88058372610459       14.92206984224011
H           84.01857413462160       29.51445166510803       14.88805618968783
H           84.63825667215693       28.49230226796230       13.55616414354896
C           78.75497686766273       25.17337529123857       20.82077935865521
H           77.85381854204283       24.71026824788025       20.39601907715079
H           78.49083712193908       26.16402602179074       21.21179360049378
H           79.11941794723187       24.54237237020768       21.63949175394465
N           79.64292419574384       26.02182949796863       18.59677440066323
H           78.85272807688429       26.60085312394337       18.36308161356365
C           79.81757373782962       25.28568683560430       19.75836631864017
C           80.75090485340638       25.79099670959567       17.85197386743551
H           80.91133959226659       26.23521841720879       16.87937284022108
N           81.57805733458808       24.98328066365377       18.44787573500303
C           81.02341207527343       24.64355121479626       19.67624536416418
H           81.53391327381073       23.98807677383914       20.36543810762345
C           87.29839033453867       25.13924075167111       16.51441225948052
H           88.23139851688391       25.54493500419226       16.92838208642577
H           86.56734506703260       25.95231525911630       16.44228084758380
H           87.50308077395320       24.74418033735958       15.51175220397125
C           86.77474140190073       24.03693245088769       17.42614813680521
H           86.57326752621437       24.45432592441102       18.42133540250382
H           87.53831575111759       23.25132278522867       17.51615588206048
S           85.24186005623450       23.27266102600364       16.77718436042614
C           85.51696258347486       21.60981592501147       17.33759959197427
H           85.61763481426682       21.56667126554691       18.42959042457618
H           86.43297686589945       21.21715327772842       16.87575286161059
H           84.66634446505954       20.98306848926055       17.04114784611644
87
 energy: -124.654188891945 gnorm: 0.085999175786 xtb: 6.7.1 (edcfbbe)
Fe          83.26969345991145       24.16473385883123       17.72910761199287
N           82.35242048808968       23.87395259965862       15.94678881479748
N           83.83856020906917       25.96856230350890       17.16365014702239
N           84.18116775301839       24.43538629445806       19.50461619348374
N           82.64443306217642       22.37033017679357       18.33919327668250
C           81.62299254727408       22.79128052447266       15.55641796738101
C           81.18788450092416       22.94241579815683       14.17428897951056
C           81.61915590065580       24.14893256859133       13.76939724104352
C           82.36250620563574       24.72317269774275       14.88207800889892
C           83.69806586862408       26.50636043166114       15.92098583704213
C           84.35672310438819       27.77628237291558       15.85297250980933
C           84.81964598686017       28.04504528253629       17.12119909844354
C           84.51149217649369       26.89231389274019       17.90890196063091
C           84.78856222746793       25.56929769766774       19.94294009981629
C           85.27045515734326       25.39130076560268       21.30030537515900
C           84.90710845695129       24.14487217144700       21.68058750419723
C           84.24188321325593       23.54884302249526       20.54193105205199
C           82.92549428226312       21.74481446344901       19.51866628186974
C           82.24549138613469       20.47244661177886       19.59299816152888
C           81.48630628366166       20.39534775609730       18.44855998856154
C           81.78175815824387       21.55667786139534       17.67146096885557
C           81.30859055449267       21.72785417633133       16.37932460531602
H           80.65645165283999       20.95820045243715       15.98968386436213
C           82.99752652282436       25.95074309587113       14.86149725533845
H           82.93999818107810       26.53113207877130       13.95059109809618
C           84.95019184519617       26.72918361877390       19.21004533036720
H           85.46705877940404       27.55870871340470       19.67403397837636
C           83.69552540329661       22.27523013266442       20.54112911106647
H           83.84801218339335       21.66667000598321       21.42301941935421
C           80.46167433172826       21.87578379900436       13.41829627496706
H           79.52843999321223       21.74064416432632       13.95877198993696
H           81.10145873213847       21.00206706716999       13.52635563364988
H           80.21898640388851       21.98600357216349       12.34703448827219
C           81.39958014822778       24.86888805209817       12.47827142427271
H           82.39163544123468       24.98770894349163       12.05051625758442
H           80.99622884551258       25.82911679784402       12.79342720248074
H           80.73928549217898       24.46392728844902       11.69247127944650
C           80.58179928484805       19.21795052705695       18.19185649694876
H           81.28049921577939       18.38238319678917       18.20692932916502
H           79.91351686156004       19.07458699779352       17.32261628700344
H           79.95981258561726       19.19871888373880       19.08733991585691
C           82.25462161611642       19.39567446876612       20.60551354298378
H           81.47524037316617       19.49557522251044       21.37060481445897
C           82.84176908124141       18.23336668147282       20.46273667503105
H           83.66890510086752       18.05840785325701       19.78266519973974
H           82.51569450954464       17.35396388101907       21.01392391183145
C           84.95900968906454       23.47972863166982       23.01739512188604
H           85.51920576935872       22.56645235911266       22.83666490047104
H           83.91626017724130       23.25186055412968       23.24076714335512
H           85.38838793182934       23.97794897632759       23.90256381248743
C           86.03604953327232       26.37033817457240       22.03693645471993
H           85.61449354871819       27.36013072149993       21.88039616178913
C           87.16450832120211       26.12757023688409       22.66153993620271
H           87.52956009618639       25.12052071252072       22.83848317196680
H           87.81466220299498       26.91866803714599       23.01295918550686
C           85.53221427101559       29.32950402235127       17.45483225767859
H           86.33490709091434       29.36544542389375       16.71505041781502
H           85.98386399674796       29.60412033735803       18.42532583939399
H           84.78000960490837       30.08418781583006       17.21943556468459
C           84.66392802612444       28.68303864402211       14.69132103938578
H           85.70888864614405       28.93145560455370       14.88762743814078
H           84.03541977407907       29.55591531204725       14.86323548432569
H           84.60019256464719       28.42221615157020       13.61901526115331
C           78.75685857216489       25.17704034849348       20.81587247143334
H           77.85877660081249       24.71667101526586       20.40092023398120
H           78.49227616170418       26.15776170779490       21.20954457726960
H           79.11716086681454       24.55276016871440       21.62989160371936
N           79.65133437553365       26.00662548795443       18.61086760867627
H           78.86155612644905       26.58980840091259       18.37140612456750
C           79.80626785688310       25.27733441171947       19.76719849280369
C           80.75406974723064       25.78857091001595       17.85371957417519
H           80.91182706330591       26.22978204487631       16.88839512820833
N           81.58368733322250       24.97674323384292       18.45413479391651
C           81.01390361452393       24.65401399635078       19.65740472269467
H           81.52062645594555       24.00166874676513       20.34743729979887
C           87.29814562192894       25.14028044183346       16.51477855758375
H           88.22392491196638       25.54425858123363       16.92421576105984
H           86.57203627049104       25.94431336369606       16.43962878852604
H           87.49761020661127       24.74761460660750       15.52007471455425
C           86.78274277470847       24.04322891939150       17.43110108860548
H           86.56927999331120       24.44888762312423       18.41876367516423
H           87.52788081636346       23.25085264288899       17.51518344079567
S           85.24586284053049       23.28040540257981       16.76186928168688
C           85.52228544907339       21.59537516321624       17.34485239438622
H           85.61408017926615       21.56985018991086       18.42737397405315
H           86.42847399362655       21.21321950308695       16.87814672971241
H           84.67046735525270       20.99197255104685       17.04196730697902
87
 energy: -124.685746240978 gnorm: 0.049557402972 xtb: 6.7.1 (edcfbbe)
Fe          83.27126273101439       24.16532735275452       17.73095317607894
N           82.34828966182050       23.87735558640893       15.94207669587804
N           83.84339283480801       25.97154264469982       17.15956934985138
N           84.17458047185826       24.43401648894236       19.51165794112436
N           82.63832819754320       22.36664066460909       18.33811440245881
C           81.62558147279481       22.79404180303121       15.55523908133801
C           81.18765517268466       22.94169504649011       14.17473464178590
C           81.61697545879943       24.15488439235002       13.76865445818617
C           82.35963011525062       24.72481533054271       14.88359605504194
C           83.71024033892151       26.50123287191846       15.91539480693250
C           84.37059295100470       27.77223887351695       15.84790871452833
C           84.82930125128549       28.04195827287446       17.11450532844173
C           84.51368900269698       26.89007892856921       17.90555574046493
C           84.78096854705194       25.56679101427559       19.94502669452498
C           85.25927545460750       25.39297584053002       21.30211465794070
C           84.89621081751653       24.14190505387813       21.68391919694982
C           84.22675896650800       23.55128749641285       20.54494818806914
C           82.92553310829740       21.74366714171697       19.51200930870523
C           82.24700970854484       20.47716274991382       19.58115921432301
C           81.49218884736980       20.38677978508024       18.44057402947152
C           81.77964287059112       21.55629655877958       17.66767994122698
C           81.30890070467068       21.73173734256802       16.37460934021335
H           80.66202839101855       20.95952182431657       15.98629748112845
C           83.00320674091641       25.94683199281352       14.85865752219280
H           82.94892776989053       26.52882546082168       13.95079371045592
C           84.94298437911768       26.72503357519340       19.21062006858052
H           85.46392799495686       27.55210650991486       19.66930343554543
C           83.69157500711563       22.27361755594195       20.53719171572266
H           83.83957265106224       21.66209122729766       21.41588247619920
C           80.45956069424477       21.86345816741782       13.45072925587331
H           79.50656415652368       21.69288433915456       13.95291865813303
H           81.06762485206923       20.95940394824894       13.52078862831722
H           80.25325612446780       22.04711579832776       12.38351771991414
C           81.42125016908857       24.89113267113061       12.49070766802846
H           82.39439735818075       25.02740900704330       12.01927001149993
H           81.00592828859001       25.86880681600385       12.74587985909662
H           80.74986382145651       24.41994434929666       11.75448586015949
C           80.60012971145690       19.21079048639186       18.21256635783031
H           81.24672421831642       18.32840693554507       18.21583296952786
H           79.96159951749527       19.16009133928937       17.31016903369398
H           79.94180971004923       19.14703626419487       19.08455570885621
C           82.21581933866531       19.39709616430346       20.58877077703082
H           81.45455155263733       19.50878018659132       21.36100894217324
C           82.85859334816251       18.23625168187881       20.47765128033578
H           83.63994107986652       18.06066679004498       19.74713978352323
H           82.58049158531064       17.36894012364982       21.07265955380793
C           84.95280041976902       23.45301763650437       23.00074461712877
H           85.51419815529330       22.52587709764743       22.87740740477652
H           83.92322884062264       23.21008458085868       23.27647986454936
H           85.39687875086646       24.01966707840272       23.83512158237220
C           86.04476391464976       26.38867457901683       22.01273701785083
H           85.65435171677990       27.39268200975676       21.87944593983875
C           87.16549526461304       26.13456536510775       22.67726933500535
H           87.53841874680450       25.12744378232275       22.80948710941128
H           87.79721629460276       26.91989669850332       23.06846018842302
C           85.52349687841942       29.32494478426611       17.42984305691522
H           86.35590360104331       29.41856680594755       16.72165017876502
H           85.93816157582745       29.50917061555960       18.43901885545151
H           84.81073584069168       30.12810826585814       17.21305659329236
C           84.66040592141988       28.69745171432237       14.71326476189745
H           85.71227297388147       28.98658718775996       14.83913486374386
H           84.05005462912614       29.59508699358483       14.83704731904629
H           84.55045757518643       28.34677003505390       13.66945034347218
C           78.75615423164452       25.18007805605698       20.81434142666791
H           77.85557062119445       24.72178530194530       20.40545953210918
H           78.49355328519883       26.16016967147210       21.20822730029791
H           79.11642766061762       24.55931641705526       21.62871600262221
N           79.65566546803967       25.99719721119416       18.61462764949478
H           78.86845611334635       26.58108465836338       18.37518896959430
C           79.80249455776803       25.26987576458522       19.76790675592266
C           80.75637940720476       25.78611606604899       17.85456886354889
H           80.91391214950214       26.22715825298230       16.89236003659797
N           81.58734782710340       24.97140572235120       18.45687536261676
C           81.01221969974478       24.65115678561394       19.64856227457525
H           81.51249236327934       24.00245169209503       20.33964321868782
C           87.29761886548719       25.14062513736632       16.51605703794817
H           88.22167574705217       25.54757099140807       16.92154603427711
H           86.57065837698822       25.94165339781051       16.43681457184102
H           87.49350737025988       24.74727254605270       15.52240613604086
C           86.78470540547194       24.04574231322797       17.43295873915069
H           86.56136867224929       24.44411016168408       18.42005624624408
H           87.52024893046708       23.24686319492504       17.51510180500745
S           85.25006696967154       23.28336558744585       16.74778941691587
C           85.52513237397601       21.58893784625974       17.34716861783200
H           85.60963742138392       21.57641002659545       18.42870104035948
H           86.42780952120178       21.20495528481753       16.88075352364204
H           84.66871871524998       20.99842822749389       17.04115096490327
87
 energy: -124.697736496974 gnorm: 0.044662482771 xtb: 6.7.1 (edcfbbe)
Fe          83.27194675809206       24.16660753425330       17.73301606004497
N           82.34848643856697       23.88197543798579       15.94626514508571
N           83.85416220206307       25.97395187198276       17.15360082475375
N           84.16353243379352       24.43597146767524       19.51465889935222
N           82.63287122840030       22.36127221684467       18.33469524523946
C           81.62766225557971       22.79997365873856       15.56004369696047
C           81.18700850733242       22.94423353131931       14.18203054716729
C           81.61945297567003       24.16215147988698       13.77270790912224
C           82.36248455052353       24.72668694343853       14.88852043919015
C           83.72609227257577       26.50114740310980       15.90696289748114
C           84.38362115521849       27.77784385229140       15.84220030871079
C           84.84175078510138       28.04494327224254       17.10516868178330
C           84.52328972255729       26.89140629725735       17.90142367621199
C           84.77103924750469       25.56713658592551       19.95044194134741
C           85.25638073829306       25.39114085165968       21.30650904539505
C           84.88941422406960       24.13377084360169       21.68458776799950
C           84.21233196576301       23.55312797257003       20.54545362296129
C           82.92436730500944       21.73967255770884       19.50870457920779
C           82.25539005981189       20.47009573029765       19.57701987606982
C           81.49807551965193       20.37005844010228       18.44108643444331
C           81.77922506403051       21.54598507628110       17.66372648339566
C           81.31101106664781       21.73172716149480       16.37198759940531
H           80.66923687137192       20.95911476286953       15.97773040963566
C           83.01457775332723       25.94421167703882       14.85549556494302
H           82.96375431142332       26.52332356352823       13.94626831512332
C           84.93797198995057       26.72282467166070       19.21168875537291
H           85.46162962395002       27.54747800412615       19.66904722558942
C           83.68498677791227       22.27275742692944       20.53474858965328
H           83.83093683577405       21.65665875037623       21.40976335972172
C           80.45613190183317       21.86373026037906       13.46914820607063
H           79.49199638524708       21.67098598170796       13.94479093833630