72
 energy: -105.980694199694 gnorm: 0.000057425052 xtb: 6.7.1 (edcfbbe)
Fe          -6.29821060655342       24.85290518963827        7.73101531127545
N           -4.63570059653817       23.78950880612224        7.46336373667307
N           -5.84870770039658       25.08724490714570        9.66619515810953
N           -8.01342061401914       25.87678429695123        8.00716743397630
N           -6.80282729443395       24.54882135485693        5.81533141973085
C           -4.18592500543690       23.25503027458905        6.29994744846646
C           -2.92394432166093       22.57568227424060        6.50213344254675
C           -2.63077873926586       22.70231230585558        7.82293527917918
C           -3.71395636819284       23.46406438756819        8.40684593045473
C           -4.77894256496380       24.56301182130273       10.32326385817447
C           -4.80256828892039       24.92890316793271       11.71633075600665
C           -5.92008472663568       25.70009370413164       11.89277566216694
C           -6.56530533791232       25.77065253612579       10.59623234177664
C           -8.41171587578652       26.50314347469344        9.15071846617908
C           -9.66450989239385       27.18205559692786        8.95116911606945
C          -10.02814674580336       26.94557463506682        7.65121261829062
C           -8.96869457308398       26.14188441619148        7.07809321939309
C           -7.92974822436675       24.97661984664642        5.18551296883852
C           -7.91440064872120       24.58823094676664        3.79261287120008
C           -6.74019459224434       23.93254562138728        3.59218056403259
C           -6.06008812707467       23.91797622172573        4.86787144956736
C           -4.83387227854035       23.32019852911185        5.08130003720217
H           -4.35282308557717       22.85481433549555        4.23527506090956
C           -3.77513280044490       23.80870668927318        9.74135776555283
H           -2.97339802126767       23.47039772726744       10.37909736731740
C           -7.73720036344094       26.46203692276489       10.35820391211380
H           -8.17827301349016       26.99187364808540       11.18785350918423
C           -8.95113403110007       25.70148889580749        5.76799394250458
H           -9.78801945325126       25.96697841888816        5.14159326908398
C           -1.45740494199958       22.19112634332381        8.58519794466935
H           -0.77541716565954       21.65450892477974        7.93048035555634
H           -1.78138817768822       21.51169595085394        9.37362191282618
H           -0.91219220466213       23.01331808933803        9.04955424900256
C           -2.15863992888593       21.88821525380919        5.42470151023276
H           -1.91438213677493       22.58532815465357        4.62290505486992
H           -2.74554796436425       21.07450511773085        4.99827258916416
H           -1.23159786851447       21.47406244429624        5.81311440339850
C           -3.82034631763319       24.47288376456654       12.73717349848088
H           -2.91667696636223       25.08449050322741       12.71112280776165
H           -3.53302838743749       23.43812193056619       12.55771795681227
H           -4.25573755462100       24.54644049429440       13.73151757886057
C           -6.42712376153665       26.31261641142538       13.10118474662831
H           -7.50651567823458       26.35969511240884       13.18609573876616
C           -5.68082649234863       26.81199859469756       14.08061288442110
H           -4.60618706028300       26.83344632841486       14.02851727525087
H           -6.12433715406840       27.24245352610912       14.96291944996661
C          -10.35705503169586       28.01733447678263        9.96980180535961
H           -9.63665218587089       28.58163419950901       10.56016612518328
H          -10.94058609404978       27.39671051066654       10.65198226627280
H          -11.03154382740056       28.71708722970783        9.48080318445440
C          -11.19505803797204       27.40556450581795        6.93058233334077
H          -11.04232759819914       27.61661713606877        5.87879915396331
C          -12.40474207526474       27.57333518504452        7.45399425856539
H          -12.62370049642199       27.33520839608400        8.48033026199896
H          -13.22934817338238       27.93316562133813        6.86156563967743
C           -9.00394477340660       24.89403564433089        2.82398839337658
H           -9.12250167912675       25.97186598050702        2.71126803639415
H           -9.95288795743550       24.48355125787627        3.16979035510487
H           -8.78277281426426       24.47040279858600        1.84762530317725
C           -6.19853249429045       23.32258405664220        2.34589092067355
H           -5.24713043781973       23.78238172311227        2.07849878846330
H           -6.88905954647044       23.45822283390490        1.51737513399041
H           -6.03133645394180       22.25394877768107        2.48284427409285
O           -7.48817466070742       23.01057079593023        8.21001636579226
H           -8.25963496568709       23.40441199891208        8.63346732958511
H           -7.76055852224287       22.73280898791667        7.32773703127482
C           -3.54199869400160       26.85262772095512        7.80167229789350
H           -3.15067797253303       27.86523070225201        7.81568685733497
H           -2.96860317724241       26.23868693336589        7.11497187886081
H           -3.52738814146772       26.40862018941502        8.79119298945662
S           -5.25562023473985       26.88249949023874        7.16809430119527
H           -5.74209030175060       27.62044495026234        8.17256084189114
