78
 energy: -116.058078354386 gnorm: 0.000068688435 xtb: 6.7.1 (edcfbbe)
Fe          56.88007658871991       21.44624363401938       37.68332674889096
N           58.23217856654112       21.74910822758407       36.22240929102646
N           57.64626230300681       19.60637974416884       37.99086248855229
N           55.58487373540142       21.15908802509292       39.17138059999613
N           56.17461551153309       23.28733766791723       37.40498624706931
C           58.35040017941130       22.85249463541834       35.43674848953174
C           59.40658221309751       22.67837846482955       34.46603563803718
C           59.92445940525403       21.43852122413577       34.68076525711020
C           59.17456962833155       20.87056099315438       35.77809386590582
C           58.67059291909807       19.01639910169470       37.31074174099696
C           58.89278645759780       17.67515842423949       37.78167014558963
C           57.96153089705959       17.45193404340833       38.76287344818364
C           57.19997262560199       18.67907513759990       38.87882903770684
C           55.42518373670604       20.02742427470625       39.90998117268146
C           54.36728498430574       20.18968145357277       40.87613494371291
C           53.88193919807716       21.45801058686537       40.70377531579084
C           54.66687126460882       22.04311319526690       39.63282135566718
C           55.17243948153333       23.88648734468867       38.09755260122979
C           54.92895621977466       25.22270252690738       37.59621120315951
C           55.80974638574327       25.41323891524355       36.57932119738369
C           56.57920463750619       24.19125554623286       36.47526543272204
C           57.58490028882764       23.99812290871236       35.54831854690489
H           57.79219384803983       24.80356400333552       34.86063034588109
C           59.39307814150315       19.60381199780548       36.28435443300236
H           60.17338421954561       19.01570564176567       35.82586440056566
C           56.15951292388461       18.86383897004245       39.76828551757758
H           55.89611376973517       18.03206398750686       40.40334200976874
C           54.46123111809642       23.31668725618659       39.13568556945846
H           53.68202138807569       23.91092849272127       39.58824070247887
C           61.03547997074274       20.74251647100431       33.97133463825087
H           61.83876769112308       20.49370562738887       34.66550100628233
H           61.44614247135853       21.37174376996530       33.18565068920505
H           60.68249645736565       19.81553755872610       33.51825941613394
C           59.79912175241699       23.70350651540906       33.45827603002433
H           60.12303680095802       24.62063457409247       33.95082773245074
H           58.95561999815568       23.94756972601728       32.81220382343950
H           60.61457819027958       23.34312171670328       32.83588202410763
C           59.98060947668764       16.77116185786985       37.31535769130821
H           60.89105947042854       17.33405702919845       37.11434749566525
H           59.69410243118211       16.25463017101627       36.39747833442352
H           60.19488934013787       16.02328799764085       38.07615159136260
C           57.75619855387044       16.27359379559574       39.57524340882642
H           57.41266494555824       16.45664410740790       40.58675886990645
C           57.94521559110437       15.01921804263934       39.17844102761322
H           58.23889289398495       14.77331605207812       38.17288661907487
H           57.78483610620707       14.18791688141525       39.84475640834263
C           53.97095734382769       19.17682414634123       41.89286414178783
H           54.84655113681613       18.66258174183704       42.28631916681006
H           53.30652354839933       18.42787184179785       41.45849785855702
H           53.45191471566413       19.66014859139099       42.71799325228885
C           52.83196068822230       22.14281327657098       41.42498929515363
H           52.97514050948185       23.20882127012163       41.55859369083826
C           51.73447345026120       21.57423120890231       41.91365771958871
H           51.51780640523850       20.52996395818484       41.77016204385617
H           50.99809603285780       22.14410049814988       42.45584274889683
C           53.89896940311181       26.15071211505777       38.14253913360830
H           54.09024447825622       26.35557855643690       39.19597725731111
H           52.90381064256737       25.71306164774293       38.05853603048285
H           53.90419894861935       27.09519804620706       37.60399933180272
C           56.00556729686404       26.60708159080428       35.70903877444743
H           57.01757683188664       26.99796605514633       35.81716895390371
H           55.30475152835311       27.39582276857980       35.97121366742065
H           55.85357249398805       26.34717330015690       34.66114635712614
O           58.48506562059011       22.20490728010380       39.13670803315419
H           59.14286167936373       22.50700580468149       38.50086742698352
H           58.79773941180270       21.36492970703157       39.48998928403142
C           52.31455725128554       20.18337377160207       34.74556886341706
H           51.93519817648195       19.16361417243769       34.80934556312911
H           52.27087906860036       20.49874059411164       33.70312451651991
H           51.67131727120799       20.83125971157157       35.33259910612124
N           54.73495590156762       19.54110032046619       34.71989103907991
H           54.66272174568212       18.90442276050775       33.94337213036277
C           53.70396696973560       20.26203058792695       35.26310310614968
C           55.85445400939835       19.83815331982028       35.41717016576096
H           56.81772028326706       19.41886655233116       35.21251263322648
N           55.59531759665248       20.70274915219467       36.36770844483961
C           54.26155267523777       20.97664649942042       36.28433571129233
H           53.79590210651526       21.66377083336845       36.96029999903443
