87
 energy: -128.419227289234 gnorm: 0.197986688150 xtb: 6.7.1 (edcfbbe)
Fe          11.03800000000000        2.12500000000000       -2.39500000000000
N           11.77300000000000        3.16300000000000       -3.89800000000000
N           12.67400000000000        2.55600000000000       -1.37700000000000
N           10.32400000000000        1.05300000000000       -0.86300000000000
N            9.42400000000000        1.66200000000000       -3.40600000000000
C           11.20700000000000        3.29800000000000       -5.16500000000000
C           12.10500000000000        4.00100000000000       -6.05500000000000
C           13.16900000000000        4.36600000000000       -5.32100000000000
C           12.97500000000000        3.84300000000000       -3.99300000000000
C           13.73300000000000        3.39500000000000       -1.72700000000000
C           14.73100000000000        3.45300000000000       -0.68200000000000
C           14.30800000000000        2.62200000000000        0.32000000000000
C           13.02000000000000        2.09300000000000       -0.11200000000000
C           10.97400000000000        0.78600000000000        0.32600000000000
C           10.22500000000000       -0.12300000000000        1.15300000000000
C            9.05800000000000       -0.39900000000000        0.49100000000000
C            9.12700000000000        0.36500000000000       -0.75900000000000
C            8.28100000000000        0.99600000000000       -2.98900000000000
C            7.25800000000000        1.04300000000000       -4.03400000000000
C            7.77500000000000        1.68800000000000       -5.08500000000000
C            9.12000000000000        2.06700000000000       -4.70800000000000
C            9.94200000000000        2.81500000000000       -5.52800000000000
H            9.58100000000000        3.04700000000000       -6.53000000000000
C           13.88400000000000        4.00600000000000       -2.96200000000000
H           14.75400000000000        4.64100000000000       -3.12800000000000
C           12.22500000000000        1.28000000000000        0.67100000000000
H           12.61500000000000        1.00000000000000        1.65000000000000
C            8.14000000000000        0.37000000000000       -1.75100000000000
H            7.20300000000000       -0.14700000000000       -1.54300000000000
C           14.33900000000000        5.21600000000000       -5.80200000000000
H           14.03600000000000        5.78700000000000       -6.70600000000000
H           15.19800000000000        4.56000000000000       -6.06100000000000
H           14.63500000000000        5.93200000000000       -5.00600000000000
C           11.96600000000000        4.25500000000000       -7.55000000000000
H           11.77100000000000        5.33400000000000       -7.72600000000000
H           11.11600000000000        3.66400000000000       -7.95400000000000
H           12.90600000000000        3.97000000000000       -8.06800000000000
C           16.00000000000000        4.29900000000000       -0.71000000000000
H           15.84500000000000        5.22100000000000       -0.10900000000000
H           16.23600000000000        4.58700000000000       -1.75700000000000
H           16.84500000000000        3.72300000000000       -0.27500000000000
C           14.99500000000000        2.21700000000000        1.46900000000000
H           14.81700000000000        1.19600000000000        1.83500000000000
C           15.89400000000000        2.97500000000000        2.21300000000000
H           16.13100000000000        4.00800000000000        1.91800000000000
H           16.37800000000000        2.55000000000000        3.10500000000000
C           10.71500000000000       -0.66700000000000        2.50500000000000
H           10.38700000000000        0.01400000000000        3.31900000000000
H           11.82500000000000       -0.72300000000000        2.50700000000000
H           10.28400000000000       -1.67500000000000        2.68300000000000
C            8.00100000000000       -1.26600000000000        0.81600000000000
H            7.28000000000000       -1.47600000000000        0.01600000000000
C            7.72500000000000       -1.91300000000000        2.02800000000000
H            8.38300000000000       -1.77300000000000        2.89800000000000
H            6.84700000000000       -2.56800000000000        2.12400000000000
C            5.84800000000000        0.49400000000000       -3.98900000000000
H            5.53900000000000        0.35100000000000       -2.93100000000000
H            5.81000000000000       -0.48600000000000       -4.51100000000000
H            5.15100000000000        1.21000000000000       -4.47400000000000
C            7.05000000000000        1.94900000000000       -6.41400000000000
H            6.51000000000000        2.91900000000000       -6.35800000000000
H            6.31500000000000        1.13800000000000       -6.60600000000000
H            7.78900000000000        1.99600000000000       -7.24200000000000
C            9.84500000000000        7.27800000000000       -0.42600000000000
H            9.71200000000000        7.31800000000000        0.67600000000000
H            9.08500000000000        7.93200000000000       -0.90500000000000
H           10.86600000000000        7.63500000000000       -0.67900000000000
N            8.51500000000000        5.13800000000000       -0.72800000000000
H            7.67400000000000        5.47800000000000       -0.30600000000000
C            9.67000000000000        5.87000000000000       -0.89900000000000
C            8.72300000000000        3.91300000000000       -1.22100000000000
H            7.96700000000000        3.12800000000000       -1.21100000000000
N            9.94400000000000        3.80300000000000       -1.70600000000000
C           10.54800000000000        5.03500000000000       -1.51000000000000
H           11.56800000000000        5.20300000000000       -1.83200000000000
C           14.67400000000000       -1.40500000000000       -4.85500000000000
H           14.27300000000000       -2.02000000000000       -5.68900000000000
H           15.33800000000000       -2.03800000000000       -4.22800000000000
H           15.24900000000000       -0.55400000000000       -5.27900000000000
N           12.63300000000000       -1.68700000000000       -3.37200000000000
H           12.66700000000000       -2.68500000000000       -3.32400000000000
C           13.54200000000000       -0.88700000000000       -4.02800000000000
C           11.71100000000000       -0.88300000000000       -2.82000000000000
H           10.86600000000000       -1.25300000000000       -2.23900000000000
N           11.97200000000000        0.38200000000000       -3.07800000000000
C           13.12100000000000        0.38800000000000       -3.83200000000000
H           13.54600000000000        1.32500000000000       -4.17000000000000
87
 energy: -128.452173198871 gnorm: 0.078429069970 xtb: 6.7.1 (edcfbbe)
Fe          11.02937260133575        2.11883827181778       -2.39505263888988
N           11.77019711332698        3.16641955483033       -3.92127413817917
N           12.68047645774623        2.57090352477960       -1.36123848258603
N           10.31629957258754        1.04413034282314       -0.84880314811323
N            9.40431006573343        1.66554603810591       -3.42448315850836
C           11.21442742966885        3.28079416675829       -5.17495271440953
C           12.09968547793203        3.99963643493975       -6.06163210759147
C           13.16935892740158        4.37746800588763       -5.31878129121087
C           12.96158713313844        3.85037579817243       -3.99434531923648
C           13.72881207729514        3.39261184366564       -1.72330328033499
C           14.72499451630199        3.46388437476206       -0.68498497756847
C           14.30734406792506        2.62402531942244        0.31604764982291
C           13.02084216633695        2.09495191748088       -0.11805425096769
C           10.98091557885941        0.77618296351301        0.32147468019951
C           10.23044101746510       -0.11955092727916        1.15618308113482
C            9.05761028808656       -0.39813790586574        0.48905060497528
C            9.13442629910821        0.35521198340438       -0.76660427909072
C            8.27998694125706        1.00434679664040       -2.98988330213917
C            7.25443548956025        1.03768577291965       -4.02175460228861
C            7.77966182067679        1.68666994470750       -5.08736490423453
C            9.11687732332807        2.08215491543156       -4.70708798015217
C            9.95577286068133        2.80921761949024       -5.52667542449296
H            9.59432193895185        3.04540458520610       -6.52054717684022
C           13.86396253835038        4.00522612807203       -2.95786011644827
H           14.73651408431236        4.62437417366703       -3.13131288288900
C           12.22995364684040        1.27704078781567        0.66217784851927
H           12.61575325180817        1.00719224205412        1.63852430007940
C            8.15288812418076        0.37678518505345       -1.75557671958513
H            7.22067878129549       -0.13882279049090       -1.55110143985460
C           14.33288632062337        5.20667908882010       -5.79135845725203
H           14.04544131675973        5.77188153372249       -6.68335462587994
H           15.18955618336052        4.57347201490593       -6.04898082939763
H           14.63865484401889        5.91779197666069       -5.01881487152317
C           11.94980126142872        4.25280388185537       -7.53665494272166
H           11.76390869436864        5.31608698998671       -7.72670238841391
H           11.12537000494570        3.67217233641600       -7.95585060725004
H           12.87452910782442        3.97443033716186       -8.05383020326552
C           15.98247452697944        4.28957766619936       -0.71642337273675
H           15.84693000918806        5.20412987525293       -0.12652370444156
H           16.23968715611164        4.57994135375043       -1.73819699391135
H           16.82027243437463        3.72988327334945       -0.28630759553702
C           15.00396102962995        2.22451519852251        1.49299526302245
H           14.81405684174561        1.21315841644527        1.85170597882097
C           15.88435460597852        2.96007376047996        2.19928916391150
H           16.11274739287661        3.98290520244209        1.93131908368891
H           16.36837068003026        2.55410102076048        3.07850719309974
C           10.71309680127609       -0.65485808152621        2.48346245373809
H           10.39217030561729        0.00227990313071        3.30067894497956
H           11.80419056141388       -0.71989177071853        2.50402118557967
H           10.31089923591637       -1.65423156838863        2.66580816993632
C            7.98620426240849       -1.27531078060008        0.82863261921208
H            7.27582440302759       -1.47948676592604        0.02993617855101
C            7.72786522055638       -1.89570570165199        2.00246004399886
H            8.34754460499273       -1.75942850156528        2.87718542811665
H            6.87117204189515       -2.54922990665168        2.10577225375880
C            5.85829748954243        0.48931557360880       -3.96719899731796
H            5.53142575738186        0.34313671241218       -2.93506855264595
H            5.80472313878104       -0.47144263391681       -4.49263812236365
H            5.16779867934347        1.18583189878998       -4.45485275643567
C            7.07148470788821        1.95027653857330       -6.39642712966158
H            6.52829892697903        2.90240446450289       -6.35609005016730
H            6.34516860738039        1.15672316639266       -6.59809595218080
H            7.77901110051890        1.99439032807985       -7.22816922702491
C            9.83769392699403        7.27442183806598       -0.42599232616303
H            9.71137153831190        7.32776167966166        0.66112678053289
H            9.09793396131278        7.93207446734874       -0.89486492694567
H           10.83993655659772        7.62904905666036       -0.67623003520152
N            8.52297715062024        5.14323638488337       -0.72722087597467
H            7.67493460862686        5.48216404677716       -0.30576177843248
C            9.67575748479998        5.87183831208761       -0.89666158435413
C            8.74096518614068        3.91099923888147       -1.22247973411488
H            7.99502449174802        3.13251804629046       -1.21841937308137
N            9.96083743324312        3.80251163847792       -1.69549155549549
C           10.55180790263490        5.02778866220856       -1.50661217916401
H           11.56160807380743        5.19700295116147       -1.82783010743159
C           14.67024324243364       -1.41133808227911       -4.85008638384742
H           14.28834593024374       -2.01754741468253       -5.67935761800022
H           15.33673656630640       -2.03277368252431       -4.24275147426104
H           15.23927318588523       -0.57629966039412       -5.26497344273310
N           12.63522658525300       -1.68225950474828       -3.38009715112416
H           12.66767760983189       -2.68583379486189       -3.32945266530118
C           13.54071326873504       -0.88492018545661       -4.03727164428966
C           11.71421420053175       -0.87289319033471       -2.81979288261969
H           10.87829188930632       -1.23651681161076       -2.24521062873049
N           11.97880720548380        0.38729069878005       -3.07097649147880
C           13.11627819083605        0.39163072095854       -3.83209821583296
H           13.54225796365935        1.31815071558698       -4.16651211536109
87
 energy: -128.458834016557 gnorm: 0.017266762623 xtb: 6.7.1 (edcfbbe)
Fe          11.02533999159757        2.11689154792575       -2.39486553892924
N           11.76633911945006        3.17082837385995       -3.94205501643891
N           12.68947575288258        2.57846633307804       -1.34794978910267
N           10.31804508531764        1.03188489425246       -0.84457654379301
N            9.38996543412853        1.67306626279455       -3.43699549202258
C           11.21817575305685        3.26961170477533       -5.18392535814085
C           12.09540829624084        3.99884990736905       -6.06917525694221
C           13.16356747565827        4.38909691572111       -5.31871191801403
C           12.94617795951465        3.85744824622257       -3.99665598794746
C           13.72042588051103        3.39478366913306       -1.71752789572506
C           14.72021476021018        3.46847715905406       -0.68531662187423
C           14.30297667687288        2.62517797944601        0.31358990294922
C           13.01847827843583        2.09998834845435       -0.11928248556204
C           10.98592034393796        0.76871221140567        0.31478596513882
C           10.23262279106449       -0.12240641252072        1.15095880182381
C            9.06009794639088       -0.39583898110529        0.47830066491032
C            9.14344212289990        0.35237423582976       -0.77433020564409
C            8.28187157116906        1.01313545556669       -2.99234737807778
C            7.25193133657348        1.03535433960090       -4.01070479151718
C            7.77938161973646        1.68646926658696       -5.08434725942406
C            9.11296449456178        2.08824401015365       -4.70553099261647
C            9.96509578087852        2.79812681975444       -5.52998786244349
H            9.60605593265235        3.03046999695555       -6.52189548221450
C           13.84094545004685        4.00775581389866       -2.95356990281569
H           14.71685727450615        4.61337589198879       -3.13469071321298
C           12.23132061503877        1.27516851143230        0.65721449819885
H           12.61758288691805        1.00660992454030        1.62920026524434
C            8.16588389021195        0.38407600777163       -1.76067733485903
H            7.23840067285591       -0.13485304600875       -1.56121728837829
C           14.32669077167923        5.20214871640404       -5.77977082433727
H           14.05246170016317        5.76331918506879       -6.66976878529063
H           15.17901188108428        4.56992629992178       -6.02887277319146
H           14.63981659988327        5.90740180946836       -5.01419403624043
C           11.93158620997245        4.25008584430515       -7.53068467531880
H           11.74484062908399        5.30668393574987       -7.72293146043219
H           11.11553467022647        3.67257108838226       -7.94951211273382
H           12.84847679742165        3.97548823057072       -8.05149320475955
C           15.96963904398958        4.28029271567885       -0.72309743500044
H           15.84286821077521        5.19482239841822       -0.14187997059044
H           16.23522267079423        4.56401313428580       -1.73686781798769
H           16.79781446380926        3.72125751176273       -0.29079073318006
C           14.99960200334960        2.22998388965789        1.51256965012253
H           14.79476701896101        1.22269909407629        1.86003508242268
C           15.86876823579920        2.95795164087507        2.20078866280555
H           16.10474101919920        3.97290774541207        1.94272427584558
H           16.36926195596541        2.55820120186698        3.06523173973842
C           10.70929307979150       -0.65036081949316        2.46194960432423
H           10.38524466288471       -0.00491246386867        3.27964780958329
H           11.79432962567535       -0.70554451576679        2.48819874146973
H           10.32249417425060       -1.64923291311487        2.63984993851168
C            7.97367418432924       -1.27466303347882        0.82559320711165
H            7.27826639499937       -1.47591113438959        0.01841473054473
C            7.72241431422929       -1.87198618972624        1.98547214263331
H            8.31776796174706       -1.73574043334392        2.86796667610003
H            6.88111369449423       -2.53472000370819        2.09227020597843
C            5.86726303564290        0.48064467016380       -3.94331043897513
H            5.53974026944963        0.33185648829988       -2.92044108680675
H            5.80851190615556       -0.47358367549893       -4.46813259155002
H            5.17585403848040        1.16762938080055       -4.42910889176775
C            7.08920611122418        1.95041256564299       -6.38178568718543
H            6.55044786175379        2.89840366542831       -6.34600039323960
H            6.36764603886384        1.16301927970139       -6.58838868124992
H            7.79168567335443        1.99295814299444       -7.20857610509126
C            9.83258218325849        7.27472316408108       -0.42806177495060
H            9.70464601787315        7.33364687202878        0.65197968506266
H            9.09809241009509        7.92758880382444       -0.89562900626342
H           10.82594293566395        7.63088039989531       -0.67722608772824
N            8.53715800474285        5.14246196142430       -0.72800296812582
H            7.68321452846737        5.47766131950599       -0.31064244218078
C            9.68650749297684        5.87275421735638       -0.89404568939778
C            8.76694646222093        3.90437767450748       -1.22039945710483
H            8.03031771707676        3.12656346361907       -1.22276439361496
N            9.98680455352667        3.80374434602915       -1.68548686411432
C           10.56776600741814        5.02290003831527       -1.49599543394605
H           11.57303167981079        5.19800741302697       -1.81416613978029
C           14.66853792549333       -1.41712216633371       -4.84716348300596
H           14.29747567404644       -2.02263200083414       -5.67314249663576
H           15.32954821816734       -2.03299466878598       -4.24094748294360
H           15.23887508842644       -0.58989404672981       -5.25504235607646
N           12.63297112806510       -1.67388818529995       -3.39067640889126
H           12.66125185663168       -2.67976933056212       -3.33858019891464
C           13.53850154020719       -0.88058025784037       -4.04772010813951
C           11.71763533111150       -0.85880877966862       -2.81888511721502
H           10.88762287391346       -1.21599264189826       -2.24485259784757
N           11.98678365728606        0.39777471657683       -3.06898409957492
C           13.11732989657893        0.39876501623444       -3.83266699663325
H           13.54843471413884        1.31746383104357       -4.16771582680994
87
 energy: -128.460324117633 gnorm: 0.009109672003 xtb: 6.7.1 (edcfbbe)
Fe          11.02634464189610        2.11717104895637       -2.39506540718187
N           11.76021373079336        3.17465605426870       -3.94769622719509
N           12.68759532067962        2.58410719490216       -1.34061052870603
N           10.32177611717890        1.03166986739839       -0.84656594811245
N            9.38881223422162        1.67685325772799       -3.43976331319756
C           11.21597138703195        3.26534768403311       -5.18847060891700
C           12.09039434042358        3.99988539875469       -6.07259887138356
C           13.15453502151856        4.39548715342115       -5.31861824185998
C           12.93479203812306        3.86297622035000       -3.99638637728707
C           13.71311939742241        3.39824008808397       -1.71441635594034
C           14.71505271897696        3.47080541699672       -0.68296139225292
C           14.29633719905499        2.63028244726992        0.31706057779700
C           13.01477950985148        2.10369171015852       -0.11622271568360
C           10.98854141952536        0.76509751207648        0.30941909954219
C           10.23149341383554       -0.12647243705106        1.14309609627607
C            9.06120055133447       -0.39501278691376        0.46764859854638
C            9.14925556424980        0.35265424037721       -0.78060204817012
C            8.28493544654177        1.01747681608049       -2.99289934985839
C            7.25237112073851        1.03376831295204       -4.00502578106962
C            7.77804721364714        1.68389482248829       -5.08106154258801
C            9.11145770719942        2.08690987926447       -4.70574247020512
C            9.96631188656251        2.78813763778704       -5.53609472984981
H            9.61196849340648        3.00953535604306       -6.53193094762211
C           13.82741352781744        4.01126153018473       -2.95143880249588
H           14.70327245605007        4.61486369443462       -3.13530977441871
C           12.23184839729617        1.27102408304519        0.65596862756511
H           12.61904876507857        1.00128945679416        1.62656356583307
C            8.17235817145818        0.38556117279323       -1.76437445306269
H            7.24697387237742       -0.13671696398595       -1.56794475354357
C           14.32463799979160        5.20056105705533       -5.77149836925830
H           14.06343055791127        5.76220533242466       -6.66555463182941
H           15.17476999155734        4.55996296519583       -6.01038011288209
H           14.63899951700419        5.90415665577709       -5.00396061945894
C           11.91411905749381        4.25101351336596       -7.53178052392672
H           11.71978283982986        5.30686179162382       -7.72288403024854
H           11.09615875280597        3.66995112644393       -7.94397289841601
H           12.82680185814366        3.97978240583826       -8.06238237484853
C           15.96760181313996        4.27392548191213       -0.72828624928050
H           15.84617770509350        5.19608817912954       -0.15716680646720
H           16.23661440075873        4.54449422572418       -1.74547062099779
H           16.78995553927242        3.71181882445722       -0.28842285017055
C           14.99161684152551        2.23267531384929        1.51996439689824
H           14.77294459364303        1.22857950617739        1.86767939302116
C           15.87026639928256        2.95910403700059        2.20293721236366
H           16.09973910813375        3.97821099023077        1.95234911847461
H           16.36513748179848        2.56433476719176        3.07379225277244
C           10.70993127526074       -0.65608599585977        2.44979674388481
H           10.37279186542611       -0.02044799467862        3.27075784577160
H           11.79646923643230       -0.69278770073464        2.47844901153626
H           10.33944349374541       -1.66367672626752        2.61764415807658
C            7.96871638723621       -1.27247740752623        0.81027491442225
H            7.28505924224287       -1.47797523206311       -0.00587161951749
C            7.70609973505828       -1.85622043069919        1.97805980576366
H            8.27763719068955       -1.69442136035663        2.87411636260652
H            6.86523839257217       -2.52096331531105        2.08351797074271
C            5.87271122749487        0.47009683143041       -3.92287594833085
H            5.55478272694147        0.32094075849189       -2.89606639914111
H            5.81520509746700       -0.48717110508556       -4.44294502075250
H            5.17129262786466        1.15064652304255       -4.40389171719767
C            7.09621358533076        1.95017694714228       -6.37908507397817
H            6.56308254518458        2.90178404682117       -6.34548767061402
H            6.37319312366581        1.16518890662177       -6.59010351995946
H            7.80596255202943        1.99052347369702       -7.20060049121002
C            9.82995353942086        7.27756389405682       -0.43112724521652
H            9.69655951563532        7.34139316564377        0.64838962929362
H            9.09066904866476        7.92122025079183       -0.90486169306234
H           10.82102889821782        7.64247003197113       -0.67896218187242
N            8.55392913883451        5.13567746543479       -0.72887735482699
H            7.69549794305392        5.46677567903012       -0.31784974452995
C            9.69947140097878        5.87187986782222       -0.89089254373864
C            8.79383153080705        3.89608040645873       -1.21586994393875
H            8.06337436495863        3.11327628375839       -1.22269397631586
N           10.01694954233296        3.80249786852593       -1.67257259513259
C           10.59006691966838        5.02357019724691       -1.48359980549508
H           11.59668682916037        5.20557021317827       -1.79495352503413
C           14.66938350741324       -1.42191577819944       -4.84469124214814
H           14.30350290991856       -2.03112637332080       -5.67068058315772
H           15.32263949269319       -2.03780194299343       -4.22916621688237
H           15.24778057550290       -0.59903269741225       -5.25141192455678
N           12.62740336485919       -1.66479434047557       -3.39930504327616
H           12.65004006818783       -2.67068995432435       -3.34747964902201
C           13.53661318966211       -0.87599891266543       -4.05536466248314
C           11.71812669775513       -0.84515924758718       -2.82278487285486
H           10.88881687262986       -1.19703415616661       -2.24513585904624
N           11.99436680693875        0.40983582229193       -3.07213196448604
C           13.12250706766154        0.40601765971673       -3.83750523527243
H           13.56099434892517        1.32142233646297       -4.17307932975073
87
 energy: -128.461666795066 gnorm: 0.012098929002 xtb: 6.7.1 (edcfbbe)
Fe          11.02961492123340        2.12077175603708       -2.39258888881708
N           11.75107048236617        3.17958121905463       -3.95191396507970
N           12.68729377948213        2.58523542030817       -1.33418983038536
N           10.33054389332459        1.03098008694047       -0.85204800190370
N            9.38983466844677        1.68454849013169       -3.44102184927360
C           11.21072659348333        3.26230616236454       -5.19296783167985
C           12.08322487341372        4.00233278799396       -6.07643349071691
C           13.14068845803139        4.40501847667248       -5.31835924488586
C           12.91960864713941        3.87046712367902       -3.99504871923177
C           13.70563938769562        3.40088120129982       -1.71136581074171
C           14.70929382793449        3.47476750126018       -0.67890972944190
C           14.28817778993928        2.63930766839516        0.32377110718890
C           13.01125874033547        2.10711400926798       -0.11103714244151
C           10.99338361041565        0.75863760483549        0.30223567949387
C           10.22903706586373       -0.13375229111945        1.13231048952614
C            9.06149865948749       -0.39235354481009        0.45341065662240
C            9.15750709161046        0.35416131329904       -0.78969927573051
C            8.28981615445106        1.02388537756305       -2.99364767272064
C            7.25378814056363        1.03134157649002       -3.99924308254100
C            7.77594796248405        1.67823937555762       -5.07852763473346
C            9.10980995225787        2.08406369559164       -4.70713231576448
C            9.96670380469097        2.77435438633403       -5.54556763908754
H            9.62050219141608        2.97619778636644       -6.54867477141929
C           13.81083827992106        4.01658372361452       -2.94844685191579
H           14.68410578898973        4.62305811237968       -3.13364012778604
C           12.23330298697562        1.26458484817503        0.65598528272407
H           12.62158628549491        0.99311676908304        1.62518256260505
C            8.18016537934533        0.38759418422532       -1.76932960096913
H            7.25750785738841       -0.13964021449793       -1.57699310916940
C           14.32206791280031        5.19982154144381       -5.75936750675674
H           14.08227333898357        5.76083485338831       -6.66108357611199