78
 energy: -116.057050807266 gnorm: 0.000082544394 xtb: 6.7.1 (edcfbbe)
Fe          48.87151554452286       41.62935471710487       -0.56802259619150
N           47.88264565365545       39.97516545613028       -1.07202897701119
N           50.37141710699667       40.53315205595941        0.15071233748509
N           49.90274111812139       43.30491156178675       -0.17740289170122
N           47.35926502198943       42.74312395382173       -1.28386444301256
C           46.64282365628148       39.89452201423044       -1.62097511318985
C           46.28401241053613       38.51558256106839       -1.87548310132758
C           47.34017645194341       37.76480676055042       -1.46558040452706
C           48.32491664052539       38.69485103643275       -0.95544885056913
C           50.45871835016926       39.17748656776592        0.15136119098680
C           51.65791448069223       38.74245314358657        0.81915822913150
C           52.28604645934548       39.87466617565644        1.26227138216697
C           51.47452399008770       40.98561047172038        0.80156058953611
C           51.12379447941702       43.38292483547281        0.42078213642034
C           51.57154269842420       44.74777901043432        0.48673566750071
C           50.59609542002345       45.50688775321925       -0.10486998561097
C           49.54640633523721       44.58198206402977       -0.48217141811684
C           47.28341020663279       44.10250137108191       -1.30288113895567
C           45.98272923414441       44.53407458016227       -1.76199933149326
C           45.27432757489202       43.40172011732822       -2.02179816668369
C           46.15170971684933       42.29394797460247       -1.71895679779110
C           45.81355785012280       40.96560329660561       -1.89679694271321
H           44.83148712965334       40.74945970009789       -2.28858825246601
C           49.52390709666410       38.31088742149565       -0.39034476392189
H           49.74339319140169       37.25463377046268       -0.35110281375802
C           51.85095434593735       42.30978259369984        0.90446692816750
H           52.80059713894102       42.52270416202771        1.36965030617416
C           48.30716667868960       44.96737683650441       -0.96348924513951
H           48.11638766150044       46.02567434480965       -1.04819576948436
C           47.51954484127271       36.28565120054590       -1.49929776381654
H           46.65740345622400       35.80128738776941       -1.95116537915324
H           47.64582765672283       35.88929470206485       -0.49114733357167
H           48.40437483858107       36.02231643720518       -2.07867325973850
C           44.99284386651542       38.08055001738280       -2.47951343739685
H           44.86535989366691       38.52048736700628       -3.46875754408115
H           44.15340714371418       38.39583244826050       -1.85907975447650
H           44.95722095253920       36.99846868734341       -2.57904390373769
C           52.06083308245933       37.32152161560876        1.01465833384311
H           52.11623311540017       36.80481426892667        0.05639186121836
H           51.33639955831837       36.79644320854393        1.63875919127274
H           53.03214755351366       37.26217967345021        1.49920559184884
C           53.50801072095459       39.94498197243480        2.03609374498306
H           54.26181410226837       39.20766546264210        1.78109851521923
C           53.74636355974852       40.79139874268557        3.03177649341056
H           53.01207673015089       41.50728111960633        3.36062773891696
H           54.68012528772227       40.78144868732774        3.56941459495381
C           52.87740043378405       45.19094829126717        1.04914811342728
H           53.70443488358948       44.76231666287025        0.48221665295736
H           52.97839459199331       44.86680242159537        2.08517644163066
H           52.96382658800240       46.27401272969156        1.01227191445208
C           50.61762733108257       46.93885908379832       -0.31671410920399
H           51.08926235944623       47.51569427456800        0.47165570289405
C           50.15684155783818       47.57348465541200       -1.38908092672236
H           49.72825904725011       47.04848591111019       -2.22597696441102
H           50.21470441224280       48.64568892960895       -1.47731579641600
C           45.57279045797599       45.96000609264414       -1.90190813414788
H           46.21161631347200       46.47502707224501       -2.62003064143551
H           45.65581798383216       46.47846386685521       -0.94650045955778
H           44.54387152860428       46.03505922631885       -2.24499987127608
C           43.87855445270530       43.25514819169759       -2.52292420842221
H           43.40860106906466       44.22733238229800       -2.64988005475234
H           43.28000871606834       42.67242967037522       -1.82259347816810
H           43.86796359519828       42.74130490549265       -3.48468881489216
O           49.77868731964634       41.74618213832861       -2.67380178875475
H           48.99154981701363       42.00154871481580       -3.16701651841479
H           50.32472145927653       42.53497653887657       -2.58417847780178
C           46.42451802119469       43.11737831915108        4.21076402126431
H           46.99673094807071       43.01270528625307        5.13248684286569
H           45.41045223515603       42.76394321360335        4.39727859360777
H           46.38304925739714       44.16878425429330        3.94430261131902
N           47.24394541535712       40.99368114792622        3.16691293501893
H           46.98553338556537       40.39687901309460        3.93546129173503
C           47.05603600839746       42.34975278947982        3.10781096207319
C           47.83713508160231       40.61137907181762        2.01347672608688
H           48.10494308744177       39.60113958082074        1.78093875716633
N           48.03570851565236       41.64253290105027        1.22858719193123
C           47.55539279772816       42.73082789662232        1.89546552013889
H           47.60045132519621       43.70797545937729        1.46161051221431
