78
 energy: -116.058074112553 gnorm: 0.000044167560 xtb: 6.7.1 (edcfbbe)
Fe          14.58966272904178       28.10009402516833        4.79138533563170
N           14.81561114806991       29.41734468674828        6.26856461858293
N           13.73268284935242       26.81079161949556        6.04737224271166
N           14.43187632248184       26.75632429005148        3.29761384139237
N           15.50074465131858       29.37468161305047        3.52559545121738
C           15.39548354940174       30.64391304647958        6.19794227382589
C           15.37208788891640       31.29810038417824        7.48887223777914
C           14.75737376860058       30.43588414364444        8.34054998277244
C           14.41605290875574       29.26670416125495        7.55815465150116
C           13.46113248458300       27.01657633786991        7.36270067285674
C           12.82196464744956       25.86223973308633        7.94335527471456
C           12.71738465034302       24.93569405999423        6.94117255200040
C           13.28668727654688       25.56075605413332        5.76102637072185
C           13.88824813135099       25.50924923433530        3.37944738746086
C           13.92900544083716       24.84787569230176        2.10183024465398
C           14.50801265411198       25.73184052345389        1.22879489905790
C           14.80144973353092       26.92262006622726        2.00062415018548
C           15.72290098809343       29.18975931617027        2.19539691591140
C           16.35197952016303       30.35485443349794        1.61635732314634
C           16.50066684058897       31.25243381055092        2.62847864945312
C           15.96063963467222       30.62333801982970        3.81157819960108
C           15.92737788581398       31.21958852535199        5.05870654386455
H           16.34492083997172       32.21097263314832        5.14786899557612
C           13.77533621914812       28.16001396348365        8.07556294209796
H           13.51805830530089       28.18057315952109        9.12351320065505
C           13.36754507358076       24.94042593215041        4.52946136677461
H           12.99306721395058       23.93098276437588        4.45433073019181
C           15.40964095641905       28.04985069297461        1.47956899659054
H           15.65891381743690       28.04221060932735        0.42974705560418
C           14.46599754698759       30.58974128468892        9.79377223448188
H           14.81512951260451       31.55240830549773       10.15928174153305
H           14.96034386266187       29.80532357468897       10.36688456398566
H           13.39395129403268       30.51999585893165        9.97989817467047
C           15.93634089209787       32.65160971055200        7.75644001490244
H           15.44282163350836       33.40432867733968        7.14063820558312
H           17.00193850955339       32.67387208175771        7.52739602692940
H           15.80553001149969       32.92521070207515        8.80042948568695
C           12.32875788642746       25.76989105383258        9.34494269066296
H           11.90598103696521       26.72007997616483        9.66788057548135
H           13.14123712052398       25.51266090445185       10.02633866303326
H           11.56090083483467       25.00256106317286        9.42098453962471
C           12.14015783995286       23.61025993158823        6.97642839055782
H           11.65258312959008       23.28605684968882        6.06394760828624
C           12.17094321884936       22.78257026385410        8.01597143905529
H           12.68220247087659       23.02980308817275        8.92969420286558
H           11.70614664285537       21.81128179615056        7.97661722447037
C           13.37151186275909       23.49698680096859        1.81713785489958
H           12.44166216357766       23.34063867544656        2.36207596447832
H           14.07199867638457       22.71522853942815        2.11582131440753
H           13.17280115140828       23.39201196911266        0.75253103407347
C           14.77437393022853       25.57911332998146       -0.18444204385321
H           14.68536187808878       26.48192769786870       -0.77775584131237
C           15.11976981497212       24.44525594179183       -0.78565005708875
H           15.26974251390591       23.52987218206266       -0.24020400993825
H           15.29087899175356       24.40052264955738       -1.84846392814224
C           16.73484490815532       30.47829727369815        0.18142204619003
H           15.85796160653703       30.37911951779481       -0.45889958186451
H           17.44435226765632       29.69803729513920       -0.09536507211797
H           17.19463489984522       31.44379058637074       -0.01493455795197
C           17.09109094147923       32.62071928560415        2.59901323639679
H           17.42939226589922       32.87463444542628        1.59748406251886
H           17.94368288703923       32.68506507535162        3.27552275758619
H           16.35651215360126       33.36361984345493        2.91133106137721
O           16.66843555345175       27.21250956717054        5.17679911471976
H           16.63283276222971       26.43253420824361        4.61241034878906
H           17.20806302413274       27.86760456295447        4.72093878264857
C            9.27569757894987       28.86547816297239        3.29206589682304
H            9.08889163244129       29.28760113622525        2.30468222406678
H            8.59866721216447       29.34274360939414        4.00043724249467
H            9.05650197704809       27.80282266452336        3.26309241132558
N           11.24826256190719       30.31566637916174        3.81896138057298
H           10.77670094821470       31.19042743338756        3.65770357692305
C           10.69022239946451       29.07037164192733        3.69410163101690
C           12.53704179353383       30.15162797371165        4.19374639543153
H           13.21995399832498       30.95770623802743        4.36634434189461
N           12.82857533002452       28.87911818564345        4.31346783449323
C           11.68964112948827       28.19412192524713        4.00656140831652
H           11.66546761167111       27.12447654787094        4.02994428251568
