78
 energy: -115.953705061450 gnorm: 0.256647586789 xtb: 6.7.1 (edcfbbe)
Fe         -11.86900000000000        2.49200000000000        1.38400000000000
N          -12.35600000000000        0.69600000000000        2.22600000000000
N          -10.07100000000000        2.47100000000000        2.44200000000000
N          -11.16400000000000        4.11700000000000        0.30400000000000
N          -13.45600000000000        2.26700000000000        0.00100000000000
C          -13.49900000000000       -0.02800000000000        1.94900000000000
C          -13.49400000000000       -1.21000000000000        2.77900000000000
C          -12.37500000000000       -1.20100000000000        3.52200000000000
C          -11.64100000000000        0.01000000000000        3.19100000000000
C           -9.74500000000000        1.56400000000000        3.43000000000000
C           -8.55100000000000        2.03100000000000        4.10100000000000
C           -8.18000000000000        3.19500000000000        3.52900000000000
C           -9.12900000000000        3.47500000000000        2.46000000000000
C           -9.97700000000000        4.77100000000000        0.53700000000000
C           -9.79300000000000        5.74600000000000       -0.52600000000000
C          -10.86000000000000        5.66900000000000       -1.36100000000000
C          -11.74300000000000        4.63400000000000       -0.84400000000000
C          -13.79500000000000        3.23700000000000       -0.93700000000000
C          -15.16000000000000        3.00900000000000       -1.37700000000000
C          -15.63100000000000        1.78400000000000       -0.60300000000000
C          -14.50900000000000        1.38500000000000        0.21200000000000
C          -14.49700000000000        0.30700000000000        1.06500000000000
H          -15.36700000000000       -0.34900000000000        1.03800000000000
C          -10.43700000000000        0.41000000000000        3.72700000000000
H           -9.98500000000000       -0.25500000000000        4.46200000000000
C           -9.12100000000000        4.55100000000000        1.59700000000000
H           -8.35700000000000        5.30900000000000        1.77100000000000
C          -12.95600000000000        4.24000000000000       -1.37600000000000
H          -13.29200000000000        4.79200000000000       -2.25300000000000
C          -11.94800000000000       -2.28100000000000        4.55100000000000
H          -11.19700000000000       -2.95700000000000        4.08900000000000
H          -12.83300000000000       -2.88000000000000        4.85500000000000
H          -11.49500000000000       -1.79400000000000        5.44100000000000
C          -14.61100000000000       -2.27200000000000        2.74800000000000
H          -14.93300000000000       -2.44100000000000        1.69800000000000
H          -15.48200000000000       -1.91800000000000        3.34000000000000
H          -14.23100000000000       -3.22900000000000        3.16600000000000
C           -7.88200000000000        1.29200000000000        5.27900000000000
H           -8.06300000000000        0.20000000000000        5.18300000000000
H           -8.31500000000000        1.64600000000000        6.23900000000000
H           -6.78700000000000        1.47800000000000        5.26500000000000
C           -6.97100000000000        4.09200000000000        3.88300000000000
H           -6.47400000000000        4.66800000000000        3.08900000000000
C           -6.48700000000000        4.20800000000000        5.12500000000000
H           -6.94600000000000        3.65400000000000        5.95700000000000
H           -5.62400000000000        4.85900000000000        5.32900000000000
C           -8.54900000000000        6.66700000000000       -0.62500000000000
H           -7.63900000000000        6.09100000000000       -0.35400000000000
H           -8.65700000000000        7.52100000000000        0.07700000000000
H           -8.44100000000000        7.04200000000000       -1.66500000000000
C          -11.12000000000000        6.47800000000000       -2.66100000000000
H          -11.54800000000000        5.95600000000000       -3.53000000000000
C          -10.86100000000000        7.78200000000000       -2.81200000000000
H          -10.43300000000000        8.36600000000000       -1.98400000000000
H          -11.07300000000000        8.28700000000000       -3.76600000000000
C          -15.99900000000000        3.82100000000000       -2.38400000000000
H          -15.59400000000000        3.67300000000000       -3.40800000000000
H          -15.94900000000000        4.90100000000000       -2.12900000000000
H          -17.05400000000000        3.47400000000000       -2.36000000000000
C          -17.00600000000000        1.10200000000000       -0.68000000000000
H          -17.50900000000000        1.38700000000000       -1.62900000000000
H          -17.63600000000000        1.43000000000000        0.17500000000000
H          -16.87900000000000       -0.00100000000000       -0.65700000000000
O          -10.71800000000000        0.42800000000000       -0.24500000000000
H          -10.96000000000000       -0.40000000000000        0.16900000000000
H          -10.23400000000000        0.52500000000000       -0.98500000000000
C          -15.42300000000000        6.25000000000000        3.69900000000000
H          -15.01000000000000        7.26000000000000        3.90900000000000
H          -16.04000000000000        5.92600000000000        4.56400000000000
H          -16.05000000000000        6.30000000000000        2.78300000000000
N          -13.34700000000000        5.01700000000000        4.45200000000000
H          -13.32600000000000        5.43600000000000        5.35900000000000
C          -14.29700000000000        5.28200000000000        3.49000000000000
C          -12.48500000000000        4.13200000000000        3.98300000000000
H          -11.64200000000000        3.73300000000000        4.54600000000000
N          -12.82700000000000        3.83200000000000        2.74300000000000
C          -13.95600000000000        4.53500000000000        2.40900000000000
H          -14.41300000000000        4.43900000000000        1.43200000000000
78
 energy: -116.013580448390 gnorm: 0.109427573814 xtb: 6.7.1 (edcfbbe)
Fe         -11.81204602844352        2.44741699635058        1.32849029857153
N          -12.36496039988802        0.70947821454503        2.23671413933678
N          -10.07737315173313        2.48144849089604        2.45594106972112
N          -11.15954109112941        4.09684284289672        0.28664044928182
N          -13.46132121301967        2.29424866649626        0.03658953784921
C          -13.49604712281027       -0.01826626638938        1.95713878043185
C          -13.50322473622936       -1.21747280029733        2.77471993348912
C          -12.37497041413927       -1.20651620572756        3.52728649301061
C          -11.65271188606297        0.01126264517672        3.18309757509456
C           -9.74127335261077        1.57857071050710        3.42970511016587
C           -8.54269838007841        2.03188288566753        4.10958650955845
C           -8.16611222870668        3.21043257580441        3.53069959927956
C           -9.13750311730953        3.47702009654330        2.47191609306667
C           -9.99395733208846        4.77414294792553        0.52493200484729
C           -9.79558017630457        5.76130797764522       -0.52717190556670
C          -10.86457157946968        5.67670664733165       -1.37586730588494
C          -11.73495299111329        4.62535466024689       -0.84689861782686
C          -13.81449031223978        3.21974639267776       -0.91802493722070
C          -15.17310279931700        2.97070219726100       -1.35798696280733
C          -15.61645013503259        1.81728636626652       -0.63494279488327
C          -14.51098662682830        1.42403688760567        0.20333955269922
C          -14.49431823818574        0.32565599261424        1.06083688402432
H          -15.35818453364577       -0.33264102516680        1.03206157803938
C          -10.44208153750828        0.41503669883866        3.72350317029287
H           -9.99701112270281       -0.24639618799750        4.46060536664964
C           -9.12911832081136        4.55224894457705        1.59454495243122
H           -8.35260638813804        5.29519775084898        1.75397433022772
C          -12.96242592512073        4.23366225078367       -1.37048689971984
H          -13.29970551708892        4.79051982775349       -2.24064690278240
C          -11.94814413253103       -2.26144234617583        4.53623459018429
H          -11.20705375615960       -2.93979492474897        4.09473555369173
H          -12.81208554438811       -2.85842137511285        4.84833307038182
H          -11.50465821333169       -1.79816232251224        5.42378224994805
C          -14.59893221195313       -2.26223862754773        2.74544230156183
H          -14.92646929539231       -2.43958489955831        1.71558132247704
H          -15.46391230272345       -1.92422962456030        3.32952525798623
H          -14.23980496679388       -3.20971929587476        3.15968011287787
C           -7.88813797105228        1.29763201530258        5.26221902117878
H           -8.05964360599613        0.21891958779942        5.18277162353999
H           -8.30643987624960        1.63874226121413        6.21825984154280
H           -6.80802433401943        1.47771268214816        5.26394828627441
C           -6.99444917519780        4.07558129953876        3.88389465650227
H           -6.51380199209200        4.64347191441490        3.08665174291124
C           -6.49965756494722        4.19876834996930        5.11399542844776
H           -6.93956799507716        3.67255066392065        5.95184375832972
H           -5.64682140205465        4.84122513343536        5.32055760638480
C           -8.56783609273396        6.65248796039774       -0.62528361683508
H           -7.66198219539154        6.09587493594716       -0.35784844698138
H           -8.65918212325906        7.50317255507835        0.06172780162363
H           -8.45015693196923        7.03311213884874       -1.64528343281984
C          -11.11421508988492        6.46633125671430       -2.63320846843594
H          -11.54241992637080        5.93677525409748       -3.48625295113788
C          -10.85658172686188        7.76222115586855       -2.79538723506337
H          -10.44221934104788        8.36129433923685       -1.99298995227457
H          -11.06491110238455        8.26722859199115       -3.73691482210148
C          -15.97682708679113        3.79144024397170       -2.35649257124869
H          -15.59292284343511        3.66792347528100       -3.37951093608223
H          -15.94234699605516        4.86530197370543       -2.12374866631180
H          -17.02665136646859        3.47761153021741       -2.35459959536183
C          -16.97005164067497        1.12905233434142       -0.69038266109533
H          -17.49701336964149        1.38560797900245       -1.61590212278876
H          -17.60899363558795        1.42802532937046        0.15421863434029
H          -16.86837352385315        0.03554884775943       -0.65756386821888
O          -10.74009845636045        0.46179449232144       -0.20480272216912
H          -10.96492960443478       -0.38661436676360        0.17095234764074
H          -10.23180408190310        0.53212507102611       -0.99344509976816
C          -15.41549250460472        6.24849847069522        3.69990439056561
H          -15.02168963102658        7.25073625578241        3.90732490994655
H          -16.03554108862800        5.93612992570319        4.54879528790818
H          -16.03756516615854        6.29673423955522        2.80171157710697
N          -13.35647400057613        5.01982452229521        4.44932388295144
H          -13.33221855469864        5.44106394301840        5.36246550062435
C          -14.29552970511994        5.28594336925745        3.48623865935390
C          -12.48868628994194        4.12096388347835        3.96010956327156
H          -11.65318414378977        3.73261467240248        4.52020959904060
N          -12.81983805094007        3.79280964021347        2.72481780347874
C          -13.94076452469938        4.52156167815051        2.41221054809880
H          -14.40056820699112        4.43287662770167        1.44485313714550
78
 energy: -116.034673410815 gnorm: 0.043940560351 xtb: 6.7.1 (edcfbbe)
Fe         -11.77630392374638        2.40839966889197        1.28517668141457
N          -12.36171971166167        0.71366414734866        2.22982118367236
N          -10.08788818752731        2.48299498209213        2.45474766349603
N          -11.14525233838138        4.05648927017416        0.26191579989135
N          -13.45637833835991        2.31490800983853        0.06617542306463
C          -13.49082940720755       -0.00411953694422        1.96175623520340
C          -13.50882061524489       -1.21461906658320        2.76786527789844
C          -12.37465781467439       -1.20206916557761        3.52647893051961
C          -11.66218483564544        0.01852315341779        3.17409797180625
C           -9.74780726839931        1.59114173835231        3.42543692007128
C           -8.55040473655598        2.03341864991154        4.11380968105067
C           -8.17261360253238        3.22267530492277        3.53139695761950
C           -9.15249872497819        3.47319748276634        2.47323248762119
C          -10.00320607371404        4.75926196566778        0.50993023145229
C           -9.80340626391740        5.76657581335779       -0.51968167656576
C          -10.87264126698207        5.67414928243654       -1.37886772832555
C          -11.72314864168117        4.60043879801565       -0.85123597319960
C          -13.81843215782393        3.21279882505423       -0.89303385041353
C          -15.17526987304995        2.93839040641212       -1.33894303302324
C          -15.59547682946377        1.84951378569508       -0.65714084343424
C          -14.50374074893030        1.45922404393171        0.21119853968005
C          -14.49050122214825        0.35032906589228        1.06386016134609
H          -15.34865966489487       -0.30936041178049        1.02632309453110
C          -10.45235618050347        0.42453357066306        3.72266756293680
H          -10.01411767204386       -0.23266213607433        4.46283994936182
C           -9.13517860630527        4.54324895930139        1.58457105047700
H           -8.34911277888306        5.27458220766238        1.73008602830317
C          -12.96561142249128        4.22669260504971       -1.36211999734457
H          -13.31166598292371        4.79097871622047       -2.22093335430938
C          -11.94795852856870       -2.23635014577940        4.51991955376952
H          -11.21006728391172       -2.91567653493824        4.09077512990906
H          -12.80022855849817       -2.83329263159608        4.83760945920853
H          -11.50948603542400       -1.78413372718364        5.40577761172062
C          -14.58720244156738       -2.24788018958130        2.74146859106649
H          -14.91944094930296       -2.43389719681746        1.72324338771024
H          -15.45022146129251       -1.92021834509886        3.32172179981805
H          -14.23793259208461       -3.18886303720264        3.15753566318997
C           -7.89735770797249        1.30541083729504        5.24278064584992
H           -8.06179763645361        0.23348012999195        5.17072619220240
H           -8.30505925846210        1.63651470495285        6.19980467370572
H           -6.82499906218934        1.48638253035661        5.25333682202836
C           -7.03428152399132        4.05800354577954        3.87811646782333
H           -6.56922925568231        4.61866839253319        3.07378247607340
C           -6.52095653776081        4.18930100564310        5.09959704728910
H           -6.94167030263198        3.68825170381745        5.95162042216047
H           -5.66967524845450        4.82144731449670        5.30015431156805
C           -8.59339547650349        6.63875162862640       -0.62193585631132
H           -7.69135017762867        6.08847182624703       -0.35869559531333
H           -8.66911506844695        7.49037878537946        0.05551499657172
H           -8.47320373855638        7.02044354710617       -1.63299184813802
C          -11.11576360433265        6.44329301677107       -2.59433656826955
H          -11.54650062712813        5.90399485005686       -3.43270887616980
C          -10.85297363047417        7.73524058903975       -2.77093329987037
H          -10.44770129424771        8.35287902485204       -1.98951763019224
H          -11.05294169406411        8.23566755232923       -3.70741557859359
C          -15.95171222501014        3.76068195290598       -2.33069510810360
H          -15.56934218697906        3.64601087822348       -3.34771732215739
H          -15.91520787868098        4.82688021460902       -2.09757538422860
H          -16.99948157101413        3.46558245677171       -2.34008941325212
C          -16.93027081671189        1.15695649976174       -0.70277218537096
H          -17.47182741537138        1.39869036513837       -1.61471108642753
H          -17.56350652032767        1.44432874340224        0.14171697040609
H          -16.82929054235509        0.07107851993181       -0.66195863954412
O          -10.75337323631471        0.53269228261797       -0.14916090895439
H          -10.97650271189233       -0.34433943810479        0.16961592152478
H          -10.25806608078965        0.55117719851287       -0.97415902729685
C          -15.40728306333766        6.24495596504391        3.69432482995576
H          -15.02401999755612        7.24249764370243        3.90287098886189
H          -16.02640914464703        5.93726025829132        4.53584394993133
H          -16.02834106501718        6.29190997838730        2.80713203329167
N          -13.35868663025938        5.01715835683500        4.44362104850817
H          -13.32961760734189        5.43746498776161        5.35995417001921
C          -14.29201184670947        5.28557594565632        3.47840552746649
C          -12.49317521682106        4.10735017239455        3.94042054413616
H          -11.66144160056895        3.72504624949844        4.49618350900242
N          -12.81483673417436        3.77360233769369        2.71089420100424
C          -13.93283586012358        4.50701632031430        2.41279219865982
H          -14.39636546169551        4.42685279746086        1.45168180895866
78
 energy: -116.042614233348 gnorm: 0.025785057349 xtb: 6.7.1 (edcfbbe)
Fe         -11.76108976025336        2.38461050152506        1.26315887623627
N          -12.36365473749541        0.72167502068119        2.22942783537631
N          -10.10016887900164        2.47504965084038        2.44729410219801
N          -11.12931683499863        4.01584894040093        0.24492840835780
N          -13.44876568815040        2.32626819880600        0.08722764598588
C          -13.49034978768702        0.00641180687641        1.96572828765032
C          -13.51129900957457       -1.20379147916271        2.76595413867623
C          -12.37786599516265       -1.18978084445924        3.52392939507486
C          -11.66785585540167        0.02661945583341        3.17147834127424
C           -9.76248529547608        1.59192238856535        3.42372838186027
C           -8.57278603743316        2.03393649597225        4.11522091031319
C           -8.19895586179753        3.22290335478326        3.53184112726990
C           -9.16737121537294        3.46349374426986        2.46684438248659
C           -9.99952104594153        4.73187502446076        0.50072562598736
C           -9.81062338772223        5.75460262233202       -0.50800637482408
C          -10.87768873371379        5.65904774420289       -1.36613791476255
C          -11.71176832341948        4.57276706368077       -0.85332241524947
C          -13.80180211961618        3.21669557602947       -0.87913576504163
C          -15.15503682602928        2.94437843059203       -1.33431078001019
C          -15.58049704257892        1.85025645284919       -0.64825029925414
C          -14.49268804866571        1.46994796897759        0.23079325894832
C          -14.48947670361587        0.36308512384979        1.07311606490139
H          -15.34936366383957       -0.29086016540515        1.03020203396744
C          -10.46376919102165        0.42872599739422        3.72635037293788
H          -10.03483980495364       -0.22072170637997        4.47693292461553
C           -9.13439466067903        4.52482279032727        1.57310842816917
H           -8.34059906823443        5.24876125587966        1.70622093500578
C          -12.95861724626266        4.22131874271301       -1.35820289431214
H          -13.31979129698717        4.80002663071071       -2.20031391175156
C          -11.94333443913050       -2.21593005468206        4.51421687613410
H          -11.20188431342122       -2.89023871284907        4.08332062965936
H          -12.79324641193147       -2.81438767049713        4.83396393549443
H          -11.50608308210733       -1.75684852152683        5.39702811797393
C          -14.58495030407410       -2.23688918400030        2.73795530492697
H          -14.91551570179318       -2.42779254804600        1.71982085308286
H          -15.44925444319836       -1.90964920610188        3.31659042753469
H          -14.23245229546183       -3.17447594891709        3.15915992597046
C           -7.90828387987764        1.30761013912439        5.23252074384872
H           -8.06516527902168        0.23493931959637        5.15478321974405
H           -8.31061810502543        1.63239952594659        6.19398822157326
H           -6.83770674954446        1.50031026017912        5.23492168495713
C           -7.06787315542677        4.05494468112675        3.86883799108923
H           -6.61905094138067        4.61251531515458        3.05411637466210
C           -6.53965553000211        4.18815800815094        5.08410522525214
H           -6.95602758471183        3.70438932701956        5.94973837968329
H           -5.68188156197886        4.81310939875100        5.26973002605828
C           -8.61076861598153        6.63010316227685       -0.61452412763168
H           -7.70917506134797        6.07751338810061       -0.35587954086360
H           -8.68365214701492        7.48360272301671        0.06056117375790
H           -8.50171291346542        7.00879563874766       -1.62802996665512
C          -11.12625757499430        6.42119531505153       -2.57012371802276
H          -11.56917910520863        5.87347137663977       -3.39541246697958
C          -10.85179360640953        7.70972147364702       -2.75268703510099
H          -10.45103098176795        8.33425399050048       -1.97389546954029
H          -11.04445494473926        8.20369218428296       -3.69146315711858
C          -15.92347925713799        3.75533274088886       -2.32590090205268
H          -15.53018172785245        3.63005237890668       -3.33488211128301
H          -15.87961860044211        4.81568008625566       -2.08021700416680
H          -16.96923394634477        3.45642892074250       -2.33211796074965
C          -16.90669943033239        1.16381382349777       -0.70601752223843
H          -17.44194192280538        1.41260774252693       -1.61855246056879
H          -17.52913566765192        1.45741937607245        0.14139344704302
H          -16.79160263492793        0.08212745064513       -0.66808205091614
O          -10.74422172313157        0.62814846193558       -0.07821889921606
H          -11.01448298723126       -0.26232983409717        0.18144177362318
H          -10.30506760096504        0.61777411358795       -0.94321283638028
C          -15.39652453172622        6.23670983906731        3.68374248514107
H          -15.01495332457306        7.23488380820220        3.89344992328446
H          -16.01603226616268        5.93023803270907        4.52561719174837
H          -16.01980299436417        6.28466594656317        2.79821104575405
N          -13.35086617098247        5.00300438802246        4.42991942743721
H          -13.31769468568299        5.42275193068784        5.34632707935574
C          -14.28426949351372        5.27511101489617        3.46478407752999
C          -12.49116017198844        4.08824334432901        3.92204480055981
H          -11.65769275673842        3.70519638329179        4.47296855957060
N          -12.81730545329928        3.75466609019774        2.69711662219993
C          -13.93016715648094        4.49259702294436        2.40084346895578
H          -14.39841464556443        4.41646677029614        1.44246709379029
78
 energy: -116.047233869085 gnorm: 0.020592167496 xtb: 6.7.1 (edcfbbe)
Fe         -11.76709378517906        2.37956623959353        1.26925569344146
N          -12.36648903091898        0.72981482016861        2.22625510478644
N          -10.11863796830911        2.46252359558878        2.43730066063639
N          -11.11468523385881        3.97039458835406        0.23318922101974
N          -13.42149401159134        2.32055410668092        0.09970958302659
C          -13.49195468579947        0.01396129873373        1.96831718533549
C          -13.51548496918109       -1.19233205732651        2.76595909903961
C          -12.38376766647062       -1.17649424894103        3.52233926760954
C          -11.67539924478877        0.03482674473910        3.17049326617106
C           -9.78204908315944        1.58888694085221        3.42257107043431
C           -8.60169688378641        2.03398762211706        4.11725584651627
C           -8.23031723699707        3.21863394330028        3.53015249668038
C           -9.18427319754520        3.44736315195580        2.45699993832527
C           -9.99189877724651        4.69493533591463        0.49112097259898
C           -9.81740872405198        5.73330581997710       -0.49636112589462
C          -10.88368248841672        5.63664270161552       -1.35080274736379
C          -11.70011807713725        4.53969063159696       -0.85297634993131
C          -13.77470872174560        3.21151847282292       -0.86515499970873
C          -15.12320307501245        2.94511673989437       -1.32589676884065
C          -15.55543359652990        1.85094603775448       -0.63550192976670
C          -14.47222111031742        1.47328698320771        0.24636858867072
C          -14.49095541315229        0.37235871294181        1.08209932574223
H          -15.35906317166354       -0.26842782034039        1.03885252846392
C          -10.47923423421037        0.43163764901656        3.73503555455646
H          -10.06018931321166       -0.20878776440292        4.49764803661070
C           -9.12931662234683        4.49781207225185        1.55831800165694
H           -8.33094714256045        5.21624262956118        1.68201505935597
C          -12.95015957729260        4.21255163225548       -1.35251012742518
H          -13.32687652383189        4.80538205954229       -2.17672894133676
C          -11.93710824668956       -2.19592567222039        4.51374654186572
H          -11.18809124795781       -2.86084040539736        4.07954743823250
H          -12.78109332780162       -2.80145162158410        4.83760713482438
H          -11.50088857886360       -1.72511426360710        5.39213575004644
C          -14.58782966824188       -2.22676779927764        2.73536266990100
H          -14.91192803108030       -2.42204963957363        1.71481574392484
H          -15.45590732955966       -1.89774446220176        3.30886882514947
H          -14.23136890453992       -3.16121671169147        3.16294097358473
C           -7.92295779605990        1.30858324464434        5.22604553141403
H           -8.06790847869089        0.23385167645633        5.13847892551652
H           -8.31891339950596        1.62257982399947        6.19451822318667
H           -6.85403616271408        1.51727683676104        5.21509960629286
C           -7.10100157395961        4.05734998125446        3.85656959960209
H           -6.66670679926902        4.61008707647828        3.03085922605136
C           -6.56209485180261        4.19586107733049        5.06603288634971
H           -6.96777833737419        3.71671642069102        5.94022474455004
H           -5.69759634530997        4.81657107014906        5.23425417348020
C           -8.62671825267794        6.62045578972916       -0.60416487415738
H           -7.72050614048229        6.07173094426053       -0.35071342129209
H           -8.70255331166579        7.47497447259198        0.06978712501449
H           -8.53131854400002        6.99745926958740       -1.62093804897060
C          -11.14471120945065        6.39864628469481       -2.55088931733711
H          -11.60116848297028        5.84480623109869       -3.36439883113174
C          -10.85583488074354        7.68351318570292       -2.73615039815061
H          -10.44493373155300        8.30467614340362       -1.95927783289398
H          -11.04447216708024        8.17354777432031       -3.67704575781713
C          -15.88346988427356        3.75157124908048       -2.32178879355327
H          -15.48173532011184        3.62014030277056       -3.32609584872039
H          -15.83615758188925        4.81033956437183       -2.07347901710883
H          -16.92974534725276        3.45291389899717       -2.33221743337073
C          -16.87878531652226        1.17030744698362       -0.70539908852934
H          -17.40747082405356        1.42858684248871       -1.61956779356246
H          -17.50026771364539        1.46179742917515        0.14271347776039
H          -16.75902585517586        0.08981063643042       -0.67699539571418
O          -10.73265141750541        0.73515252594924       -0.03240365934737
H          -11.04941826708180       -0.15300021646732        0.18592434783720
H          -10.34296884452196        0.69510727067148       -0.92187587905880
C          -15.38773603911923        6.22938320017556        3.67309106451485