78
 energy: -116.058073913307 gnorm: 0.000157032747 xtb: 6.7.1 (edcfbbe)
Fe         -11.77657311714836        2.40574376539562        1.28249596150266
N          -12.41129798158424        0.76543372280930        2.26365930602968
N          -10.13876836673919        2.45176838276053        2.41960083371460
N          -11.13548037182839        3.99113387737990        0.25914004898564
N          -13.40760131922952        2.30775303441793        0.10588032204893
C          -13.57736009563405        0.09129357562088        2.07071707872182
C          -13.69525654048650       -1.00367123307110        3.00657732131686
C          -12.57331724238312       -0.97270063981509        3.77590034446121
C          -11.78584203023082        0.14183831989453        3.30032769475856
C           -9.80650134599309        1.58996340019901        3.41903585947809
C           -8.55372389853073        1.96378145546040        4.02545730298875
C           -8.13314850733311        3.09120774177791        3.37224097088330
C           -9.13945328372635        3.36707434049246        2.36371518367397
C          -10.00144997554967        4.70302556320940        0.49499264322677
C           -9.87951428658874        5.79885023789128       -0.43391148900941
C          -10.97855050534268        5.73643779436283       -1.24778836280282
C          -11.74590903981424        4.59177898285288       -0.79314110305670
C          -13.73074276559944        3.15344936107901       -0.90967836197206
C          -15.00623100956428        2.79501993079106       -1.48725743548042
C          -15.45113627063178        1.71465171218627       -0.79005861971292
C          -14.44120054664548        1.42774275215810        0.20339593348480
C          -14.52876203766787        0.39097759662607        1.11313219991125
H          -15.41111539610546       -0.22920619525775        1.07758802045476
C          -10.56821461130601        0.51153265509519        3.83721724936407
H          -10.18928467577319       -0.07891465569824        4.65754337022654
C           -9.07580178108214        4.42994487602812        1.48524247418847
H           -8.23215336349438        5.09742859515550        1.57182028654746
C          -12.95875781882871        4.21583589658743       -1.34130976620727
H          -13.34252199472896        4.80528637171901       -2.15997900176165
C          -12.16923038375287       -1.87118491128781        4.89438818900942
H          -11.22292988234333       -2.36318017191307        4.66805122229647
H          -12.92067168896214       -2.63803127657824        5.06550847991241
H          -12.04192109701073       -1.30414693378619        5.81702973035569
C          -14.84998003180502       -1.94438881645600        3.05926117797187
H          -14.95904155247181       -2.47237911639100        2.11152293664421
H          -15.77650828359558       -1.40314107532909        3.25222617519171
H          -14.71339367216000       -2.68116618950017        3.84704133635225
C           -7.85743712113087        1.19912237514027        5.09707663915656
H           -7.97379817412598        0.12739797487501        4.94295512258155
H           -8.26217191051186        1.44501577716656        6.08061113399354
H           -6.79584747170752        1.43744685333958        5.09425699761648
C           -6.92939139767800        3.86693535663134        3.57225945868642
H           -6.50683649346221        4.31345667507223        2.67987102749517
C           -6.32699674065912        4.06993035841346        4.73961009141547
H           -6.72553822408136        3.69065762603501        5.66447485658368
H           -5.42103957545488        4.64847129135658        4.81294164270807
C           -8.72566784886335        6.73658878011546       -0.50679657761966
H           -7.79041464783054        6.20940228109302       -0.32526626410336
H           -8.81822909655431        7.52723448616890        0.23973905976214
H           -8.68000996407082        7.19667981251601       -1.49175634352518
C          -11.34229186563811        6.58208588858682       -2.36310136374941
H          -11.85932871931579        6.08704836789043       -3.17718551930396
C          -11.10024746152647        7.88590764668101       -2.45356085979420
H          -10.63254539085999        8.43802883111169       -1.65715921619875
H          -11.38592383348285        8.45314797367795       -3.32396391756312
C          -15.64578661514307        3.51515327759145       -2.62440841026251
H          -15.00347666962260        3.48887025705953       -3.50507591502847
H          -15.82171350108982        4.55977829560483       -2.36648308894246
H          -16.59927574443204        3.06121623963643       -2.88299323419160
C          -16.70963103598766        0.93454522189649       -0.95938579559579
H          -17.30952386304752        1.33955172436115       -1.77061589121922
H          -17.30379926299556        0.96329219127272       -0.04573918188479
H          -16.48787439392508       -0.10897497880005       -1.18506145550342
O          -10.79435035772407        0.96440547121546       -0.20770529190486
H          -10.92548955308188        0.13420633153532        0.26318673437843
H          -11.44359932443190        0.99252833547049       -0.91897656050816
C          -14.90488160745692        6.35533476015002        3.66412326728350
H          -14.40794889515124        7.09608180773563        4.29042285022396
H          -15.82184184026601        6.04523789585665        4.16521832644584
H          -15.16491171841668        6.81833857576303        2.71744974935322
N          -13.52288029721817        4.41407081471985        4.43496960298422
H          -13.70049494975402        4.54652859995601        5.41705318848598
C          -14.01703432788481        5.19063732559236        3.41987133900264
C          -12.75738339018350        3.44910938785860        3.87727979373526
H          -12.24190838424390        2.69435416366152        4.43461777680886
N          -12.73705992611006        3.56754108965112        2.57184462606406
C          -13.51635818338712        4.64617549894909        2.27218560516617
H          -13.66371344980679        4.95661663054702        1.25863048328079
