78
 energy: -116.058074327223 gnorm: 0.000119548422 xtb: 6.7.1 (edcfbbe)
Fe          27.91550659759445       91.83188747587288       52.17759916172850
N           28.85863239239213       93.50250224124282       51.56475742094081
N           29.05482455367281       91.78915978790879       53.81391350961029
N           26.92942113233768       90.21449044271144       52.79727713346558
N           26.73532729488177       91.92545801132744       50.54900484624315
C           28.64951367272946       94.18777656557170       50.40801307022576
C           29.56056682889389       95.30481287431358       50.30419744490505
C           30.33151140741807       95.27601520040849       51.42510385401875
C           29.88175142119486       94.14067095926636       52.19786445066866
C           30.03468595973085       92.66889662304202       54.15744470152623
C           30.64971139233045       92.29246932725486       55.40523125937854
C           30.02197998495003       91.14533259687259       55.81113542299619
C           29.02007357260016       90.85961846603432       54.80099825233522
C           27.18333098036229       89.49175720903087       53.92048352336839
C           26.28091864271816       88.37232949856829       54.02674561925623
C           25.46402268478968       88.43225657590065       52.92989468471738
C           25.89057873624808       89.59856281373636       52.17922082172809
C           25.73851965834397       91.06179784361689       50.21523109764860
C           25.15136139458235       91.42473052651052       48.94539956937217
C           25.82367507923214       92.52639469791143       48.51469192525786
C           26.81172060341758       92.82160043314207       49.52756058178613
C           27.69782806854639       93.87963295214189       49.45339745247118
H           27.64745272573981       94.51073077084479       48.57954834902115
C           30.42796000843246       93.76655626228654       53.41001858353223
H           31.23539295574584       94.36992160693376       53.79624558143497
C           28.16708034482448       89.77536834473523       54.84987357492767
H           28.26976096591542       89.09845399224895       55.68416016863650
C           25.33210815767139       89.97915109057263       50.97255792058051
H           24.52651925530459       89.37666278404959       50.58143313091058
C           31.42996021907931       96.19392760386376       51.84036486040560
H           31.58055802531588       96.97648711318530       51.10082655633756
H           32.36609435693227       95.64678685502122       51.95581822737277
H           31.19530490886567       96.66526893263929       52.79510563355084
C           29.59147396932999       96.26135094235731       49.16175667577367
H           28.63042239221215       96.76542180898898       49.05638870398072
H           29.80127723030083       95.73715966701880       48.22906830332047
H           30.35913340491032       97.01686714401299       49.31003170580455
C           31.70423769649456       93.07162386266585       56.11146759273612
H           31.52768515267934       94.14112381646433       56.00728112760928
H           32.69311592796584       92.85116503603041       55.70508757256904
H           31.70550841611013       92.82105775696978       57.17024601247666
C           30.23862189810953       90.35963473118002       57.00550951193273
H           29.35622638081550       89.88770773605971       57.42140437176631
C           31.40965216820290       90.17606864526482       57.60699966931652
H           32.32611695594648       90.58072215340414       57.21408650436461
H           31.49522239803486       89.58810562428130       58.50579156364813
C           26.23250317802822       87.41503824995856       55.16572265807314
H           26.39901385883379       87.93216276608317       56.10936793597484
H           27.00029431357180       86.64649484897890       55.06160679485561
H           25.26035212279534       86.92777525896796       55.20295625136716
C           24.36776277896280       87.56666778533582       52.55494182368527
H           23.54013904659343       88.05131797507342       52.04965431149899
C           24.30951194965532       86.25696623832371       52.77379083150462
H           25.12099540012389       85.71583086906240       53.22827360258563
H           23.45208655255740       85.67407484550422       52.48046290199209
C           24.02967910262768       90.68823884708634       48.29721851048191
H           23.14985353344608       90.68521822008297       48.94120505934616
H           24.31093251976593       89.65239217811985       48.10580093692604
H           23.75908229319866       91.14989591604404       47.35079502821658
C           25.63561925032769       93.31950916478900       47.26703723182153
H           25.38747822464080       94.35476818403734       47.50304184068882
H           24.83266822759818       92.90493447646271       46.66256410963117
H           26.54891021319241       93.31872284837353       46.67162546758085
O           26.39581817353788       93.22720312168084       53.18129662488339
H           25.68851709889479       93.20007242196301       52.52762206608472
H           26.85331153343978       94.06771962511981       53.06932149156887
C           30.38758845228310       87.97799440769498       48.99961984256816
H           31.02964396203399       87.24584893651866       49.48916295653613
H           30.88292872174043       88.30968987531020       48.08712115746469
H           29.45192837030858       87.49682086188233       48.73283389331358
N           31.11258606406813       89.92245421733219       50.40166210436637
H           32.09728732242230       89.81634674469129       50.22085333087595
C           30.11605857109917       89.12660806485322       49.90040958841831
C           30.53270297501293       90.86448217780968       51.17910251425631
H           31.07221037117883       91.62693428355792       51.70215730427824
N           29.23062307488960       90.71358180044449       51.20018857699485
C           28.95623139477653       89.63669292013905       50.40927377669286
H           27.95033337450511       89.30306446524601       50.26007176980982
