87
 energy: -124.720696578926 gnorm: 0.000045971678 xtb: 6.7.1 (edcfbbe)
Fe          14.86733500199017        5.59271311566845        7.23157604464436
N           16.47703645706896        4.71481413249240        6.43314455286856
N           13.75440016759437        4.00036786049222        6.74222668391145
N           13.24514596889648        6.49358569704153        7.98177192980305
N           15.96896782285821        7.19139329039764        7.69088420479236
C           17.74957245547606        5.18616956057895        6.43619657385147
C           18.63583841164764        4.26987669779676        5.75312544197443
C           17.86059475491070        3.23942707185995        5.32166948190276
C           16.51463194987500        3.53281512685629        5.76291850830101
C           14.15580698642853        2.91276632282194        6.03072696364159
C           13.07708556231066        1.97102775259709        5.88176531635040
C           12.00021784087632        2.51077069336915        6.53487579313771
C           12.44540681245289        3.79572746402628        7.03954198204543
C           11.99775167448067        5.96190728444011        8.10462921056779
C           11.08857751535285        6.91560911759285        8.68613886791942
C           11.81474406109170        8.05822212430385        8.89496342711314
C           13.16026007204564        7.76538398638741        8.44269765488012
C           15.52950381921483        8.35842157234253        8.22716658825541
C           16.63125529768991        9.27265967117394        8.43607458494597
C           17.74937286158788        8.62222245680087        8.01874648517851
C           17.31195434924710        7.32680547764537        7.54552194873910
C           18.15610357991594        6.39166351721976        6.97777868183518
H           19.20645025038954        6.63400692116061        6.92374601503635
C           15.43724235631617        2.69583042612502        5.55324190753292
H           15.61620078381552        1.78457724036411        5.00332124458861
C           11.62834882439380        4.68780093543735        7.70710453411388
H           10.61125135162714        4.38360022910652        7.90199343840945
C           14.22022400408241        8.64689299053062        8.55842404831400
H           14.01553335963850        9.62269492294919        8.97178904800375
C           18.24827142134076        2.02017034879585        4.55710904483294
H           19.30852628412757        2.03516238792350        4.31679669258377
H           17.68588121376974        1.95695283878279        3.62518563151129
H           18.04147389814665        1.12046084286762        5.13759170880098
C           20.10145785960051        4.48382040652726        5.58796950971466
H           20.58458721769099        4.57986813344874        6.56031212308467
H           20.29665430493062        5.39578228649783        5.02262641915475
H           20.55744375447962        3.64997655483568        5.05981423673174
C           13.14849955829892        0.70093888969396        5.10838743593684
H           13.59784277554870       -0.09491187374770        5.70514225460683
H           13.75180158385010        0.83059701582645        4.21108269134902
H           12.14920781757880        0.38635284038147        4.81402595380776
C           10.66427483972919        1.98000186668267        6.68857324186840
H            9.86676752170083        2.71377661416268        6.71404235459611
C           10.35480656351110        0.69285805961505        6.80897504099844
H           11.10562187408621       -0.07731826521507        6.83933146622532
H            9.33279499406649        0.36653558608941        6.90810945843917
C            9.63506378809967        6.68753294580771        8.91540611496951
H            9.46775921330140        6.13976975778992        9.84459630475175
H            9.20094725600551        6.10859006415861        8.10133075705600
H            9.11380399126297        7.64041458173469        8.98007619071654
C           11.38670011337878        9.32936183758887        9.43526951070902
H           11.87288729882937       10.20291515117701        9.01609661405572
C           10.47418538932055        9.49426089989745       10.38731546527938
H            9.99545962749299        8.66144641786047       10.87228802220185
H           10.19276770266841       10.47454471106259       10.73479863400269
C           16.49156609472740       10.63963300178428        9.01270921305055
H           16.08028648993887       10.58908444644270       10.02118261138942
H           15.82018650854666       11.24618402468322        8.40426666938556
H           17.45570869806027       11.13988811533477        9.06083350363584
C           19.16596303297480        9.08524654591676        8.01226559651925
H           19.79165167106261        8.40510301917442        8.59003513189407
H           19.25002073471468       10.07912943060800        8.44490906815229
H           19.55592809303764        9.12052685799084        6.99428194422120
C           12.40878643996996        7.41613631638814        2.57176708767234
H           12.68825969257854        6.94470887784888        1.62957035468182
H           12.35575677223693        8.49296683382645        2.41151792105322
H           11.42563328884681        7.05875555340149        2.86142998922096
N           14.71687279129612        7.42043460506185        3.54379450866085
H           15.15011543319878        7.90257753699268        2.77341336338451
C           13.39029235970272        7.08914740755940        3.63678392120022
C           15.32809891395438        6.98442701208206        4.66796245676916
H           16.37175339937108        7.10574052733269        4.87187050097388
N           14.46988972528610        6.39796817085877        5.46564312616186
C           13.26078515218821        6.45479114945136        4.83894354782840
H           12.38462577555468        6.03863686917022        5.29094976175300
C           14.43357742057105        6.19257918405599       11.31645603311217
H           13.65463487511905        6.34696363405198       12.06047447326156
H           14.39423782895813        7.00620980030611       10.59736191673268
H           15.40229512264167        6.21428118580270       11.80997454677720
C           14.22934152583089        4.86461536097235       10.61434775928167
H           13.25487021393777        4.81892575470942       10.12997194583523
H           14.33510334392212        4.03423153206216       11.31307987842087
S           15.51532385114233        4.63501529664626        9.32057466458018
C           15.36778785318534        2.83092441878043        9.14441580273346
H           14.33881987579510        2.56282812155128        8.92690824878262
H           15.70621582580001        2.35625529968826       10.06185173937424
H           16.00530897972509        2.54346954961084        8.31543867285751
