78
 energy: -115.986485056129 gnorm: 0.247276869018 xtb: 6.7.1 (edcfbbe)
Fe         -38.76300000000000      -71.63800000000001      105.10599999999999
N          -38.28499999999999      -73.42300000000000      104.44000000000000
N          -40.49299999999999      -71.73900000000000      103.98200000000000
N          -39.38099999999999      -69.96599999999999      105.92500000000000
N          -37.12800000000000      -71.63800000000001      106.30000000000000
C          -37.07500000000000      -74.13800000000001      104.70799999999998
C          -37.02700000000000      -75.41900000000000      104.02199999999999
C          -38.20699999999999      -75.50499999999998      103.23699999999998
C          -38.92200000000000      -74.24799999999999      103.47400000000000
C          -40.85399999999999      -72.72000000000000      103.06800000000000
C          -42.06000000000000      -72.39800000000000      102.38300000000000
C          -42.41899999999999      -71.11899999999999      102.86099999999999
C          -41.42100000000000      -70.78900000000000      103.87400000000000
C          -40.55700000000000      -69.22400000000000      105.60899999999999
C          -40.76600000000000      -68.09699999999999      106.48500000000000
C          -39.62100000000000      -68.07399999999998      107.34499999999998
C          -38.81300000000000      -69.26599999999999      106.96399999999998
C          -36.72300000000000      -70.61000000000000      107.11699999999999
C          -35.37500000000000      -70.78300000000000      107.61899999999999
C          -34.94400000000000      -72.02399999999999      107.05399999999999
C          -36.06500000000000      -72.46499999999999      106.22199999999999
C          -36.05200000000000      -73.70300000000000      105.54100000000000
H          -35.18900000000000      -74.35500000000000      105.67699999999999
C          -40.14700000000000      -73.92000000000000      102.86400000000000
H          -40.58100000000000      -74.65100000000000      102.18200000000000
C          -41.47999999999999      -69.59699999999999      104.59999999999999
H          -42.29200000000000      -68.90600000000001      104.37500000000000
C          -37.54899999999999      -69.51400000000000      107.50199999999998
H          -37.17099999999999      -68.82899999999998      108.26100000000000
C          -38.62300000000000      -76.59999999999998      102.30600000000000
H          -37.84699999999999      -77.39500000000000      102.29899999999999
H          -38.73400000000000      -76.19599999999998      101.27700000000000
H          -39.58499999999999      -77.03799999999998      102.64800000000000
C          -35.94400000000000      -76.43000000000001      104.15900000000001
H          -35.62300000000000      -76.48800000000000      105.22100000000000
H          -35.07299999999999      -76.13400000000000      103.53600000000000
H          -36.31800000000000      -77.42600000000000      103.84000000000000
C          -42.73100000000000      -73.26300000000001      101.38599999999998
H          -42.68100000000000      -74.32100000000000      101.72000000000000
H          -42.22000000000000      -73.17000000000000      100.40400000000000
H          -43.79700000000000      -72.96599999999998      101.28899999999999
C          -43.53399999999999      -70.28700000000001      102.46800000000000
H          -43.92100000000000      -69.55299999999998      103.19000000000000
C          -44.14100000000000      -70.33399999999999      101.29099999999998
H          -43.80800000000000      -71.04400000000000      100.51900000000001
H          -44.98500000000000      -69.66400000000000      101.07099999999998
C          -41.93699999999999      -67.17200000000000      106.48500000000000
H          -42.86900000000000      -67.75300000000000      106.31699999999999
H          -41.82599999999999      -66.42600000000000      105.67000000000000
H          -42.00700000000000      -66.65500000000000      107.46599999999998
C          -39.31100000000000      -67.19100000000000      108.49200000000000
H          -38.77000000000000      -67.63100000000000      109.34199999999998
C          -39.61100000000000      -65.93899999999999      108.60800000000000
H          -40.15300000000000      -65.41800000000001      107.80499999999999
H          -39.32800000000000      -65.37900000000000      109.51100000000000
C          -34.63000000000000      -69.81399999999999      108.47199999999998
H          -35.08300000000000      -69.78800000000000      109.48600000000000
H          -34.68800000000000      -68.79799999999999      108.02499999999999
H          -33.56800000000000      -70.13000000000000      108.55899999999998
C          -33.58500000000000      -72.66400000000000      107.16000000000000
H          -33.04000000000000      -72.23600000000000      108.02899999999998
H          -33.00200000000000      -72.46299999999998      106.23600000000000
H          -33.69700000000000      -73.75900000000000      107.30799999999999
O          -39.86599999999999      -72.71499999999999      106.50400000000000
H          -39.72499999999999      -73.63900000000000      106.29700000000000
H          -40.36899999999999      -72.39500000000000      107.16400000000000
C          -35.42500000000000      -68.06999999999999      102.10599999999998
H          -35.91300000000000      -67.14500000000000      101.72999999999999
H          -34.80300000000000      -68.50400000000000      101.29399999999998
H          -34.78600000000000      -67.81200000000000      102.97700000000000
N          -37.40400000000000      -69.54500000000000      101.67500000000000
H          -37.47099999999999      -69.29500000000000      100.70900000000000
C          -36.48199999999999      -69.06200000000000      102.52500000000001
C          -38.20499999999999      -70.40400000000000      102.32699999999998
H          -39.03699999999999      -70.94199999999999      101.87400000000000
N          -37.79500000000000      -70.47000000000000      103.60500000000000
C          -36.73700000000000      -69.65500000000000      103.75900000000000
H          -36.24300000000000      -69.55099999999999      104.71700000000000
78
 energy: -116.032556420493 gnorm: 0.099733732228 xtb: 6.7.1 (edcfbbe)
Fe         -38.76642890528187      -71.62346354919190      105.09497009157847
N          -38.24487244043080      -73.41934454943154      104.39285151780307
N          -40.47830896986039      -71.73455843919767      103.96425724043048
N          -39.39782301894921      -69.94630911111085      105.92828205070117
N          -37.11940597519244      -71.62727496505423      106.28849352074701
C          -37.08445439031360      -74.13294841319509      104.71001544208545
C          -37.04936181799847      -75.40368071695652      104.01993348867397
C          -38.19506954991648      -75.47679563590653      103.25053100474632
C          -38.92076202490628      -74.24111039806361      103.49109815939778
C          -40.84291513939927      -72.72629839336315      103.08390327454298
C          -42.04856914437608      -72.38167336073865      102.39305007263920
C          -42.41595292488941      -71.12426733344952      102.86437081534990
C          -41.41562834344294      -70.77696750478768      103.86569830686432
C          -40.55913101163351      -69.24010554932485      105.61784539935955
C          -40.73056904720041      -68.10548844736958      106.48869005645153
C          -39.62870231479970      -68.09845012753999      107.34551686415004
C          -38.81195590464901      -69.25500263513833      106.95093994106800
C          -36.73795380564288      -70.60955851965645      107.11981705050292
C          -35.38631548675306      -70.79918864020168      107.59666282451674
C          -34.95742080943602      -72.00068081256522      107.04427812887094
C          -36.06815117561124      -72.47648383534690      106.23590027347342
C          -36.06778982810929      -73.69499493624421      105.54530566818129
H          -35.20249938715546      -74.33695908169925      105.66681801946424
C          -40.13401609155927      -73.91562925366392      102.88813329448794
H          -40.55845143305048      -74.63586902957596      102.19506575431525
C          -41.46282405224015      -69.60009080248835      104.61109041847767
H          -42.27386750412236      -68.91398127099703      104.39618921939319
C          -37.55702568154414      -69.52683953399618      107.48858839050584
H          -37.17443453872100      -68.84524589629915      108.24053210716893
C          -38.61537477532027      -76.57758910931265      102.32440641202251
H          -37.86310107007878      -77.37449663221946      102.30098366221814
H          -38.73585643580621      -76.20237158325045      101.30029110041656
H          -39.56791956213845      -77.02321753173118      102.64007048445849
C          -35.96062239836762      -76.41707722510886      104.15807655783921
H          -35.62877689961991      -76.49137259164637      105.20068657473092
H          -35.08951828606386      -76.14267364733749      103.54794126876598
H          -36.30652225763249      -77.40705604956969      103.84253977390414
C          -42.72688667442662      -73.25553997598988      101.39700219728154
H          -42.68231283800827      -74.30524893241312      101.71089488330175
H          -42.23760923308234      -73.17592233407991      100.41662070177988
H          -43.78016065306932      -72.97769516024047      101.29004071076466
C          -43.53493659347658      -70.29867181283115      102.47253848166737
H          -43.90066717354446      -69.56584453890109      103.19249663558338
C          -44.14421840475479      -70.33854031324462      101.28955807939739
H          -43.81653787017514      -71.01627206342309      100.51199177809410
H          -44.97522808065906      -69.67966483693262      101.06596861863923
C          -41.91310631484875      -67.18799468142723      106.48983188725791
H          -42.84435457090591      -67.74452672937947      106.32032271399628
H          -41.82723158026712      -66.43874249159626      105.69085349832362
H          -42.00061358962373      -66.66606277502402      107.44842778678279
C          -39.31860992175230      -67.22071175358980      108.47674883152021
H          -38.77008963333910      -67.66404908953950      109.30954249972059
C          -39.62319481246747      -65.93710966600590      108.59705764317368
H          -40.14404157798459      -65.40380687060966      107.81165301647658
H          -39.34444127373509      -65.37821510342225      109.48553779275989
C          -34.64145093536084      -69.83374277298859      108.46120608188099
H          -35.07494775235507      -69.78913407141469      109.46933084469521
H          -34.68464317579253      -68.82261305113418      108.03579820874448
H          -33.58913780428780      -70.12274077899305      108.55639471607493
C          -33.60901652542258      -72.64978028786739      107.16142377790180
H          -33.05333048408632      -72.24170373372688      108.01308060973358
H          -33.01645602164392      -72.47154384927472      106.25412533989218
H          -33.69681263277184      -73.73343861657592      107.30440119510534
O          -39.84899682188584      -72.72651285689354      106.51385742697038
H          -39.74265666725005      -73.65786063326725      106.31806940294103
H          -40.39852131536899      -72.40304408991335      107.20492320738907
C          -35.43069830576825      -68.07224604110327      102.10991668435291
H          -35.90118110095864      -67.15538556692444      101.73530191173892
H          -34.80912738423623      -68.49212114105316      101.31024219707737
H          -34.79557459939461      -67.81775858018057      102.96078935168228
N          -37.40147176271006      -69.54365186476603      101.67414579454106
H          -37.47305479279622      -69.29228767446526      100.70280164764949
C          -36.47343399382839      -69.05630538181293      102.53234693658571
C          -38.19633357291288      -70.40741840453917      102.33663768213140
H          -39.02037524980167      -70.93710035982721      101.89246598201400
N          -37.79829431524798      -70.48987195360496      103.59718261854229
C          -36.74135652418124      -69.65888074062767      103.74430458420512
H          -36.25153506360446      -69.55212330766537      104.69534181132572
78
 energy: -116.046050023704 gnorm: 0.031993919015 xtb: 6.7.1 (edcfbbe)
Fe         -38.77254598575828      -71.63031593987601      105.08566453896574
N          -38.22262524839203      -73.43831592274029      104.37512019760322
N          -40.46189431881035      -71.72756043233822      103.95291719592190
N          -39.40818999046999      -69.93566398906144      105.92815088949305
N          -37.10892348871604      -71.59048532263196      106.25836955743823
C          -37.08556735968844      -74.11878360809285      104.69605908930684
C          -37.06096291802701      -75.39464140607235      104.01774710322613
C          -38.18505979744027      -75.45918467576602      103.26043513284066
C          -38.90410514031843      -74.22526566242621      103.49003256870508
C          -40.82309757385855      -72.72189750338921      103.09228924286025
C          -42.03608887025681      -72.36993806083811      102.40186491578362
C          -42.40469243815469      -71.12737342676286      102.86222355652852
C          -41.40734249551137      -70.76437867805163      103.85900330252512
C          -40.55199701556485      -69.25455004732177      105.62281353786443
C          -40.70897473851152      -68.11735831580104      106.49738267985222
C          -39.63055842577295      -68.11418775178899      107.33894530582094
C          -38.81552254114531      -69.25454256436186      106.94483445448840
C          -36.74553476464629      -70.59148082287392      107.10665090608984
C          -35.39506853738315      -70.80626396172961      107.58097818597867
C          -34.97279348521603      -71.97888936563466      107.03781518259366
C          -36.07048448733978      -72.46581933617000      106.22734055999069
C          -36.07715558374181      -73.66924923517601      105.53336011986987
H          -35.21658163055972      -74.31076542403567      105.65668035051216
C          -40.10994994774525      -73.89927250642350      102.89529281355927
H          -40.53424424653826      -74.61922316286923      102.20833510187303
C          -41.44408126881488      -69.60321287994972      104.62025930858680
H          -42.25976651963159      -68.92260092871102      104.42415214629155
C          -37.56322486493319      -69.53306243482497      107.47391063680142
H          -37.17882862065739      -68.85521974210927      108.22235639353052
C          -38.61387464767522      -76.55788348333409      102.33862339741343
H          -37.87109060946365      -77.35134064155345      102.31320490368911
H          -38.73707746365643      -76.18824652902347      101.32104930097921
H          -39.56263609938892      -76.99612036480859      102.64877204257853
C          -35.97100771431854      -76.40873171763148      104.15774669250135
H          -35.64123957359594      -76.48574362568972      105.19156863503250
H          -35.10578217421875      -76.13798977008170      103.55138711770984
H          -36.30885809242901      -77.39132555212443      103.84007180757332
C          -42.72232215340910      -73.25082867226759      101.41004250439080
H          -42.67383990914303      -74.29382076978071      101.71701814475608
H          -42.24818145002597      -73.17299968623765      100.42971584618168
H          -43.76820473251876      -72.97924551162430      101.30542288780131
C          -43.52548046152567      -70.30457833680887      102.47132297973438
H          -43.87967628121960      -69.58665652981533      103.20169389407594
C          -44.13850430105156      -70.33608262485419      101.28789034697590
H          -43.82121332739833      -70.99125411048291      100.50023056777070
H          -44.96995532986991      -69.69082041418149      101.06959295907734
C          -41.89362913966205      -67.20301789911549      106.48955678576056
H          -42.81704580120958      -67.75569908287441      106.31987178625096
H          -41.81009641196776      -66.45406617456189      105.69990121218405
H          -41.98239151024468      -66.68263620855198      107.43916127855911
C          -39.31820467370462      -67.24024011861995      108.45263591325596
H          -38.77265051296452      -67.69487146480142      109.27267336718472
C          -39.62915459281758      -65.94770476933792      108.57780900368027
H          -40.13893530738218      -65.40187277863723      107.80727133104406
H          -39.35941438224164      -65.39287938293124      109.46059250440210
C          -34.65021872174160      -69.84843469821715      108.45472618106351
H          -35.08291321258367      -69.80316441791160      109.45443755884072
H          -34.68655701243475      -68.84283747209103      108.03570021038598
H          -33.60656175677227      -70.13358897251500      108.55084509603225
C          -33.63492124659368      -72.63731337671618      107.16297709580908
H          -33.07810830737171      -72.23750319325912      108.00654161684160
H          -33.04046661409456      -72.47211329179395      106.26235764076910
H          -33.72396874346490      -73.71296872963441      107.30208724069891
O          -39.81354686939255      -72.74573491632368      106.56286363313447
H          -39.79603469544811      -73.68829930915896      106.36381354020793
H          -40.43463746900846      -72.43103643331507      107.22782529547585
C          -35.43703178962202      -68.07606357602958      102.11831479047099
H          -35.89858503612519      -67.16421537956573      101.74362761053925
H          -34.81629342936770      -68.48924208802735      101.32496815267690
H          -34.80257827873472      -67.82358474576486      102.95825627503753
N          -37.40264476984629      -69.54626417039988      101.67279192894235
H          -37.47884715987573      -69.29407747927853      100.69930068375290
C          -36.47015073602869      -69.05549369815951      102.54221589287820
C          -38.18767672393894      -70.41629885644319      102.34601655383511
H          -39.00606264542641      -70.94264155891813      101.90645497496416
N          -37.80702232301956      -70.50707141467807      103.59634256964308
C          -36.74485529775086      -69.66669040673226      103.73597643294161
H          -36.25498820465025      -69.55620248750648      104.68074683959306
78
 energy: -116.049471362373 gnorm: 0.044033779452 xtb: 6.7.1 (edcfbbe)
Fe         -38.77339333236934      -71.62844835602910      105.08640923317841
N          -38.19727383311009      -73.42096532773185      104.34933505471759
N          -40.44778179221105      -71.71961240689386      103.95324485883998
N          -39.40985137036238      -69.93295844498410      105.92640266633852
N          -37.10967887338121      -71.58051378019660      106.24050228645839
C          -37.07847206471214      -74.10876194458504      104.68720999012149
C          -37.05402550779735      -75.38943679164527      104.01515539279117
C          -38.17835992699040      -75.44939412592196      103.25800798161114
C          -38.89221065789173      -74.21278728357139      103.48809955294929
C          -40.80626707853749      -72.71338198851255      103.09514312520349
C          -42.02163430876099      -72.36633665895215      102.40306543290859
C          -42.39101468821591      -71.12643257370641      102.85774384782101
C          -41.39797274718261      -70.75695050596809      103.85488003402213
C          -40.55023149422454      -69.26006837069549      105.62280784813109
C          -40.70683707234337      -68.11952874979112      106.49346970991984
C          -39.62963552518601      -68.11959014016493      107.33384276374363
C          -38.81454855854202      -69.25460684879080      106.93878248211024
C          -36.74987964698283      -70.58437734093499      107.08947719453337
C          -35.40228204709691      -70.80245482596344      107.57263399128490
C          -34.98024643548680      -71.97070244527518      107.02765058603798
C          -36.07103485369883      -72.45515326181652      106.20814158903963
C          -36.07236680256416      -73.65464857359744      105.52134298061605
H          -35.21016005168858      -74.29276236438267      105.64264189953344
C          -40.09736281346041      -73.88911113639915      102.89779552687961
H          -40.51661904980782      -74.60765374702794      102.20874582762869
C          -41.44115523253456      -69.60503940495178      104.62217738303622
H          -42.26255518077330      -68.92813128031241      104.44074549086379
C          -37.56245473823370      -69.53053581637111      107.46101748261886
H          -37.17749940905656      -68.85387988550791      108.20933763344888
C          -38.61910210831565      -76.54423287007567      102.34327973290293
H          -37.87944528257701      -77.33962605056146      102.31937386151907
H          -38.74409010545371      -76.16964190558966      101.32850838242189
H          -39.56948309570355      -76.96976782054580      102.66307004562010
C          -35.96966088296372      -76.40554041879312      104.15816580587769
H          -35.64765362336648      -76.48335705267861      105.19359497677542
H          -35.10505692703391      -76.13074285032326      103.55411375329871
H          -36.31131519750493      -77.38457686711617      103.83424329049888
C          -42.71511732441147      -73.25186661262808      101.42150815677273
H          -42.65749121739174      -74.29287660543454      101.73183577280025
H          -42.25361663201654      -73.17137897703356      100.43561973529505
H          -43.76284502411749      -72.98095217081602      101.33187579815026
C          -43.51792827947784      -70.30967074334033      102.47257339749160
H          -43.86719095092599      -69.60350094484234      103.21559107195598
C          -44.13383067890670      -70.33251620238417      101.29140420791241
H          -43.80840420856161      -70.96222623079221      100.48336901708183
H          -44.97090948472157      -69.69057617286278      101.08210361513720
C          -41.88797010649785      -67.20827391891754      106.48989154848192
H          -42.80533760248692      -67.76752429714205      106.31767256080749
H          -41.79819379791262      -66.45912240435068      105.70267114067475
H          -41.97084820647213      -66.69430107672190      107.44335832999317
C          -39.31913832479822      -67.24889268703846      108.44327674470995
H          -38.76795537564494      -67.71193298848989      109.25366210614713
C          -39.63366081001412      -65.95874674599622      108.56523578211839
H          -40.13220528163038      -65.40662272607142      107.79022232327459
H          -39.36761954159982      -65.40187565653792      109.44685727424176
C          -34.66032367787957      -69.85283133154873      108.45432333569214
H          -35.10037664401748      -69.81587255867052      109.45011149758156
H          -34.69247266594807      -68.84726737052250      108.03695216485468
H          -33.61917632171122      -70.14579366409058      108.55106106434002
C          -33.65018776863948      -72.63399917737526      107.16230387855701
H          -33.09857400826729      -72.23116236095598      108.00719763155519
H          -33.05608697961164      -72.47497181204970      106.26099081286074
H          -33.75502230057617      -73.70683872690675      107.30533715470878
O          -39.74784355607670      -72.76321981768760      106.64654460578321
H          -39.87551960499286      -73.70863749589687      106.38692080236353
H          -40.47785634087413      -72.45285338857418      107.22933822216440
C          -35.44323897556873      -68.07997386691770      102.12686057716866
H          -35.90516162961074      -67.16754967430907      101.75355278246784
H          -34.82015013712241      -68.49105976647633      101.33382338435582
H          -34.80909951537012      -67.82885301715220      102.96871607675349
N          -37.40611284756892      -69.55393513768831      101.66890613673114
H          -37.48552591147278      -69.29905662120495      100.69689466624757
C          -36.47414075341886      -69.06218283600184      102.54549240165258
C          -38.18437177603393      -70.42945431967338      102.34378883947869
H          -39.00123338071258      -70.95858316922090      101.90370535016844
N          -37.80747940843354      -70.52495407420402      103.59263931422812
C          -36.74658033850454      -69.67819784458905      103.73367680449512
H          -36.25559029387823      -69.56518459051823      104.67697421744229
78
 energy: -116.051520347798 gnorm: 0.020532416409 xtb: 6.7.1 (edcfbbe)
Fe         -38.77413298295372      -71.62770996043723      105.08772937978787
N          -38.18289607690622      -73.40469180311720      104.33757720303021
N          -40.43877347627637      -71.71393559926595      103.96079128466064
N          -39.40853195219803      -69.93517374276954      105.92232962808205
N          -37.11254715988190      -71.57196682877654      106.21844850295119
C          -37.06808935949294      -74.09705079510270      104.67548351977291
C          -37.04479815183526      -75.38338506437245      104.01208802614421
C          -38.17402456671367      -75.44101895054735      103.25454420031681
C          -38.88002843381167      -74.19899638581293      103.48251600511001
C          -40.79164393027180      -72.70364263159270      103.09594320320245
C          -42.00656076629405      -72.36307690392282      102.40086365102690
C          -42.37691450897761      -71.12252054026654      102.85202279973574
C          -41.39095832300041      -70.75158714054010      103.85324852825828
C          -40.54958196888239      -69.26350030949357      105.62134449928578
C          -40.70892760578088      -68.12100504758892      106.48750576447418
C          -39.62632847207679      -68.12145565503165      107.32685265489054
C          -38.81359510519238      -69.25606580808565      106.93203218144350
C          -36.75431593651768      -70.57933743626380      107.07072504254741
C          -35.41025950566670      -70.79525749650915      107.56450721292046
C          -34.98638779175532      -71.96407686035302      107.01531849704830
C          -36.07154096176788      -72.44173091258273      106.18472748849976
C          -36.06101302507077      -73.63958288674091      105.50343442697050
H          -35.19663327561614      -74.27452537426029      105.62443156917817
C          -40.08508549805148      -73.87762965259057      102.89281707957902
H          -40.49982792705499      -74.59567423385042      102.20194277358240
C          -41.44365302482819      -69.60587648987729      104.62281226568906
H          -42.26823677514835      -68.93015861511840      104.45270699605683
C          -37.56134049968020      -69.52582735902996      107.44969004560429
H          -37.17520411171661      -68.84899554447304      108.19726364625936
C          -38.62831291243788      -76.53133881815755      102.34668746688020
H          -37.89360218023153      -77.33246627452644      102.32307416937394
H          -38.75487649037871      -76.15221700884588      101.33295997781002
H          -39.58207089594089      -76.94307227573839      102.67735098313925
C          -35.96702492559580      -76.40181326772638      104.15850533554969
H          -35.65374885984124      -76.48232381058563      105.19746268840795
H          -35.09928055645685      -76.12405298258611      103.55891315890617
H          -36.31304608725609      -77.37857493187568      103.82761927545072
C          -42.70700790743133      -73.25201210173920      101.43080800179956
H          -42.63910288467033      -74.29237687397872      101.74523381664210
H          -42.26008730373380      -73.16920698975248      100.43740960780978
H          -43.75836388077552      -72.98097726126986      101.35990695685153
C          -43.50844629659510      -70.31035356235509      102.47190936037026
H          -43.86236095631915      -69.62255070200224      103.23112437685693
C          -44.12292259986859      -70.32152333210793      101.29150148621321
H          -43.79317789746363      -70.93413065657872      100.46809870529580
H          -44.97258434960147      -69.68774361071610      101.09500854636254
C          -41.88544486372222      -67.21140738678042      106.49029368688744
H          -42.80007479984918      -67.77468713692440      106.31457030243402
H          -41.79020924922978      -66.45952950882328      105.70583537297232
H          -41.96309198448677      -66.70465656616419      107.44957341991342
C          -39.31573318719038      -67.25190060477112      108.43446009051944
H          -38.76579767734882      -67.72414711271796      109.24079740732563
C          -39.63318361899731      -65.96614105332802      108.55009773155057
H          -40.12913641206416      -65.41433498810061      107.76995610564462
H          -39.37649486755122      -65.40616549034972      109.43397261243082
C          -34.67333419661902      -69.85590791776418      108.45734107845061
H          -35.12323531577936      -69.82920554699972      109.44980206310514
H          -34.69934504137829      -68.84760773316218      108.04449441701611
H          -33.63365378838206      -70.15834570008921      108.55737061979764
C          -33.66430191591657      -72.63444769375370      107.16212193690485
H          -33.11777601641511      -72.22712160873587      108.00942403035097
H          -33.06702646760228      -72.48517450248953      106.26045319003326
H          -33.78716763624043      -73.70514792165262      107.31353394764599
O          -39.76521028279320      -72.78516732341373      106.66899065747890
H          -39.85818845223255      -73.71490388332835      106.46081187329617
H          -40.48719136531524      -72.48871935855985      107.24414933537074
C          -35.44929218554236      -68.08597521427241      102.13739148068406