78
 energy: -116.058038142147 gnorm: 0.000111948822 xtb: 6.7.1 (edcfbbe)
Fe          27.70102001981036       90.15106390582828       52.28657479087201
N           28.65168443812131       91.77860881560458       51.63923227860549
N           28.82627520107373       90.12861545822417       53.93251755737074
N           26.68913155481152       88.54115838734674       52.95176239595997
N           26.51959393237664       90.20147681400964       50.65747737064359
C           28.43994636777399       92.44631097823110       50.47588629122513
C           29.34522351370145       93.56942589296690       50.35661034043908
C           30.11030320930927       93.56285261807972       51.47973910182663
C           29.66232117064612       92.43456205551693       52.26804231526625
C           29.81052918994988       91.00818938222446       54.25865359501515
C           30.41861201451906       90.65739713287407       55.51718251808545
C           29.78120437776955       89.52510081368341       55.94901408345716
C           28.78137193569435       89.22175770686619       54.94174717031937
C           26.94899544969568       87.82974856875873       54.08437571506611
C           26.05518379539761       86.70763223829449       54.20075444270502
C           25.23870976549238       86.74852878580883       53.10034118088836
C           25.65692821529836       87.90618390716411       52.33590841726197
C           25.51384329746575       89.33847861171134       50.34572790922997
C           24.92952409252240       89.67530051008850       49.06719419000589
C           25.61399394423850       90.75789514749141       48.60828812242073
C           26.60404495504843       91.06986265832714       49.61395758681163
C           27.49531572616818       92.12143659101075       49.52072242565774
H           27.44721988259607       92.73768549062052       48.63610000799058
C           30.20775764336377       92.08717180226616       53.48736615181431
H           31.01039713666215       92.70201087023315       53.86560461340420
C           27.92881673691708       88.13789878723128       55.01149438126795
H           28.03441520274144       87.47528427325426       55.85669474646319
C           25.10015724014026       88.27248548005525       51.12317290810120
H           24.29566856482580       87.66400801838786       50.73944993318927
C           31.19934637207702       94.49490966799517       51.88802459404137
H           31.35597119734249       95.26133722524725       51.13297905433157
H           32.13656627198225       93.95543048981237       52.02855948337605
H           30.94833698911110       94.98626921978681       52.82816360017001
C           29.37135612951079       94.50968440162902       49.20062569021781
H           28.41107856559754       95.01524170609335       49.09676320916030
H           29.57244285453989       93.97255906274047       48.27334707395855
H           30.14233296880617       95.26473683823504       49.33321751181303
C           31.47573208735509       91.44635871163852       56.20807374732599
H           31.30418723059952       92.51377142590276       56.07866580032474
H           32.46415268716795       91.21171855065781       55.80864544733411
H           31.47375675484091       91.22007532439208       57.27233504601334
C           29.98784827230198       88.76689874815258       57.16278230604649
H           29.10086217188197       88.31139592222827       57.58760550642838
C           31.15557092484678       88.58919157407774       57.77247784478642
H           32.07600448150878       88.97775915715135       57.37282816782218
H           31.23392606719586       88.02275685354294       58.68564157037833
C           26.01064059140226       85.76174259425106       55.34948316238668
H           26.18930417854013       86.28551701834208       56.28736084645193
H           26.77253779065822       84.98747566468982       55.24560170595358
H           25.03588772460125       85.28059661254578       55.39973802727895
C           24.15027094995667       85.86976347209880       52.73387231096920
H           23.32397049984959       86.33986165779069       52.21259065452005
C           24.09738950266332       84.56400947630047       52.97622377647758
H           24.90806189234378       84.03538380695544       53.44638690662408
H           23.24549260221780       83.97149390814930       52.68623825475890
C           23.80026743898054       88.93406778743510       48.43742014658329
H           22.92051139033304       88.95388517527473       49.08139410507869
H           24.07166523362410       87.89149002451754       48.26929388151839
H           23.53327813896523       89.37639735429134       47.48086030120111
C           25.43436547410321       91.52076689716016       47.34090177467159
H           24.62895286755791       91.09815414770033       46.74522891518989
H           26.34877379658709       91.49763631781441       46.74778498538127
H           25.19483743217434       92.56344238466312       47.55131328892330
O           26.08580167652607       91.41794760985549       53.31469916146194
H           25.55242802428380       91.65396811164108       52.54783341896893
H           25.60968757366681       90.72788177536380       53.78946913249374
C           30.13486558626025       86.14877255263268       49.26540206708329
H           30.75334268096605       85.42024198443629       49.78952492577163
H           30.65088697459449       86.43824856323789       48.34996574411258
H           29.19288794218114       85.67893543273743       49.00050280645524
N           30.88184840480456       88.12312488348455       50.61303411207119
H           31.86664828528413       87.98831580274246       50.45293156725138
C           29.87543192446767       87.33334566839333       50.12207636883882
C           30.31154386641497       89.10439958546436       51.34793659183804
H           30.85965238485792       89.87213338303489       51.85451716318342
N           29.00600189806552       88.98388661985082       51.35162596743558
C           28.71974168538765       87.88713770270600       50.59317597069737
H           27.70936298690266       87.57074944298647       50.43828376347597
