78
 energy: -115.957944532618 gnorm: 0.291059296421 xtb: 6.7.1 (edcfbbe)
Fe          22.21400000000000       78.63100000000000       27.28600000000000
N           23.54300000000000       78.25899999999999       28.80900000000000
N           21.51300000000000       80.25500000000000       28.34500000000000
N           20.67700000000000       78.80600000000000       25.97700000000000
N           22.77200000000000       76.86300000000000       26.38000000000000
C           24.51700000000000       77.28699999999999       28.76000000000000
C           25.24000000000000       77.30600000000000       29.98400000000000
C           24.69200000000000       78.26900000000001       30.74000000000000
C           23.63200000000000       78.90100000000000       29.97900000000000
C           21.97700000000000       80.67199999999998       29.57400000000000
C           21.44500000000000       81.97700000000000       29.78900000000000
C           20.63200000000000       82.28600000000000       28.80099999999999
C           20.67400000000000       81.20399999999998       27.85900000000000
C           19.81800000000000       79.89500000000000       25.91500000000000
C           19.01700000000000       79.74400000000000       24.74600000000000
C           19.28000000000000       78.54199999999999       24.20700000000000
C           20.28000000000000       77.91100000000000       25.01400000000000
C           22.13300000000000       76.35500000000000       25.25200000000000
C           22.99300000000000       75.29900000000001       24.73900000000000
C           24.20100000000000       75.21899999999998       25.61100000000000
C           23.97900000000000       76.20300000000000       26.63100000000000
C           24.77500000000000       76.46599999999999       27.70000000000000
H           25.73900000000000       75.95900000000000       27.71300000000000
C           22.84900000000000       79.96800000000000       30.36200000000000
H           22.93200000000000       80.28500000000000       31.40100000000000
C           19.90200000000000       81.04699999999998       26.71900000000000
H           19.29900000000000       81.90200000000000       26.41400000000000
C           20.94100000000000       76.75499999999998       24.72600000000000
H           20.47100000000000       76.08600000000000       24.00500000000000
C           25.10700000000000       78.69899999999998       32.16900000000000
H           25.96200000000000       78.07699999999998       32.51000000000000
H           24.25500000000000       78.55400000000000       32.86700000000000
H           25.41700000000000       79.76599999999999       32.16500000000000
C           26.43500000000000       76.35599999999999       30.29500000000000
H           27.35500000000000       76.74500000000000       29.80800000000000
H           26.22000000000000       75.34099999999999       29.89900000000000
H           26.60100000000000       76.30800000000001       31.39200000000000
C           21.63000000000000       82.74299999999998       31.09500000000000
H           22.55800000000000       83.35100000000000       31.04000000000000
H           21.71700000000000       82.02800000000001       31.94100000000000
H           20.76500000000000       83.42100000000001       31.25800000000000
C           19.79500000000000       83.54800000000000       28.60700000000000
H           18.74700000000000       83.47900000000000       28.27900000000000
C           20.31600000000000       84.75700000000001       28.83100000000000
H           21.36000000000000       84.86300000000000       29.16000000000000
H           19.70700000000000       85.66200000000001       28.68900000000000
C           17.90600000000000       80.73899999999999       24.33300000000000
H           18.22600000000000       81.29699999999998       23.42700000000000
H           17.72500000000000       81.46200000000000       25.15700000000000
H           16.97200000000000       80.18400000000000       24.10200000000000
C           18.61400000000000       77.80900000000000       23.04700000000000
H           18.80400000000000       76.73300000000000       22.92300000000000
C           17.80500000000000       78.38100000000000       22.15600000000000
H           17.57200000000000       79.45399999999998       22.22100000000000
H           17.36000000000000       77.78699999999999       21.34400000000000
C           22.75700000000000       74.47900000000000       23.48000000000000
H           22.53800000000000       75.15999999999998       22.63000000000000
H           21.89000000000000       73.80100000000000       23.63100000000000
H           23.66600000000000       73.88600000000000       23.24200000000000
C           25.45400000000000       74.28399999999999       25.42200000000000
H           26.21400000000000       74.80400000000000       24.80100000000000
H           25.14900000000000       73.34699999999999       24.90900000000000
H           25.89800000000000       74.04700000000000       26.41200000000000
O           20.80700000000000       77.15400000000000       28.43800000000000
H           19.92100000000000       77.33700000000000       28.12600000000000
H           21.03600000000000       76.54400000000000       29.04300000000000
C           26.30000000000000       81.91700000000000       24.90700000000000
H           26.10600000000000       82.61199999999999       24.06200000000000
H           27.19100000000000       81.29899999999999       24.66700000000000
H           26.48600000000000       82.51100000000000       25.82700000000000
N           24.64700000000000       80.19499999999999       24.13200000000000
H           25.01700000000000       80.14299999999999       23.20500000000000
C           25.11100000000000       81.03200000000000       25.10900000000000
C           23.63900000000000       79.47499999999999       24.61600000000000
H           23.03400000000000       78.78600000000000       24.02800000000000
N           23.51300000000000       79.74600000000000       25.90800000000000
C           24.42500000000000       80.72199999999999       26.23400000000000
H           24.49900000000000       81.10599999999999       27.24400000000000
78
 energy: -116.021353039430 gnorm: 0.114448052189 xtb: 6.7.1 (edcfbbe)
Fe          22.18670684109158       78.60037600260505       27.30328118731251
N           23.55251148377820       78.26332385343264       28.78293657469015
N           21.53096802930698       80.24908958814984       28.32788691954158
N           20.67276746039501       78.80820228465900       25.99052397391199
N           22.78569908288461       76.88357495007536       26.37100571974033
C           24.52474901519843       77.29988110345059       28.74902225866713
C           25.25591092097703       77.30616017835338       29.98859841555850
C           24.69843192997843       78.27250412877407       30.76105628212099
C           23.63268853563209       78.88367873871512       29.98015605944390
C           21.98043517524536       80.67280765161537       29.55336821329055
C           21.42055705027871       81.97327888364278       29.81926668145623
C           20.61086746128715       82.29951593092717       28.78630708308819
C           20.67061393742212       81.19019079068696       27.85503168228849
C           19.85063879714471       79.90870089194129       25.88640184025343
C           18.98409389172527       79.74201939992912       24.74973257515856
C           19.24787474609240       78.51613818939155       24.20677201903464
C           20.30416558990355       77.92929746534560       25.00578463990945
C           22.17480041640520       76.33143249366266       25.27225014404473
C           23.02900859374143       75.28305888861752       24.75068101786132
C           24.17690452305409       75.21889900837824       25.57619191805884
C           23.96904871503152       76.21367149484406       26.59331736062260
C           24.78078582575300       76.46272349628988       27.68316537927797
H           25.72735005303747       75.93300722880703       27.71708959971429
C           22.85385695799869       79.96533037116978       30.36178691114679
H           22.95353378329500       80.30009530123306       31.39016837933557
C           19.91228982657033       81.04143514941704       26.70491963790093
H           19.29491755051176       81.88788481455751       26.42134606698800
C           20.96631647669009       76.74620891551304       24.72928726448762
H           20.50219767482681       76.09333766603277       23.99467424394521
C           25.10303355788582       78.69504451810478       32.15873981162192
H           25.94689088719907       78.08939308017294       32.50464071395581
H           24.26763008148428       78.56023791969317       32.85535249059219
H           25.40681418678863       79.74814076471125       32.16519709970746
C           26.41902467235910       76.37184937360246       30.29356287991734
H           27.33517184421856       76.74257503411403       29.81618711133284
H           26.21749531912269       75.36535414805111       29.90988887175339
H           26.59465547685229       76.30894594969014       31.37209640512422
C           21.62968132909975       82.74243065604382       31.09520673897344
H           22.54702751402781       83.34201976888164       31.04565752959299
H           21.71463761339890       82.04577297924119       31.93512264675523
H           20.78097647716491       83.41418513543420       31.26020418247429
C           19.81169510819698       83.54192134940087       28.60430348344856
H           18.77523534019014       83.45638530636968       28.27801466332379
C           20.31572285026720       84.74912515973071       28.83494628023402
H           21.34492619117372       84.87020983462362       29.15259794852886
H           19.72061381806968       85.64712614389407       28.69421418697400
C           17.91458483940719       80.73277026787765       24.33650505300371
H           18.22230554919090       81.28895461945289       23.44191262749615
H           17.72673689863617       81.44908521104257       25.14147168798365
H           16.98555851361185       80.19660168676064       24.11380090168155
C           18.61363570689950       77.82189836943004       23.05920273156119
H           18.81576456893057       76.75698616173742       22.94621856899433
C           17.80901996582212       78.38455693521325       22.16160438864889
H           17.57332707979918       79.43881981801535       22.20125256625984
H           17.36688597374226       77.80026396822896       21.35965623320277
C           22.76584082175006       74.48665147330921       23.49882726770184
H           22.54234988223241       75.14893192230524       22.65074882615518
H           21.90845822663621       73.81243107712673       23.63079289190801
H           23.64796013251391       73.89136442763042       23.24382684649978
C           25.40934733666816       74.31082814366562       25.42098098727794
H           26.18371984696288       74.80246830542882       24.81415788455204
H           25.14410462103289       73.37117433756838       24.92262066151668
H           25.86551025804594       74.06368375584157       26.38910620001477
O           20.80238062471307       77.18782664132345       28.43252665182887
H           19.90689786335516       77.32455574752834       28.13176569793226
H           21.03292954008165       76.52540782945461       29.05752071401805
C           26.29859265740708       81.91673035482962       24.90411287117482
H           26.11425305929560       82.60692514098349       24.07168547362765
H           27.18577556210046       81.31652702652912       24.67051776064602
H           26.48588558262589       82.49966248184683       25.81008004058325
N           24.64422184422930       80.20610255464634       24.12945400942795
H           25.01058453646990       80.15437922140705       23.19455027146939
C           25.12968747668016       81.01814382016980       25.11638476785059
C           23.64138919745582       79.47108680596965       24.63952155413068
H           23.04445997577577       78.78841710497336       24.05633165768688
N           23.49094808374207       79.74084171813368       25.92312062065846
C           24.41492455954032       80.70538171056585       26.23469317222380
H           24.48603660188891       81.09699937902651       27.23310531912209
78
 energy: -116.039961592294 gnorm: 0.033099583079 xtb: 6.7.1 (edcfbbe)
Fe          22.17573296622296       78.58169346726729       27.31114926247420
N           23.55644790810117       78.26381810574669       28.75674767100107
N           21.54520997176367       80.23405403980306       28.31389482485271
N           20.68788234617731       78.81574118509207       25.98733505770057
N           22.79742997001162       76.90657792694678       26.36157504251451
C           24.53177386762171       77.31549870938812       28.73060773565826
C           25.26394034170496       77.31052992553191       29.98157118690993
C           24.69623208565223       78.27341428748056       30.76449957063601
C           23.63322411410532       78.87341358776023       29.97008166383160
C           21.98282543599907       80.66470613906095       29.53138730632967
C           21.40558478145019       81.95862343483188       29.83329432891119
C           20.60499594381734       82.29519932509182       28.77243450449586
C           20.67687341417585       81.17117951366112       27.84823465421400
C           19.88022185651970       79.91149486276612       25.86660610963287
C           18.97382802631353       79.73863701647861       24.75323871005692
C           19.23651027762100       78.49781000485946       24.21141814313390
C           20.32975863847054       77.94210892266064       25.00390660450251
C           22.20785816272532       76.33132826608576       25.28142876400384
C           23.05568470502681       75.27808225873549       24.76075924574338
C           24.15645997139025       75.22643233127528       25.55254352326327
C           23.96503407095067       76.23648069724534       26.56888954132019
C           24.78753305353504       76.46214234758230       27.66737858778427
H           25.70824305137145       75.89303423614378       27.72516170298954
C           22.86409525228116       79.96562923692758       30.35175016740741
H           22.99017153194098       80.32535406851606       31.36650175910354
C           19.92227932108135       81.03105445176169       26.69418464494868
H           19.28793515169551       81.86873230785336       26.43180461202647
C           20.99367395424944       76.74936736439381       24.72872740946000
H           20.54929008362793       76.11311908982162       23.97231532191308
C           25.09208385969622       78.69055799913895       32.14173403687463
H           25.93117191680256       78.09602234069374       32.49416745379306
H           24.26746756767928       78.56594993324467       32.84236160046660
H           25.39293350842025       79.73720644012685       32.15728727987727
C           26.40256718571275       76.39161123578761       30.28933212547056
H           27.31983088829507       76.74786930142548       29.81805525288929
H           26.20447508783437       75.38876114831663       29.91543229356059
H           26.58017574013058       76.32221949219718       31.35956806732292
C           21.62578643820738       82.73235762573391       31.08932456217116
H           22.53916804726011       83.32529304663498       31.03926272228211
H           21.71126375577338       82.05743566461223       31.93718671205953
H           20.79258751364061       83.41061297990844       31.25806558562891
C           19.83323613340255       83.51884732407689       28.60041487309672
H           18.80770529272750       83.41790239359005       28.26152141146032
C           20.31835601796671       84.73258569550622       28.83665783467652
H           21.33750319532853       84.87494860781287       29.14998834226706
H           19.72648121177643       85.62392022460456       28.70388361029894
C           17.92484150837130       80.71929856154257       24.34678407161756
H           18.22782272411302       81.27506437377937       23.45857238782462
H           17.73236850522103       81.43714378869757       25.13832555118730
H           16.99381735677986       80.20130934285403       24.12286404088373
C           18.61249887020103       77.83294109898173       23.08834496656959
H           18.83029241680225       76.77632465937758       22.98274742553141
C           17.81417780862877       78.38650215294601       22.17591301818934
H           17.57555673162885       79.43165275635168       22.18173083795032
H           17.38503366614738       77.80599544048827       21.37556407968897
C           22.77293068988817       74.49106941949549       23.51931928434762
H           22.54738285461956       75.15105538414083       22.67986246831835
H           21.91820436592871       73.82508010731291       23.64819462737079
H           23.63768617781911       73.89035432666256       23.25045789045244
C           25.36318057008131       74.33900075355203       25.41716635239265
H           26.14242038172547       74.82219163814698       24.82057821723623
H           25.11340523064982       73.39825629995720       24.92850868194930
H           25.80819650018524       74.09719234368715       26.38279033420577
O           20.79340624784601       77.25775171553470       28.47058751584906
H           19.88740948769150       77.28329436002002       28.13876968845360
H           21.02330083200641       76.51359592867597       29.03729920804169
C           26.29655693504111       81.91332819337718       24.90669911470414
H           26.10982242183167       82.59764493367544       24.08048307036152
H           27.18721524180279       81.33106654353645       24.67261149212679
H           26.48485854705000       82.49265024300401       25.80340537397714
N           24.63701714031135       80.21123652040153       24.13182558919529
H           24.99395019499089       80.16260922107288       23.19026429511748
C           25.14264679898921       81.00337974029591       25.12813883392510
C           23.63948489221156       79.46870571795371       24.66149318631875
H           23.05038339880371       78.78359102942007       24.08637934893147
N           23.48332759273438       79.73370013894780       25.93668674585976
C           24.40827483547886       80.69152918190954       26.23943846753567
H           24.47900545816117       81.08912552001986       27.23052241287095
78
 energy: -116.043119913929 gnorm: 0.068758937685 xtb: 6.7.1 (edcfbbe)
Fe          22.17338110936754       78.57566973967381       27.31453871111099
N           23.56402598882414       78.26973664992188       28.73586810999472
N           21.55953228195434       80.22401305002120       28.30374298509550
N           20.70029637674648       78.81800810463456       25.98548950466338
N           22.80400370166477       76.92640143374693       26.35201721633150
C           24.53937655695879       77.32663002345444       28.71411967634425
C           25.26747703160409       77.31980158338079       29.96774887358087
C           24.69576439706560       78.27876240472320       30.75061932638892
C           23.64067858486214       78.87724785162931       29.95223798589410
C           21.99072791183089       80.65637364314189       29.51839721331409
C           21.40760665659671       81.94325047609617       29.83173930007729
C           20.61281340530967       82.28001428515756       28.76436304830872
C           20.68940306068795       81.15835618319647       27.84064772786720
C           19.89637060330931       79.91156551906951       25.86183404410657
C           18.97675260060652       79.73770083523463       24.76214817078486
C           19.23895925592857       78.49641505987063       24.22055857109119
C           20.34317390882488       77.94938318108633       25.00289839874533
C           22.21682755078179       76.34919121192989       25.27425385746287
C           23.05306357020904       75.28689274230894       24.75586873020537
C           24.15593975676122       75.24330023242935       25.54739390455439
C           23.96965375557227       76.25881920783320       26.56143074097134
C           24.79365545036229       76.46291562535492       27.65915098286041
H           25.69030168332327       75.85581838363257       27.73417677906719
C           22.88237737563659       79.97144708294934       30.33670984813199
H           23.03893326177568       80.35588067066755       31.33848933534490
C           19.93253513928065       81.02625350498290       26.68968505551673
H           19.28184676861374       81.85517395589679       26.44299951056785
C           21.01083076058394       76.76438928491920       24.71441289408801
H           20.59404592256272       76.14305741918969       23.93056355554151
C           25.07948807034216       78.69265555537113       32.12867049059616
H           25.91683483867304       78.09910815601110       32.48646826241089
H           24.25128907598770       78.57046186191157       32.82549791347854
H           25.37886013454268       79.73972630761973       32.14624346044324
C           26.39715708391983       76.40282878591783       30.28428693166169
H           27.31727648179218       76.75216233286871       29.81407884198638
H           26.19328850386728       75.39890286926963       29.91777798721324
H           26.56761413045286       76.34130940330658       31.35571132576900
C           21.62729937308664       82.72047935256057       31.08312588182926
H           22.54457828828972       83.30701447685198       31.02836544479885
H           21.70712679083168       82.05722850925997       31.94151454393019
H           20.80011198840763       83.40791102313469       31.24682028878602
C           19.84626034303746       83.49698830544293       28.58757558874312
H           18.82931070691158       83.38464675749955       28.22766625096594
C           20.31622109687516       84.71431162977622       28.83867728831969
H           21.33199482905307       84.87054895587332       29.15728834273592
H           19.71835126189236       85.60040667016992       28.70950618635002
C           17.92965438380870       80.71431593283914       24.35865198625012
H           18.23482357546169       81.26776612253387       23.46971888465621
H           17.73766617070621       81.43348208559428       25.14897425457835
H           16.99741744896934       80.19876542675688       24.13467987501124
C           18.61818294581321       77.83612632999245       23.10378592938518
H           18.83385598474989       76.77833292044724       23.01453407573920
C           17.82545315307192       78.38230955361647       22.18099153223586
H           17.58434845605077       79.42770410035065       22.16366815615926
H           17.39830770493198       77.79240863773835       21.38840827377138
C           22.76444973501853       74.49192320037896       23.52676683778801
H           22.54028675131061       75.15376916866771       22.69094944907452
H           21.90889947139112       73.83254828719120       23.66899904236930
H           23.62447328286500       73.88511849546281       23.25695700193901
C           25.34529112240807       74.35467317431112       25.41961087537810
H           26.12214404380178       74.84009140692663       24.82553437052885
H           25.08442903941249       73.41853013076313       24.93168389837895
H           25.77048678202134       74.11977270028689       26.39279651413916
O           20.76084336952367       77.36698848406159       28.57212231607638
H           19.87256298026094       77.22059066129431       28.11447536137929
H           21.01182698947937       76.48452324723051       28.98869367217407
C           26.29041645127894       81.90846489233282       24.91358836976932
H           26.09246220854195       82.59011874860083       24.08822010586711
H           27.18849673803045       81.33942770650343       24.67378568217007
H           26.48082709307542       82.49004692209351       25.80797528855529
N           24.62728974416455       80.20641563030482       24.14534691638340
H           24.96957269674528       80.16673133893480       23.19744101792173
C           25.14460914231056       80.99052050332752       25.14416884233588
C           23.63504120422722       79.46097649171679       24.68420442223843
H           23.04839148807057       78.76889341548488       24.11682074727317
N           23.48431189726548       79.72521399587347       25.95715442441588
C           24.41194075886376       80.67802421591176       26.25650556621614
H           24.48381976080033       81.07926577349174       27.24540722181110
78
 energy: -116.046811276955 gnorm: 0.031604563609 xtb: 6.7.1 (edcfbbe)
Fe          22.17436725900678       78.57276726959536       27.31646254778321
N           23.56974876052853       78.27425853857083       28.71465714531318
N           21.57591508975000       80.21260121022590       28.29234689071421
N           20.71508953358434       78.81949720790529       25.98271416546048
N           22.80809437520316       76.94670588245621       26.34416155271374
C           24.54637727109276       77.33651708443010       28.69639993409609
C           25.26932153666645       77.32989614631956       29.95109952669288
C           24.69380830317499       78.28378514966325       30.73207179247654
C           23.64724491431240       78.88151199739916       29.93184626106097
C           21.99915129699077       80.64523441903178       29.50574473924751
C           21.41134550976072       81.92389161441191       29.82772935511687
C           20.62264205105085       82.25911471981176       28.75765364795921
C           20.70322846474226       81.14346253053104       27.83283939861805
C           19.91132554116584       79.90996044539361       25.85937687524472
C           18.98323404834223       79.73621743763047       24.77276085516946
C           19.24517579512032       78.49752405751956       24.23119597050745
C           20.35687310184541       77.95604837794583       25.00102448546465
C           22.22221085516816       76.37192092442885       25.26422786753596
C           23.04684618132956       75.30113306527889       24.74827606642699
C           24.15772922655799       75.26389577335659       25.54530389774599
C           23.97484897779344       76.28281805359147       26.55719888185916
C           24.79934648415593       76.46257838762004       27.65165654325600
H           25.67074084836356       75.81891381405494       27.74097420011495
C           22.90260760708073       79.97745772936810       30.31950116501139
H           23.09046226347290       80.38669962741709       31.30697134288078
C           19.94241361489589       81.02070066886775       26.68667504734912
H           19.27543582553976       81.84016160384662       26.45535057602796
C           21.02929883014888       76.78309626534994       24.69478788809761
H           20.64483342039115       76.17671019314650       23.88206950777988
C           25.06514420435547       78.69500499408944       32.11463455516487
H           25.90138366595246       78.10125651346763       32.47823026784815
H           24.23095417199658       78.57337505467754       32.80624583136567
H           25.36304098435811       79.74375852330540       32.13401140377742
C           26.39322972220832       76.41339807252271       30.27810128616423
H           27.31650322960079       76.75663428075217       29.80812940645064
H           26.18249136794965       75.40722900268742       29.91956529003263
H           26.55512591714505       76.36269584985021       31.35240013901592
C           21.62788560232265       82.70491619989686       31.07704988614162
H           22.55074393738382       83.28480868792209       31.01763174967685
H           21.70015047457007       82.05272562808855       31.94722315005976
H           20.80572457335874       83.40295793966736       31.23379224494521
C           19.85772539287994       83.47175003039455       28.57379556239793
H           18.84963571226903       83.34792139584833       28.19070474362036
C           20.31177609157148       84.69247067880279       28.84230873392089
H           21.32413330655093       84.86285571965749       29.17067545444129
H           19.70604630605317       85.57328867955813       28.71505504879086
C           17.93392903184665       80.70894689397247       24.37143897287271
H           18.24242749543070       81.26050851867257       23.48103638812515
H           17.74186845805238       81.42950860827985       25.16220006751679
H           17.00088533042742       80.19324327744390       24.14635485614649
C           18.62385618775762       77.83772933414105       23.11899660365186
H           18.83658659024137       76.77780080430387       23.04628895800886
C           17.83789776380564       78.37737801232554       22.18600000736092
H           17.59542058495486       79.42463793240097       22.14507588612985
H           17.41449299185850       77.77650327072574       21.39970237908859
C           22.75627253049917       74.49479820500247       23.53222271250977
H           22.53392859908982       75.15827967905707       22.69869029021906
H           21.89957036181715       73.84138825992594       23.69015992452517
H           23.61343116079941       73.88149316622884       23.26349306700888
C           25.33124776001915       74.37073365749004       25.42156179357378
H           26.10561582033625       74.85961962272206       24.82998440187931
H           25.05604393698315       73.44009391486982       24.93209688501474
H           25.73504893715774       74.14189423864907       26.40332796703895
O           20.75493618337854       77.30995091517661       28.50391845903260
H           19.86366359904577       77.26481186036139       28.18412457628022
H           20.97397238645643       76.53581988742715       29.01747647705896
C           26.28226247071755       81.90425695643700       24.92352672075910