78
 energy: -116.058287243844 gnorm: 0.000050282030 xtb: 6.7.1 (edcfbbe)
Fe          22.22274185580474       78.56893233673037       27.27939195275960
N           23.64108689215820       78.26210218034973       28.64356370909404
N           21.64623779612974       80.22622291951612       28.22551977025574
N           20.75163394732189       78.82560226824836       25.92547087723487
N           22.76082345236411       76.86770963445697       26.34603101663815
C           24.54014530626994       77.24549020821875       28.68067122732205
C           25.41515924862727       77.37555998530264       29.82697165537557
C           25.02144002167950       78.49962326503680       30.48064168799634
C           23.91231415610877       79.04079218659916       29.72333249963559
C           22.18703318215478       80.74619016283660       29.35879106418194
C           21.52646520282068       81.97277705255304       29.72922769077114
C           20.56583106597902       82.19319977487046       28.77930904950977
C           20.65603983497909       81.07746506206908       27.85492811393277
C           19.88839794132397       79.87781702631661       25.85431077999353
C           19.01230683566674       79.74573718647449       24.72079727909497
C           19.36779061793205       78.58051676734027       24.09117006254591
C           20.45842190938217       78.02511689113612       24.86594654772993
C           22.20746687979231       76.33723985175875       25.22040796009877
C           22.90722176429461       75.13652033038734       24.82433165362814
C           23.90384529668957       74.95807483462474       25.73367937896672
C           23.79710811281369       76.04964278013946       26.67423113612836
C           24.63023265565108       76.21524115415382       27.76417035310738
H           25.40799002994421       75.48179858434156       27.91170306092597
C           23.24327986719610       80.19811861672150       30.06631795268509
H           23.57537679068508       80.72017250766952       30.95082414634604
C           19.84639715111629       80.93545908965710       26.74594666696688
H           19.12246413817524       81.71268442849859       26.55514096960007
C           21.13104058879846       76.86330768716982       24.52995432757857
H           20.80526589932228       76.33582855316878       23.64652368087642
C           25.56574957436611       79.10939240604888       31.72674008153367
H           26.39283485642783       78.52091950092141       32.11619229313187
H           24.79308118248055       79.16457671124158       32.49372478115495
H           25.92494592858847       80.12093385086681       31.53511762024511
C           26.50889085983230       76.42054044949658       30.16253350758353
H           27.23630707426630       76.37005425566340       29.35190528946310
H           26.10784832418222       75.41906012446067       30.31981168734577
H           27.02629718774238       76.72760931512990       31.06808154932765
C           21.81797556936301       82.76702547080099       30.95432649356938
H           22.68152817495409       83.41696459578972       30.80223084020845
H           22.03387798920859       82.11021880936663       31.79553586459977
H           20.96160056884709       83.38821018697458       31.20852043222067
C           19.60617894042733       83.27056194276231       28.68262380155371
H           18.64112951593751       83.00310898375028       28.26783602544840
C           19.82050467150336       84.52991154822531       29.04983516893695
H           20.77275590841693       84.86363499934515       29.42353647820142
H           19.05234967506417       85.28051794990736       28.96343193751392
C           17.89932955769154       80.67525076858709       24.38364777937885
H           18.26931846024882       81.54373281487732       23.83616961364372
H           17.40837650980847       81.03217281322647       25.28768940626837
H           17.16244850929681       80.16695843811631       23.76491179742759
C           18.79642279481335       77.96353426632105       22.91482622932925
H           18.80091621649402       76.87939456979829       22.90584862270512
C           18.28951810981641       78.61216234732268       21.87120249183272
H           18.30077592579124       79.68593640499216       21.80311889747087
H           17.86543248192335       78.08518513847288       21.03257436777571
C           22.55013494918376       74.30712196410650       23.63843511195000
H           22.61179558196490       74.89704777552913       22.72340647140174
H           21.53144516747498       73.92835266986766       23.72692073728401
H           23.22281210469370       73.45830657405116       23.54385808542182
C           24.92984781960515       73.88005840141852       25.81003667367704
H           25.93352974129906       74.30284114336892       25.76179559771587
H           24.81446032335624       73.17636375848669       24.98927290738873
H           24.83990192112421       73.33099605842828       26.74767252343474
O           20.72608208000050       77.28668565701538       28.45395024429214
H           19.92325791442159       77.47752534313751       27.95666320046347
H           21.02439285819956       76.41129224161477       28.18382221453598
C           26.06679798669009       82.11942514862830       25.35557845905158
H           25.72638678031121       82.93435934707026       24.71685450339016
H           26.98024527163565       81.70837095600305       24.92591648511836
H           26.29379306933672       82.51970425176124       26.33861560620425
N           24.54112524598099       80.38356680489730       24.39144618684664
H           24.83257685987251       80.51126942569657       23.43629073327005
C           25.02165888615274       81.07149461292275       25.47470924925439
C           23.60904938100345       79.51286615931217       24.83935841530166
H           23.06352569803062       78.84160210526646       24.20886276548940
N           23.47030180516840       79.60750279120091       26.13942167959902
C           24.34274435544104       80.57270598245196       26.54932196714245
H           24.42218119037388       80.84102883897691       27.58251085293550
