87
 energy: -124.400078787263 gnorm: 0.368206986811 xtb: 6.7.1 (edcfbbe)
Fe          11.14000000000000       24.00400000000000        1.93800000000000
N           11.60400000000000       25.93300000000000        2.15700000000000
N           12.38300000000000       23.86400000000000        0.41600000000000
N           10.67600000000000       22.08300000000000        1.73500000000000
N            9.91300000000000       24.11700000000000        3.48100000000000
C           11.15900000000000       26.79200000000000        3.13200000000000
C           11.70800000000000       28.12200000000000        2.93300000000000
C           12.44900000000000       28.06300000000000        1.79700000000000
C           12.40600000000000       26.69900000000000        1.34500000000000
C           13.10300000000000       24.85800000000000       -0.15800000000000
C           13.94000000000000       24.32700000000000       -1.23700000000000
C           13.68300000000000       23.00500000000000       -1.33100000000000
C           12.72900000000000       22.72000000000000       -0.27500000000000
C           11.23200000000000       21.15700000000000        0.89700000000000
C           10.69500000000000       19.85000000000000        1.12500000000000
C            9.81900000000000       19.93600000000000        2.13000000000000
C            9.77900000000000       21.33000000000000        2.50400000000000
C            9.08500000000000       23.13300000000000        3.98900000000000
C            8.34000000000000       23.61700000000000        5.13500000000000
C            8.74900000000000       24.89300000000000        5.34600000000000
C            9.68500000000000       25.20499999999999        4.29100000000000
C           10.28500000000000       26.45000000000000        4.14400000000000
H           10.04700000000000       27.21400000000000        4.88400000000000
C           13.08000000000000       26.19900000000000        0.23400000000000
H           13.63400000000000       26.91000000000000       -0.37900000000000
C           12.19900000000000       21.45500000000000       -0.04300000000000
H           12.57700000000000       20.63300000000000       -0.65200000000000
C            9.03800000000000       21.82800000000000        3.52800000000000
H            8.35100000000000       21.14500000000000        4.02700000000000
C           11.45600000000000       29.28400000000000        3.83500000000000
H           11.81000000000000       28.79600000000000        4.76800000000000
H           10.34700000000000       29.23200000000000        3.80000000000000
H           11.78700000000000       30.34500000000000        3.83500000000000
C           13.21900000000000       29.18500000000000        1.12900000000000
H           12.72200000000000       29.11100000000000        0.13800000000000
H           14.18900000000000       28.64500000000000        1.08600000000000
H           13.39100000000000       30.25700000000000        1.36700000000000
C            8.38200000000000       25.85000000000000        6.44400000000000
H            7.31400000000000       25.75700000000000        6.15300000000000
H            8.56000000000000       26.87300000000000        6.83900000000000
H            8.60900000000000       25.09500000000000        7.22700000000000
C            7.36400000000000       22.79400000000000        5.92200000000000
H            7.67300000000000       22.29100000000000        6.84800000000000
C            5.93700000000000       23.39699999999999        5.93700000000000
H            5.54200000000000       23.92000000000000        5.05300000000000
H            5.30300000000000       23.30900000000000        6.83200000000000
C            9.04600000000000       18.84900000000000        2.83100000000000
H            8.02300000000000       19.22900000000000        2.62400000000000
H            9.34100000000000       19.15000000000000        3.85900000000000
H            9.04300000000000       17.74100000000000        2.74500000000000
C           11.21900000000000       18.57800000000000        0.47400000000000
H           12.27100000000000       18.57100000000000        0.25200000000000
C           10.05600000000000       17.73900000000000       -0.13500000000000
H            9.02300000000000       17.87900000000000        0.21700000000000
H           10.25500000000000       16.99800000000000       -0.92300000000000
C           14.18600000000000       21.96400000000000       -2.27300000000000
H           13.93800000000000       22.65900000000000       -3.10400000000000
H           14.05700000000000       20.91900000000000       -2.62700000000000
H           15.24000000000000       22.13300000000000       -1.96500000000000
C           14.80900000000000       25.22100000000000       -2.07100000000000
H           14.29200000000000       24.86700000000000       -2.98800000000000
H           15.68100000000000       24.56200000000000       -1.87200000000000
H           15.15100000000000       26.26600000000000       -2.23100000000000
C           14.33000000000000       22.02100000000000        6.12200000000000
H           14.80600000000000       22.79500000000000        6.76100000000000
H           15.08900000000000       21.25300000000000        5.86000000000000
H           13.49500000000000       21.55200000000000        6.68600000000000
N           14.60600000000000       23.31300000000000        4.00000000000000
H           15.59500000000000       23.41100000000000        4.10800000000000
C           13.79900000000000       22.66200000000000        4.86600000000000
C           13.86600000000000       23.79800000000000        2.98700000000000
H           14.26900000000000       24.37700000000000        2.15700000000000
N           12.61100000000000       23.46100000000000        3.17100000000000
C           12.55800000000000       22.73200000000000        4.32900000000000
H           11.61900000000000       22.31900000000000        4.67500000000000
C           10.18500000000000       23.95700000000000       -2.06600000000000
H           10.02600000000000       23.23200000000000       -2.89300000000000
H           11.25300000000000       23.92100000000000       -1.76200000000000
H            9.93500000000000       24.97500000000000       -2.43400000000000
C            9.30700000000000       23.60600000000000       -0.89500000000000
H            9.56800000000000       22.58400000000000       -0.54800000000000
H            8.24900000000000       23.60000000000000       -1.23200000000000
S            9.50500000000000       24.77900000000000        0.46600000000000
C            7.87800000000000       24.65000000000000        1.21900000000000
H            7.67100000000000       23.61200000000000        1.55700000000000
H            7.09300000000000       24.93600000000000        0.48700000000000
H            7.81000000000000       25.31900000000000        2.10300000000000
87
 energy: -124.557918636927 gnorm: 0.214567551406 xtb: 6.7.1 (edcfbbe)
Fe          11.12949672062950       24.00063794881157        1.94148712160307
N           11.61116931119408       25.94065351365701        2.15927173626899
N           12.37855437617276       23.85841353543843        0.42800720284957
N           10.66906469487841       22.06390264140338        1.73554195382956
N            9.90320744078049       24.11493295562379        3.48407910983972
C           11.16473725592245       26.79479934589055        3.12837230253422
C           11.71219349692626       28.12485938165864        2.91848652368752
C           12.45284530652782       28.06814384276473        1.79854018535189
C           12.40277602629672       26.69807398035354        1.33975321596985
C           13.09355413511545       24.86052095896288       -0.14055886657809
C           13.91239319533322       24.34433892641283       -1.21144742985917
C           13.65797008649642       23.00753638304005       -1.29865918176937
C           12.71386713645166       22.72034779376634       -0.25710918015628
C           11.24283145889794       21.15132649867853        0.89992587741292
C           10.71904464644484       19.82498830142325        1.12127281397518
C            9.82367457997794       19.92680614063190        2.12471430709222
C            9.78511713320323       21.32405290868902        2.50115252128516
C            9.08625325321128       23.13495343417052        3.99088992532147
C            8.33603559322012       23.61774624805941        5.13109845381792
C            8.76922297439986       24.90124178097319        5.32868736700960
C            9.70216027678688       25.20222793090230        4.28456639886268
C           10.29339608789613       26.44872760007814        4.14108560151937
H           10.04555559541090       27.20738405443647        4.87781623962698
C           13.07636475792496       26.19749536900110        0.23670536986292
H           13.63501461239375       26.90091750659908       -0.37379787313639
C           12.20044393836385       21.45600314785256       -0.04200126188241
H           12.57656319776842       20.64180991423781       -0.65306751604123
C            9.03071099729124       21.83084827104942        3.52946652127044
H            8.34962420979429       21.15165581198939        4.03156876548798
C           11.43504188476599       29.26279289148028        3.83189231024358
H           11.78759400721414       28.82121662234823        4.78071805792825
H           10.33839625880907       29.25860961230243        3.82748588623367
H           11.79497451030963       30.30329944340950        3.86196072760302
C           13.22789125761694       29.15427839156540        1.10175754392056
H           12.74778725788988       29.12915409791988        0.11589760901844
H           14.21030998590583       28.66986322087485        1.05734897768654
H           13.36092506726619       30.21134592938657        1.39441629925698
C            8.34971552201505       25.81273703634709        6.45101689943848
H            7.28194587123812       25.77261151191063        6.20494116127881
H            8.58837002990236       26.83880968286263        6.78534861511782
H            8.57860017740149       25.11560264949839        7.26741120111840
C            7.31682347866631       22.88242137151903        5.93979370820595
H            7.65277773220811       22.30425901552573        6.81701771309846
C            5.98988833411874       23.38087960144496        5.94266631926890
H            5.57566842711903       23.90729238785378        5.07763644310674
H            5.32468179265743       23.27880654860504        6.80449588999546
C            9.03066286218167       18.87887888798823        2.84901301545820
H            8.00445310532756       19.21159008088204        2.64875215257405
H            9.31189404473281       19.12660056818983        3.87999852053529
H            9.07259316596992       17.78349798756384        2.71996128973766
C           11.14217210645121       18.58419546862091        0.42154212294059
H           12.21826095223898       18.54236281276789        0.23775678318362
C           10.11104886974822       17.76894586612305       -0.11687979440517
H            9.07306430763449       17.89566008564056        0.20894078621492
H           10.27529637359710       17.00951159656551       -0.88540301999541
C           14.21085850768235       22.01237313202444       -2.28564659043510
H           13.97759364464844       22.63889000646567       -3.15652373538535
H           14.02745735729834       20.95862348784821       -2.57189872569870
H           15.26849449992669       22.11702934206687       -2.00867702281360
C           14.81491450465947       25.17177477728183       -2.09313467442125
H           14.33280973309276       24.87656718024731       -3.03426898415434
H           15.71841344579084       24.57310349454154       -1.91909700461432
H           15.10828239300337       26.23453832807220       -2.18314346915558
C           14.32816328839829       22.02229693281308        6.11890502046201
H           14.80127759157898       22.78425568850659        6.75522998713058
H           15.07942331087673       21.26026509335686        5.86702593800847
H           13.50738212298513       21.55687848780205        6.67771824784798
N           14.61385366633810       23.31616774468274        4.00241927841010
H           15.60581793673751       23.41502316548737        4.10911922472341
C           13.80034346613623       22.65501584347398        4.86972500808046
C           13.86457473546954       23.79755148363825        2.98944514137109
H           14.26167620554221       24.37122395063958        2.16619751639735
N           12.60853899177536       23.46119278920412        3.16742967116116
C           12.55334215899949       22.73602434733115        4.32628632481655
H           11.62214762874056       22.32526699663148        4.67224831860049
C           10.18586594403212       23.95936907963713       -2.07092567611308
H           10.02986958438627       23.24070912181702       -2.88676582961681
H           11.23878533717074       23.92587949655270       -1.77219704087906
H            9.94192251829999       24.96617539280847       -2.43307096887358
C            9.30148145710171       23.59474173295774       -0.89998397818305
H            9.56248213092562       22.58845254595611       -0.54446982729273
H            8.25082793300715       23.60080588383648       -1.22327874526434
S            9.49952181678210       24.78253247035579        0.46362045794237
C            7.86622975033076       24.64390079588876        1.22086900780606
H            7.67487377910893       23.61732140790925        1.55623485671142
H            7.09882850687867       24.93640448921517        0.49225402800325
H            7.81626617359840       25.31207581519771        2.09001882160806
87
 energy: -124.638243565961 gnorm: 0.168956503779 xtb: 6.7.1 (edcfbbe)
Fe          11.12440926789376       23.99698984860835        1.94447953014492
N           11.61584393296630       25.95218493107083        2.16291912936902
N           12.37627895220413       23.85288664065810        0.43512505725949
N           10.66083364504598       22.04087565260733        1.73793053404886
N            9.89456150316457       24.11153642085500        3.48954597751139
C           11.16995973946110       26.79818367659690        3.12887878004541
C           11.71596065279917       28.13349360631480        2.92536879227877
C           12.45354142072561       28.08028693285967        1.80601142772698
C           12.39921048713992       26.69918236896684        1.33911200332540
C           13.08797265260985       24.86347119111516       -0.13018582631004
C           13.89141079202214       24.36247139693554       -1.19560588604176
C           13.64041110385138       23.00839987722276       -1.27574806514920
C           12.70328824962422       22.72080432804107       -0.24549269946971
C           11.24881253259954       21.14172885332124        0.90379080959517
C           10.73372623401227       19.79676425813794        1.12135387678965
C            9.82329144449927       19.91796172056504        2.12209523964611
C            9.79329582634281       21.31861722020013        2.49968873838516
C            9.08513521008684       23.13639816018247        3.99096986365614
C            8.32838902425836       23.61780481601243        5.12491256990340
C            8.78184846822397       24.90917332747778        5.31564360413047
C            9.71738563078894       25.19775676209238        4.28255040500924
C           10.30163610820862       26.44688183274623        4.14066994428727
H           10.04349448244268       27.19926105162278        4.87341188303539
C           13.07294682542059       26.19890407072849        0.24182299236681
H           13.63645045840634       26.89295052007213       -0.36678731470882
C           12.20104960761947       21.45286085322912       -0.04044303925063
H           12.57614575040136       20.64806084966909       -0.65430684626303
C            9.02349523047823       21.83300034378085        3.52913551564557
H            8.34815577045502       21.15801287216242        4.03439313422448
C           11.41260065591737       29.23548297708782        3.88278972156936
H           11.77208306057281       28.84155834776675        4.83446387070542
H           10.32784829211768       29.28353789252084        3.86496223439323
H           11.80844508578600       30.25877377707081        3.74595555968753
C           13.23591257596412       29.12265296257072        1.07539414569340
H           12.77509168207501       29.14746222487212        0.09219270472156
H           14.23280584652765       28.69533994786998        1.02623048806053
H           13.32519232120842       30.16197238963269        1.42979356128852
C            8.31299070623621       25.76858981578344        6.45840569043207
H            7.24735558619796       25.78767141649169        6.25928199793526
H            8.62446294835742       26.79841721691448        6.71747178505867
H            8.54562387269818       25.13311207644772        7.30891878895085
C            7.26888392072790       22.97146428010551        5.96062795671526
H            7.64094267573963       22.32649772797507        6.78609352178646
C            6.05195513393859       23.36725884158374        5.94579044660154
H            5.61328076874499       23.91119139371208        5.10653031198746
H            5.34470075827860       23.23321855862291        6.76879938761023
C            9.01474369993999       18.90901040801560        2.86742654666428
H            7.98377003394387       19.19347379685313        2.67529304265411
H            9.28074326323665       19.10245029093026        3.90281361915291
H            9.10833817870722       17.82786192835180        2.68724404672089
C           11.07256618547230       18.58393350623151        0.37595589687492
H           12.16487768017942       18.51503198682198        0.21166999248482
C           10.16864430767148       17.81341187980867       -0.09875581293132
H            9.11784452200333       17.91895028392314        0.19092656384460
H           10.30219775362757       17.02004044306095       -0.83751077492102
C           14.23893509552733       22.06928140402657       -2.29896461209654
H           14.01910271432376       22.62322904363415       -3.20714755058250
H           13.98698925120524       21.00685859961818       -2.50189463772913
H           15.29738178872080       22.10647102453959       -2.05188581498093
C           14.81945860210374       25.11576963427015       -2.11632978525604
H           14.37467631597392       24.88263367561825       -3.08024816064531
H           15.75314297572430       24.58102627330255       -1.96571985536949
H           15.05288664400265       26.19934940115391       -2.12099131421967
C           14.32572602104270       22.02293622159139        6.11571669571100
H           14.79687304263599       22.77573926356438        6.74964645998935
H           15.07149583546131       21.26535746072707        5.87255012098152
H           13.51599541782982       21.56001236351675        6.67026320027583
N           14.62111816740406       23.31934125760318        4.00502197173618
H           15.61549575611728       23.41884756593386        4.11014979666989
C           13.80065337901498       22.64821305954517        4.87289608130468
C           13.86360191201822       23.79693196829783        2.99303905950362
H           14.25470182769471       24.36629084349097        2.17472238605703
N           12.60780281496547       23.46221450428182        3.16542772973270
C           12.55070125674195       22.74024539985812        4.32323754980324
H           11.62601305183894       22.33061181779217        4.67117214712632
C           10.18635697200112       23.96079616747833       -2.07709336358747
H           10.03277423446519       23.24765271186064       -2.88402103610965
H           11.22689684723695       23.93057245019047       -1.78044687358201
H            9.94569042780904       24.95926265075559       -2.43130119610816
C            9.29575835790683       23.58371730855622       -0.90633162134325
H            9.55799378672504       22.59315121919257       -0.54074025359127
H            8.25145508854454       23.60254497621650       -1.21529059660474
S            9.49695969681803       24.78598159553550        0.46348508034727
C            7.85301944260197       24.63841557656649        1.22345791938510
H            7.67908394192943       23.62076101314568        1.55510447224484
H            7.10273348543293       24.93677644557260        0.49622618679461
H            7.82268332855884       25.30673634768489        2.07928438920943
87
 energy: -124.679865102514 gnorm: 0.059013311296 xtb: 6.7.1 (edcfbbe)
Fe          11.12185436657831       23.99532071409111        1.94631683072835
N           11.61870652847660       25.95141076490565        2.16541753564362
N           12.37518269430843       23.85158686118641        0.44200903515834
N           10.66010831257091       22.03548598883942        1.74444649496195
N            9.89499089748487       24.11206840147741        3.49031136910712
C           11.17589876415026       26.79542032546208        3.12972360608952
C           11.71455221149173       28.13207772805186        2.92721131884394
C           12.45653701185886       28.07780828731368        1.80418032735418
C           12.39657926797787       26.69668283919216        1.34010273165387
C           13.08583856989661       24.86303016083446       -0.12641577555639
C           13.88610182798949       24.36435215795280       -1.19860906092955
C           13.63994664357159       23.01466737337679       -1.27489694996559
C           12.70172647311682       22.72211489064993       -0.24171570804295
C           11.25263342228978       21.14067418053396        0.91325660001255
C           10.73689406240592       19.80207363964817        1.13729610200923
C            9.82092366091174       19.92169477360497        2.13388343188009
C            9.79493943260270       21.31985835820862        2.50666332809684
C            9.08407002502681       23.13979613788034        3.98724962379293
C            8.33948364344215       23.62758804388819        5.11939516256359
C            8.77897504089923       24.91411992198626        5.31418761023002
C            9.72634409085670       25.19711873329723        4.28663649354606
C           10.31137003728261       26.44431105666618        4.14244355246138
H           10.04354752554196       27.19533874287844        4.87019244794780
C           13.07026666314155       26.19799074930510        0.24609182795469
H           13.64136976115647       26.88583698589128       -0.35958962775973
C           12.20128386539129       21.45170791654104       -0.03454802757401
H           12.57512263382889       20.65263204270444       -0.65532440138631
C            9.01832127749234       21.83654806141902        3.52933445417484
H            8.34313623111398       21.16563027765039        4.03901066693121
C           11.39968643882755       29.22059074370946        3.89653722860190
H           11.74877917074379       28.87027829269085        4.86847712251731
H           10.31351715545635       29.31181992578364        3.90731596185471
H           11.82670154441935       30.21823111674744        3.70114672473561
C           13.24213141734027       29.10160065272125        1.05884920098700
H           12.80782637545574       29.16453550156773        0.06052369093378
H           14.26167937111694       28.71972607463440        0.98744216306736
H           13.28708377376416       30.12159210004159        1.47284278277920
C            8.29097483978884       25.74528772527461        6.46134862016672
H            7.20898882492760       25.80044219021381        6.32211349891116
H            8.66504776691018       26.77224564129491        6.64873676745682
H            8.50395567490722       25.15085917950188        7.35338578406166
C            7.31399076143509       23.00559770823969        5.98206380057224
H            7.66899261868759       22.35274377506877        6.78954996013840
C            6.02110995410061       23.35259778804255        5.93429450681248
H            5.62367062460398       23.95242074248583        5.12073041538568
H            5.31707896148304       23.16417962479265        6.74108574694216
C            9.00339551168409       18.92670587258170        2.88001270987918
H            7.95579310073282       19.17498571495207        2.70742164826202
H            9.24110009724534       19.07688938107499        3.93444205021286
H            9.14735428361816       17.86157715604262        2.64699043158385
C           11.08270867325322       18.62503910810925        0.35878571220629
H           12.15634594373538       18.51706016620387        0.17106971007939
C           10.15665289615403       17.77814517532182       -0.09944935776857
H            9.11203379106721       17.93361980315733        0.15605069285516
H           10.32585586438176       16.97789928885437       -0.80685939992317
C           14.25430737174615       22.10639054834136       -2.30290990422126
H           14.07012176320089       22.61165306868008       -3.25718207815748
H           13.94140643135757       21.04602656805153       -2.42906254744536
H           15.32922727518223       22.10349199144547       -2.10152661139895
C           14.81885118484927       25.08198088194800       -2.12860886073840
H           14.42447131040567       24.88256742817610       -3.13011084100216
H           15.78596424290247       24.58338772051670       -2.02028060386083
H           14.99753252061156       26.17538859879540       -2.05663963118347
C           14.32393121256259       22.02208172324258        6.11263517412575
H           14.79460598024446       22.77210117392359        6.74773013039381
H           15.06861738313598       21.26362923461323        5.87557331675121
H           13.51564932111759       21.55889202587849        6.66611570894632
N           14.62428964653217       23.32155057701864        4.00685900674973
H           15.61998598613828       23.42290027196697        4.11195070253673
C           13.80123738214113       22.64685570808705        4.87101747453190
C           13.86418046769420       23.79762322147131        2.99631332802530
H           14.25179657751921       24.36663378691888        2.17835706284432
N           12.60851926141643       23.46373143313737        3.16545431801720
C           12.55197461422910       22.74317680294669        4.32221253288356
H           11.62698674364056       22.33630581168832        4.67243974173942
C           10.18097930569025       23.96085779877645       -2.08077201883163
H           10.03306576319552       23.25085294120883       -2.88973218824471
H           11.22142521405805       23.93597609139766       -1.78748741507466
H            9.94370647326122       24.95968028358787       -2.43287606703952
C            9.29168731739793       23.58053815389900       -0.90952266508897
H            9.55339071187111       22.59356621872877       -0.53566585467236
H            8.24542092257063       23.60350842619672       -1.20829020956844
S            9.49463430105548       24.78695997974796        0.46059449263141
C            7.84869059877580       24.63427823153524        1.22165409090347
H            7.68174196090654       23.61676913524662        1.55525224218553
H            7.10002133215186       24.93718021549938        0.49627728340119
H            7.82941904374137       25.30484738278088        2.07406171662257
87
 energy: -124.696874114731 gnorm: 0.048648469313 xtb: 6.7.1 (edcfbbe)
Fe          11.12398440752507       23.99233659339236        1.94852972614638
N           11.61991955352765       25.94544306856649        2.16926580351688
N           12.37902963076111       23.84826019917636        0.44014340972435
N           10.66464485172460       22.03039984203859        1.75304065674804
N            9.89551227016916       24.11392500308516        3.49820187173575
C           11.18090318232688       26.78832762744145        3.13262997638164
C           11.71261262623998       28.12648752986555        2.92988473889595
C           12.45913678761142       28.07075102168367        1.80242829636334
C           12.39483572538631       26.68925164727434        1.34395218686390
C           13.08854299412400       24.86170245781464       -0.13112364006336
C           13.88825267380162       24.36302472920580       -1.21108960238690
C           13.64658829701153       23.01691887573553       -1.28340537110910
C           12.70552077167073       22.71823693516413       -0.24502482481257
C           11.25720924490577       21.13446577793069        0.92473393404137
C           10.72888256004855       19.80004720118627        1.14832410666205
C            9.80994531439671       19.92579684620431        2.14617325865521
C            9.79711894745978       21.32223001476751        2.51552339105053
C            9.07948307060131       23.14252098476985        3.98850082486132
C            8.33209085047689       23.63259795781317        5.11573587462054
C            8.76630517321780       24.91456625788500        5.32388878590239
C            9.72670911569329       25.19752808538879        4.29809723844770
C           10.31788054491387       26.44054976141210        4.14837559321699
H           10.04526356452569       27.19282348982498        4.87086579521183
C           13.07054292609059       26.19441886910285        0.25007771582900
H           13.64877686137452       26.87979502881858       -0.34976805442152
C           12.20362592930175       21.44666158577790       -0.02773681263886
H           12.57429976322381       20.65164587319350       -0.65464513506421
C            9.01226765003975       21.84070522624243        3.53098002650478
H            8.33320129393526       21.17481732552870        4.04125613036484
C           11.39312708300824       29.21278835771425        3.89665218439911
H           11.73476315504974       28.90944294719128        4.88846082844971