78
 energy: -115.957839198945 gnorm: 0.287652010396 xtb: 6.7.1 (edcfbbe)
Fe          57.77699999999999       21.47700000000000       38.30800000000000
N           59.16899999999999       21.80600000000000       36.89200000000000
N           58.56500000000000       19.61500000000000       38.57500000000000
N           56.58199999999999       21.17400000000000       39.90400000000000
N           57.04900000000000       23.27700000000000       38.09200000000000
C           59.32800000000000       22.96300000000000       36.16700000000000
C           60.49200000000000       22.86700000000000       35.32299999999999
C           61.01300000000000       21.64200000000000       35.50300000000000
C           60.20600000000000       20.98100000000000       36.50600000000000
C           59.65499999999999       19.05400000000000       37.94400000000000
C           59.85000000000000       17.70100000000000       38.40000000000000
C           58.86999999999999       17.43400000000000       39.27800000000000
C           58.14200000000000       18.66100000000000       39.48100000000000
C           56.46700000000000       20.03100000000000       40.67200000000000
C           55.53599999999999       20.25100000000000       41.76299999999999
C           55.16099999999999       21.55100000000000       41.70199999999999
C           55.75599999999999       22.10100000000000       40.49700000000000
C           56.08800000000000       23.91000000000000       38.86100000000000
C           55.75100000000000       25.17700000000000       38.27500000000000
C           56.62300000000000       25.38400000000000       37.26900000000000
C           57.46299999999999       24.21900000000000       37.17500000000000
C           58.52300000000000       24.08100000000000       36.28600000000000
H           58.73700000000000       24.92400000000000       35.62900000000000
C           60.43000000000000       19.69200000000000       36.98700000000000
H           61.27900000000000       19.14300000000000       36.58000000000000
C           57.17799999999999       18.86000000000000       40.46299999999999
H           56.96300000000000       18.02199999999999       41.12600000000000
C           55.50800000000000       23.37500000000000       39.99900000000000
H           54.80300000000000       24.00100000000000       40.54600000000000
C           62.23899999999999       21.11900000000000       34.75800000000000
H           63.14500000000000       21.65500000000000       35.11300000000000
H           62.11900000000000       21.29600000000000       33.66800000000000
H           62.36299999999999       20.03300000000000       34.95500000000000
C           61.13000000000000       23.87900000000000       34.41700000000000
H           60.55500000000000       24.82900000000000       34.45800000000000
H           61.12799999999999       23.50200000000000       33.37200000000000
H           62.17200000000000       24.07500000000000       34.74800000000000
C           60.98000000000000       16.77100000000000       38.01600000000000
H           61.83199999999999       17.36600000000000       37.62300000000000
H           60.63600000000000       16.06900000000000       37.22700000000000
H           61.31799999999999       16.20300000000000       38.90900000000000
C           58.60599999999999       16.22700000000000       39.94400000000000
H           58.21299999999999       16.30700000000000       40.96600000000000
C           58.77799999999999       14.88200000000000       39.47499999999999
H           59.16600000000000       14.68900000000000       38.46400000000000
H           58.52400000000000       14.02900000000000       40.12100000000000
C           55.10300000000000       19.17000000000000       42.76000000000000
H           55.97900000000000       18.54300000000000       43.02999999999999
H           54.32599999999999       18.52400000000000       42.29900000000000
H           54.70399999999999       19.64700000000000       43.68100000000000
C           54.38700000000000       22.31400000000000       42.58000000000000
H           54.71500000000000       23.34800000000000       42.74999999999999
C           53.19400000000000       21.93500000000000       43.31199999999999
H           52.77799999999999       20.92100000000000       43.21500000000000
H           52.69100000000000       22.65700000000000       43.97299999999999
C           54.64200000000000       26.17900000000000       38.63600000000000
H           55.09599999999999       27.08900000000000       39.08400000000000
H           53.94800000000000       25.72200000000000       39.37300000000000
H           54.08500000000000       26.46900000000000       37.71899999999999
C           56.62899999999999       26.60300000000000       36.39200000000000
H           56.42500000000000       27.50400000000000       37.00900000000000
H           55.83900000000000       26.51100000000000       35.61600000000000
H           57.62400000000000       26.71400000000000       35.91000000000000
O           60.09800000000000       21.95800000000000       39.79900000000000
H           60.75099999999999       22.27500000000000       39.17500000000000
H           60.21699999999999       21.84400000000000       40.67300000000000
C           53.02300000000000       20.36499999999999       35.16300000000000
H           52.44400000000000       19.43000000000000       35.32000000000000
H           53.11900000000000       20.55100000000000       34.07200000000000
H           52.48300000000000       21.20800000000000       35.64500000000000
N           55.33900000000000       19.23200000000000       35.39999999999999
H           55.15100000000000       18.46300000000000       34.78899999999999
C           54.42800000000000       20.21500000000000       35.79399999999999
C           56.50800000000000       19.53900000000000       36.01100000000000
H           57.43700000000000       18.99100000000000       35.85699999999999
N           56.33800000000000       20.57100000000000       36.79200000000000
C           55.03800000000000       21.11400000000000       36.70400000000000
H           54.70499999999999       21.99200000000000       37.23800000000000
78
 energy: -116.019950911555 gnorm: 0.110811676269 xtb: 6.7.1 (edcfbbe)
Fe          57.81602954022335       21.47119046720151       38.33366374529811
N           59.18017528358633       21.80757652575036       36.89036162412395
N           58.57720211463371       19.60987429178602       38.59094102662976
N           56.58037474371729       21.17520423400703       39.91098555935510
N           57.07270096424359       23.29063559604735       38.11308302950690
C           59.33386336264777       22.96476330072992       36.17475646436013
C           60.49359864522798       22.86912305463375       35.32116645465024
C           61.01861831465209       21.63160317850122       35.50476489924222
C           60.19988738606907       20.97529167804072       36.49903350100453
C           59.65154132362859       19.05450716103343       37.94328440580389
C           59.85740114620840       17.69944704523710       38.38682174166068
C           58.87106616374025       17.42235486768282       39.28678752216896
C           58.13041015843196       18.65814415990415       39.47147517644230
C           56.46312986246562       20.03357060933372       40.66696857678353
C           55.53495391766312       20.23799987050627       41.75934354427057
C           55.13903682640715       21.54617025114439       41.69825889418158
C           55.76953280798104       22.10273250462357       40.50566621359886
C           56.07407846336385       23.89710378431001       38.84727142758956
C           55.74620078821061       25.18194021651090       38.27826289657529
C           56.61995530299194       25.38609338513614       37.25980856134686
C           57.45435947045661       24.21298945141772       37.16892334028677
C           58.51463684794592       24.07517909640053       36.28537130128431
H           58.73157148771207       24.91658050400778       35.63570307350236
C           60.42163375948656       19.69528789008987       36.98493368752155
H           61.26930375216374       19.15072360306096       36.58267966210521
C           57.16633125460144       18.85915726449382       40.44673788839125
H           56.96198704920190       18.03032015815579       41.11594352468774
C           55.50661145478645       23.36584285666400       39.99460573154870
H           54.80585614163297       23.99088477142099       40.53886399924588
C           62.22972604585828       21.11352131766761       34.77369065471717
H           63.13065386945907       21.64390961039108       35.10847226437438
H           62.11970161483774       21.28887783896537       33.69581058425526
H           62.36655559446044       20.04344149817660       34.94895666844198
C           61.11341577382276       23.88768034580189       34.42013545503188
H           60.56147565152167       24.83081133909027       34.44944257138026
H           61.12894957135558       23.51647529030882       33.38758593074757
H           62.14854968922081       24.07530734837430       34.73471522518371
C           60.97943701900793       16.78197797533998       38.00704643230162
H           61.82895245280756       17.35543680688793       37.62430498854999
H           60.65162095150952       16.07750423728768       37.23411316895220
H           61.30628993746394       16.21205678570281       38.88635448355546
C           58.60840279219134       16.19015459948748       39.95623465817599
H           58.20306484230149       16.28305371419625       40.96217062417529
C           58.78405491767089       14.92165928659205       39.49277678773201
H           59.15257291990316       14.71362202000207       38.49333498856345
H           58.53006541542588       14.06697498820651       40.11143157417676
C           55.11587119135655       19.18141006034205       42.75210991524870
H           55.96794233995883       18.55159402079438       43.02922161767027
H           54.34311523228164       18.53975922625249       42.30898716418923
H           54.71183839210174       19.64380307111275       43.66006340748523
C           54.34479966119592       22.31528260193885       42.60007207673689
H           54.68268389631478       23.34167328206812       42.75214316072978
C           53.23178062498006       21.93971041727882       43.29513885071285
H           52.80009549258143       20.94857482768060       43.20078094439150
H           52.72124063565106       22.64121050271621       43.94819849619271
C           54.65207781664025       26.16131329300276       38.64486910309954
H           55.08637961104294       27.07085703100121       39.07987872714637
H           53.95251589773825       25.72742367670187       39.36444324326915
H           54.09874386734064       26.45426684373740       37.74280609465269
C           56.63557309468487       26.59981328122657       36.38912917214004
H           56.42932142486804       27.49221402747355       36.99197156420827
H           55.85603711803245       26.51800236600453       35.62076500468601
H           57.60835670276699       26.72018360730535       35.90443625844681
O           60.05908220211235       21.96550979837705       39.76256745093520
H           60.74918500184169       22.26210610760170       39.17252129735638
H           60.21984840104292       21.83280582686070       40.68032724634790
C           53.03672089259526       20.35285940592918       35.17183540167951
H           52.45260176454113       19.43721452784936       35.31755369744853
H           53.11966330958295       20.54435677349373       34.09481941026234
H           52.50264185067762       21.18626001079388       35.63732942487439
N           55.32714988828808       19.26782813104114       35.40493629245660
H           55.14205450941697       18.48911781190671       34.79205879672797
C           54.41502711578507       20.23094336605612       35.78650627996980
C           56.49535034502701       19.55555643367864       36.03820697754026
H           57.41165168756157       19.00378445888781       35.88087923649102
N           56.35916125085422       20.59995492512779       36.80918346759859
C           55.05741424540776       21.07009873333379       36.67866230140359
H           54.72053714282922       21.94275477211395       37.21255338441973
78
 energy: -116.035291786346 gnorm: 0.042996103860 xtb: 6.7.1 (edcfbbe)
Fe          57.85174374476676       21.46567648219414       38.35629223290598
N           59.19152667285401       21.80970447443251       36.89472397305126
N           58.58469057544114       19.60728666997221       38.60181842280270
N           56.59310982182325       21.17909264447560       39.92397480546251
N           57.09256159966601       23.30415776778487       38.12875447933752
C           59.34122628337098       22.96547702308187       36.18649552951990
C           60.49388402326120       22.87013333054232       35.32226270055792
C           61.01947851647522       21.62513252530843       35.50625155227029
C           60.19603724559273       20.97350039764252       36.49740716582541
C           59.64722679905986       19.05586783690460       37.94660164401017
C           59.85754874891396       17.69885098374682       38.38068919688522
C           58.87288880532415       17.42223700769962       39.29648789993026
C           58.12449222740378       18.65957988027436       39.46441817436975
C           56.46384740367174       20.03796593767914       40.66280114341411
C           55.53710113099608       20.23530453083086       41.75391474823437
C           55.13179846058672       21.54491037403807       41.68796613634598
C           55.78183970561676       22.10211000364478       40.50672533632267
C           56.07657899597363       23.89026148435297       38.84117170542780
C           55.74394860462316       25.17959387756675       38.27666523029374
C           56.61595716475647       25.38343610124663       37.24978192784149
C           57.45425467237537       24.21060592517026       37.17104702497974
C           58.51225309737463       24.07038955538737       36.28954369935845
H           58.72341563655061       24.90576223299603       35.63650484358102
C           60.41364707773560       19.69763341705989       36.98546850179568
H           61.25605922779253       19.15348916340764       36.58164498131506
C           57.15447258092154       18.85807461710906       40.43087516570472
H           56.94783390377584       18.03217723670821       41.09648466913700
C           55.51031192265301       23.35851318917718       39.98894421224944
H           54.80097592355692       23.97638854605277       40.52341532869199
C           62.21984660481608       21.10513657600066       34.78911668153472
H           63.11738781817944       21.63389648018082       35.11421735278939
H           62.11454148414863       21.27908115305981       33.71758607766479
H           62.36544246266800       20.04327521297223       34.95344400471223
C           61.09413548645921       23.89703042996312       34.42282281225411
H           60.55177941055071       24.83475865118736       34.44700497417907
H           61.11787226146790       23.53075065333247       33.39602001425619
H           62.12627254123143       24.08416175707760       34.72428148003250
C           60.97627591811906       16.79246326576168       37.99625457091707
H           61.82749464216261       17.35417078845297       37.62309916379468
H           60.66493670235698       16.08773002635371       37.22671189872941
H           61.29376738973619       16.21797228022496       38.86659323893652
C           58.60667419603865       16.17606807839032       39.97531838682936
H           58.19318933110696       16.28102125269289       40.97220297562379
C           58.78392944941158       14.95515959370140       39.50862013997737
H           59.15312172910440       14.74238152003064       38.51996532519716
H           58.54317572064092       14.09272130989057       40.10904350116930
C           55.12786766268059       19.19583465388899       42.74280263928368
H           55.96783799470639       18.56544549166189       43.02600698037210
H           54.35649250463536       18.55310005877396       42.31415915376866
H           54.72359504605834       19.65700146996605       43.64091243938473
C           54.31933377619409       22.32025935483001       42.60184252467410
H           54.66525138817600       23.34201830519740       42.73739554485570
C           53.25053953136833       21.94222223364734       43.26638970653323
H           52.81808228227857       20.95980729653974       43.18351965474919
H           52.74430609438338       22.61937468908865       43.93666830350179
C           54.65960814158346       26.13722334653880       38.65477888180972
H           55.08319411438624       27.04701776791783       39.08349941488241
H           53.96074572920275       25.71296295057092       39.36724379183538
H           54.10513671349384       26.43091421436729       37.76203307926617
C           56.64076914051511       26.59393482396846       36.38086952155228
H           56.43350320827511       27.48179921198141       36.97606826585189
H           55.86897232485388       26.52055781891836       35.61351283314471
H           57.60140010062898       26.72094423014487       35.89378999055928
O           59.97012624382089       22.02608788735935       39.73157696474231
H           60.73586573243861       22.21065887813580       39.16593849727425
H           60.21183281462567       21.78534045142090       40.63970641720397
C           53.05569348007780       20.34426807393963       35.18550858923785
H           52.47887709781822       19.43250580268400       35.32828213949585
H           53.12842268876847       20.53290515655077       34.11408377489404
H           52.51784503417004       21.16939801789963       35.64059618389168
N           55.33006057671027       19.29944931831463       35.40804365936943
H           55.15087089460710       18.51881825247678       34.79306692023910
C           54.41591810042805       20.24973019836676       35.78277926015321
C           56.48803074436342       19.56775864700344       36.06364409755787
H           57.39064268712954       19.00518521802197       35.91826026221515
N           56.36381842338178       20.61261170654272       36.83869562535450
C           55.07671743695900       21.05191361442944       36.66529630383349
H           54.73008857016793       21.91485861309010       37.19959354829172
78
 energy: -116.038390495180 gnorm: 0.067269094805 xtb: 6.7.1 (edcfbbe)
Fe          57.87886073619157       21.47054700369719       38.37431767335798
N           59.19898165994986       21.81252991116395       36.90221921818706
N           58.59378186233678       19.61399883003053       38.61259002435132
N           56.61000213597656       21.18417562597172       39.92846294476932
N           57.11315843682732       23.31392042704909       38.13814491608231
C           59.34594725473115       22.96572347072315       36.19299123411992
C           60.49270628698553       22.86988416986355       35.32325812174442
C           61.01802932059866       21.62394006585153       35.50761295324408
C           60.19605528830732       20.97402427449821       36.49939165520103
C           59.64709916991258       19.05805133621002       37.95043690870781
C           59.85509172881412       17.70057061349371       38.38263968533275
C           58.87498672401371       17.43093786468219       39.30680811610607
C           58.12363086687098       18.66465648052649       39.46452037503479
C           56.46722916128826       20.04301945426668       40.65866800084915
C           55.53904773441985       20.24282677949195       41.74599498966183
C           55.13399849470874       21.55072484094761       41.67252521261702
C           55.79299920778395       22.10511363130752       40.50026007875976
C           56.08834712973697       23.88935356044565       38.83792643873641
C           55.74695270843815       25.17344265506584       38.26981998263010
C           56.61514584374557       25.37953478628242       37.23986703136234
C           57.46108995363304       24.21159224910178       37.17156383661654
C           58.51467496896500       24.06840894802995       36.28844981711664
H           58.71765645588697       24.89754962468438       35.62654260022480
C           60.41006726460174       19.69709089803709       36.98510898964706
H           61.24493674066481       19.14886027640689       36.57390793052876
C           57.14490004276296       18.85818898504537       40.42172123003962
H           56.92142828204570       18.02728137680441       41.07383632098325
C           55.51587002625016       23.35694914109622       39.98015010521272
H           54.78959308273066       23.96450574273446       40.50238903431760
C           62.21648540652546       21.09558604385375       34.79906338854004
H           63.11376208263577       21.62367101258070       35.12452522746592
H           62.11335789302328       21.26526288527591       33.72751873659973
H           62.36123306970456       20.03404067428950       34.96620637094857
C           61.07554089062842       23.90455728176083       34.42147980763721
H           60.52698021006129       24.83883237753944       34.44916329420281
H           61.09626339251120       23.54233066454907       33.39376423080267
H           62.10776356792178       24.10144934038755       34.71411709763444
C           60.97342497007792       16.79930097094532       37.98683859701081
H           61.82791208825481       17.36309569667699       37.62315461803126
H           60.66986116446326       16.10256498350735       37.20687885282138
H           61.28629570020020       16.21414877364750       38.85079036213362
C           58.60758916986201       16.18992983201918       40.00129173629701
H           58.18398053333154       16.29713032532213       40.99378864544826
C           58.80089989788399       14.96601429015392       39.52712928025042
H           59.16446075212731       14.76656566505108       38.53517248570256
H           58.55638822751875       14.09688998851561       40.11548206627907
C           55.13737437069597       19.21034916012638       42.74051766753089
H           55.97873684835612       18.58327558067068       43.02653954750300
H           54.36601093820109       18.56297554736432       42.31987974613785
H           54.73491851739885       19.68008390635219       43.63407939143721
C           54.31742409267715       22.33124343751756       42.58370452212562
H           54.65549169075864       23.35543518205728       42.71072994916963
C           53.25195298358066       21.92830714663675       43.26486496710791
H           52.82053987719334       20.94846766011278       43.16157497325123
H           52.73491748552404       22.59801056159041       43.93333321762797
C           54.65942135211402       26.11580257067313       38.66311735662287
H           55.07878048446876       27.02569367686602       39.09477690434569
H           53.96867750061856       25.68242763636691       39.37776159788559
H           54.09648056661730       26.40879950496828       37.77650088345952
C           56.64218280924189       26.58665623470471       36.36612856868191
H           56.43481486610070       27.47630627860531       36.95783797848701
H           55.87371548917444       26.51513211766172       35.59557598779538
H           57.60230751474094       26.71470572802054       35.87792845100705
O           59.86002145570257       22.11339376883336       39.70300679666443
H           60.68753485829865       22.12489697318781       39.12857841422629
H           60.17126462317520       21.71030880058364       40.57489664517541
C           53.07373419465587       20.33802609353557       35.19635294968786
H           52.51409959952097       19.41658127653259       35.34689155561631
H           53.13694404774854       20.52122631278282       34.12353000225920
H           52.52509559902130       21.15582953900586       35.65064819435586
N           55.35311480756187       19.31980726591096       35.41616365591530
H           55.18007413180344       18.54516699479042       34.79376682477372
C           54.43448971921781       20.26611912245402       35.78779969345943
C           56.49903384077084       19.57451199595211       36.09483574365299
H           57.39375545906309       18.99773458115589       35.97195791149191
N           56.37192971968394       20.62232539706273       36.86776731168658
C           55.09006824248981       21.05872541250478       36.68342144087597
H           54.73262472791267       21.91590070582376       37.21504092663246
78
 energy: -116.041095640604 gnorm: 0.049357850342 xtb: 6.7.1 (edcfbbe)
Fe          57.90581370222942       21.47364193007852       38.39202345354992
N           59.20544257561248       21.81609991312781       36.91301529292473
N           58.60437112227379       19.62425126815366       38.62665952814253
N           56.63292155615952       21.19089716333753       39.93412926616376
N           57.13633710220991       23.32696798816053       38.14828416587819
C           59.35041897149599       22.96640077578955       36.20314892394656
C           60.49000612195989       22.87053857539201       35.32679621062835
C           61.01447192424513       21.62428311195340       35.51090515310129
C           60.19523915451583       20.97645937375285       36.50409062189008
C           59.64595362864255       19.06123560020717       37.95575919477022
C           59.85055802397396       17.70328052870876       38.38652851028698
C           58.87689019629345       17.44458377782974       39.32061741979413
C           58.12387320445845       18.67298605248273       39.46676658982611
C           56.47261157589960       20.05070419862511       40.65443194367104
C           55.53890391512368       20.25360696893211       41.73413899115409
C           55.13640379073773       21.55883990299047       41.64995853517951
C           55.80756581852128       22.10929960292545       40.49089596975896
C           56.10326468142699       23.88843259418731       38.83337430643681
C           55.74833248424927       25.16425365603840       38.25888556608669
C           56.61114920339483       25.37396708759124       37.22601176339022
C           57.46835584253628       24.21332320053910       37.17263694619860
C           58.51633455488566       24.06606043625927       36.28753476837623
H           58.70858927720361       24.88704895567314       35.61385532918101
C           60.40486300840530       19.69719709346807       36.98559811223760
H           61.23004359624734       19.14390605494675       36.56448174023021
C           57.13241964563606       18.85912637996409       40.41116886042719
H           56.88594176848840       18.02128699410378       41.04491068758549
C           55.52166349797286       23.35480708613327       39.96757640679532
H           54.77222822322563       23.94751802886377       40.47393293228347
C           62.21182723010779       21.08507137459705       34.81321822493244
H           63.10901511341648       21.61276667561385       35.14033187146274
H           62.11182118579202       21.24918560995325       33.74089035312489
H           62.35554420664236       20.02286315338697       34.98479934889627
C           61.05081585442895       23.91532454604810       34.42213505915441
H           60.49280778491543       24.84582304778616       34.45446548550920
H           61.06768191870172       23.55849594679633       33.39218440624010
H           62.08346671692264       24.12598402843703       34.70398822194083
C           60.97078101549302       16.80988158768043       37.97716096283608
H           61.83012640063751       17.37844567822837       37.62684185255307
H           60.67889159658410       16.12357219255190       37.18160592901734
H           61.27710153910050       16.21070191465488       38.83372577428387
C           58.60616512377675       16.21316655970640       40.03742478161701
H           58.17191994281489       16.32026638354005       41.02514809349728
C           58.82053517748080       14.98067071456400       39.55166507690386
H           59.18264964374697       14.80265755436625       38.55630603981767
H           58.57646507691771       14.10328648215572       40.12747435077090
C           55.14716307178754       19.22904708731741       42.73678282924539
H           55.99204693666770       18.60693781389165       43.02664842840663
H           54.37594895704905       18.57449807585699       42.32654113026271
H           54.74697211111445       19.71101439446864       43.62494236201753
C           54.31551829235710       22.34709345165727       42.55494680418310
H           54.64166205247257       23.37378514155350       42.67489994285422
C           53.24852521860072       21.91213536049959       43.25815458743673
H           52.82583830500454       20.93176476396287       43.13333287515923
H           52.72287608132000       22.57262206537667       43.92836645245676
C           54.65580654543567       26.08774005669144       38.67172728143770
H           55.07015209955716       26.99796677906192       39.10824047653394
H           53.97519187678045       25.64135612052377       39.38990922053320
H           54.08179657209853       26.38030972543159       37.79244846102460
C           56.64146662084109       26.57716446658004       36.34603359964181
H           56.43385698640797       27.46960853622777       36.93418400114837
H           55.87723958279250       26.50831325072012       35.57015528053527
H           57.60264837762559       26.70638142498326       35.85697347217608
O           59.82896479004754       21.96973032292259       39.63781801213907
H           60.59324449943119       22.12973916325234       39.11158630514970
H           60.11318953090552       21.73651237285939       40.51416704991909
C           53.09694126454233       20.32708119235149       35.20652334015680