78
 energy: -116.058077958317 gnorm: 0.000056040299 xtb: 6.7.1 (edcfbbe)
Fe          57.87519005298124       21.52077718547997       38.39045574137497
N           59.19154826063944       21.82958427384802       36.89814773565696
N           58.69839705332191       19.71028478035078       38.72230528156422
N           56.61417392686995       21.22928889376426       39.90633891325749
N           57.11503323819039       23.33647398403721       38.08800200187649
C           59.26403856666443       22.91839028160388       36.08692752244633
C           60.30511658042393       22.75154264563484       35.09880557513036
C           60.86130202062989       21.53134443384600       35.32977390990254
C           60.14909596661912       20.96753192269123       36.45398470771161
C           59.72752985889312       19.13502445517394       38.03678859956787
C           59.99795938450286       17.81212797212850       38.53372194679869
C           59.09128367409315       17.58436188209497       39.53670434004619
C           58.29543836539952       18.79085446084486       39.63865485786807
C           56.49835091981928       20.10905417370067       40.67002600645412
C           55.45049252474143       20.26073614180807       41.64880008122901
C           54.92626137194480       21.51084844126733       41.45851565919195
C           55.67862562782970       22.09636212539750       40.36462218751722
C           56.11029133766836       23.92313366760169       38.78754170553392
C           55.82398609828259       25.24310531423517       38.26627481811709
C           56.68089406253538       25.43625863561847       37.22963535194911
C           57.47901009385455       24.23214435198531       37.13376840245871
C           58.47105129655640       24.04593623302979       36.19079145339817
H           58.64358141591052       24.84206926387872       35.48296273743895
C           60.41329777770258       19.71923872832905       36.98372814959558
H           61.20136925994117       19.14327581664842       36.52311260481745
C           57.26445777240476       18.96466497047740       40.54123999693577
H           57.03601350790825       18.13979306428494       41.19845209346980
C           55.43119365674984       23.35446429136761       39.84756302504150
H           54.64385092287066       23.93646950873511       40.30192412834082
C           61.97730749322577       20.85056662684971       34.61343486099278
H           62.79855459392571       20.63513858246273       35.29764146441266
H           62.35809919144572       21.47526801693658       33.80931991435798
H           61.64042396985423       19.90666446171252       34.18361081331641
C           60.64879765232635       23.76422856223057       34.06105727759928
H           59.78545168540810       23.97209606116584       33.42869036339454
H           61.45994358920903       23.41156488070665       33.42868049508230
H           60.95887153688825       24.70007519748878       34.52662886572674
C           61.10357276943088       16.92973111735176       38.06787358237720
H           61.99143021754917       17.51458239670600       37.83174028188374
H           60.81393143939446       16.37949763677788       37.17078713776958
H           61.35734412005621       16.20996458425196       38.84352066789153
C           58.93599997871456       16.42010039645564       40.37980653540929
H           58.60248129152878       16.61683453085103       41.39209573235853
C           59.15876228347852       15.16293069729491       40.01018903276869
H           59.44471722843215       14.90175212153248       39.00628337376721
H           59.03530463573926       14.34361707976528       40.69884459169476
C           55.09855020098702       19.25792972090393       42.69148892851173
H           55.99459108372507       18.77915187711459       43.08369471687057
H           54.45209119383830       18.47998070298324       42.28167186607998
H           54.57546491295150       19.74245281156276       43.51334782217956
C           53.86647490761847       22.17924415254851       42.18081567127678
H           53.98034531415225       23.25130600082214       42.29227750107933
C           52.79222153687413       21.58881611934684       42.69454430763824
H           52.60429310849312       20.53615359491730       42.57358048982725
H           52.04637540780916       22.14751688940099       43.23540379039453
C           54.78159302107399       26.15557768551251       38.81521846052614
H           54.98868028230292       26.38632924732003       39.86030276946772
H           53.79651463176263       25.69135867514889       38.76031948891956
H           54.75175744813340       27.08886222522085       38.25826748923366
C           56.83018520621273       26.61774721972003       36.33364694012422
H           56.11803053696642       27.39563930667159       36.59765879147771
H           56.66021062781200       26.33509277400969       35.29441012331322
H           57.83536695351980       27.03272657666106       36.41115238391492
O           59.48456984257907       22.35707708173491       39.79535910410995
H           60.11112358790864       22.68334425282870       39.14024202947733
H           59.84276412398757       21.53368412590826       40.14438541738143
C           53.29704763378880       20.08576711273205       35.55291824587991
H           52.93992095819204       19.06063173744816       35.65027836043782
H           53.23211463305830       20.37107534496154       34.50295991943091
H           52.64877755814182       20.73636698848720       36.13136418206165
N           55.73102145278501       19.49810732028617       35.50481676663391
H           55.66215850423696       18.84297995934484       34.74348376303330
C           54.69168833740211       20.20728965866604       36.04760765498092
C           56.85343535935073       19.83611127684533       36.17837356446752
H           57.82305252556429       19.43444872946477       35.96841696049115
N           56.58831368034955       20.71557872456101       37.11347761402271
C           55.24744712252718       20.95691098287122       37.04444149821397
H           54.77599003331014       21.64798627357546       37.71229885300833
