78
 energy: -115.973507803473 gnorm: 0.273475479771 xtb: 6.7.1 (edcfbbe)
Fe          28.37700000000000       91.57100000000000       52.10199999999999
N           29.30399999999999       93.27199999999999       51.53200000000000
N           29.53800000000000       91.50600000000000       53.80600000000000
N           27.33700000000000       89.97600000000000       52.80600000000000
N           27.16100000000000       91.68500000000000       50.50599999999999
C           29.00400000000000       94.04500000000000       50.43000000000000
C           29.86300000000000       95.20200000000000       50.39800000000000
C           30.67900000000000       95.12299999999999       51.47000000000000
C           30.32900000000000       93.92499999999998       52.19200000000000
C           30.53800000000000       92.40000000000001       54.14900000000000
C           31.14600000000000       91.99900000000000       55.39700000000000
C           30.54100000000000       90.85499999999999       55.79200000000000
C           29.47800000000000       90.59800000000000       54.83900000000000
C           27.53900000000000       89.28999999999999       53.99000000000000
C           26.47100000000000       88.33199999999999       54.18100000000000
C           25.61600000000000       88.46800000000000       53.13400000000000
C           26.21600000000000       89.41999999999999       52.22600000000000
C           26.11499999999999       90.84500000000000       50.19500000000000
C           25.63500000000000       91.13899999999998       48.86600000000000
C           26.31200000000000       92.22600000000000       48.43400000000000
C           27.18800000000000       92.63500000000001       49.50600000000000
C           28.03200000000000       93.74299999999998       49.48300000000000
H           27.92000000000000       94.43500000000000       48.64800000000000
C           30.89700000000000       93.51799999999999       53.39600000000000
H           31.70400000000000       94.13500000000001       53.79000000000000
C           28.54100000000000       89.56800000000000       54.92800000000000
H           28.59400000000000       88.92300000000000       55.80500000000000
C           25.66400000000000       89.80700000000000       51.00400000000000
H           24.80000000000000       89.24400000000000       50.65100000000000
C           31.75300000000000       96.14200000000000       51.85399999999999
H           31.36500000000000       96.80500000000001       52.65700000000000
H           32.01500000000000       96.76200000000000       50.97000000000000
H           32.65600000000000       95.61300000000000       52.22799999999999
C           29.82500000000000       96.29100000000000       49.34300000000000
H           28.79000000000000       96.39200000000000       48.95100000000000
H           30.50300000000000       96.02499999999999       48.50400000000000
H           30.13700000000000       97.25900000000000       49.79100000000000
C           32.27100000000000       92.75400000000000       56.09200000000000
H           32.19000000000000       93.83699999999999       55.85800000000000
H           33.25300000000000       92.38000000000000       55.73100000000000
H           32.19200000000000       92.61599999999999       57.19200000000000
C           30.81200000000000       90.00799999999998       56.88600000000000
H           30.03400000000000       89.26800000000000       57.10399999999999
C           31.95700000000000       89.92800000000000       57.80300000000000
H           32.80900000000000       90.61600000000000       57.69400000000000
H           31.97600000000000       89.18000000000001       58.60900000000000
C           26.33900000000000       87.43200000000000       55.41600000000000
H           26.60500000000000       88.01099999999998       56.32700000000000
H           27.02900000000000       86.56599999999999       55.32500000000000
H           25.29100000000000       87.07400000000000       55.50900000000000
C           24.33300000000000       87.90799999999999       52.92700000000000
H           23.56600000000000       88.54900000000001       52.47100000000000
C           23.90900000000000       86.56599999999999       53.25300000000000
H           24.61100000000000       85.85500000000000       53.71300000000000
H           22.87900000000000       86.23999999999999       53.04499999999999
C           24.59100000000000       90.37600000000000       48.05300000000000
H           23.58200000000000       90.79199999999999       48.26100000000000
H           24.60400000000000       89.30200000000001       48.33900000000000
H           24.80800000000000       90.48299999999999       46.96900000000000
C           26.19500000000000       92.87400000000000       47.04199999999999
H           25.13100000000000       92.87500000000000       46.72200000000000
H           26.79200000000000       92.29400000000000       46.30599999999999
H           26.56000000000000       93.92300000000000       47.08400000000000
O           27.24600000000000       93.10200000000000       53.31000000000000
H           27.63300000000000       93.94900000000000       53.09099999999999
H           26.57600000000000       92.96099999999998       53.87700000000000
C           30.64300000000000       87.62799999999999       48.56700000000000
H           30.79100000000000       86.61700000000000       49.00400000000000
H           31.53000000000000       87.88700000000000       47.95000000000000
H           29.73000000000000       87.61700000000000       47.93399999999999
N           31.41800000000000       88.91899999999998       50.66800000000000
H           32.30300000000000       88.46500000000000       50.76700000000000
C           30.47900000000000       88.65200000000000       49.69199999999999
C           30.91300000000000       89.89300000000000       51.44300000000000
H           31.44200000000000       90.30900000000000       52.30000000000000
N           29.73300000000000       90.25500000000000       51.03000000000000
C           29.38200000000000       89.50599999999999       49.89700000000000
H           28.44500000000000       89.63899999999998       49.37300000000000
78
 energy: -116.029791268002 gnorm: 0.103709877148 xtb: 6.7.1 (edcfbbe)
Fe          28.38085398359787       91.57134422870548       52.11279942840955
N           29.31295022493902       93.26870235747862       51.52667550251203
N           29.54505773486018       91.50441528015237       53.81202154986965
N           27.33453261660834       89.97603862293845       52.80712709610778
N           27.14328739556408       91.70338242251866       50.51994330074400
C           29.00750375472071       94.03683086349582       50.43265926407975
C           29.85824373616487       95.20378241990004       50.39550179222299
C           30.68263283412181       95.12558928944929       51.47344480847681
C           30.32599286051998       93.92040698698284       52.18974053063928
C           30.53718438390847       92.39568738529971       54.14563384036795
C           31.15890832369275       92.00489441805604       55.38866388527774
C           30.54832780111010       90.84837402074811       55.80406426500343
C           29.49222409184809       90.58502404221638       54.82439100199294
C           27.53237870484924       89.30303546132295       53.98870211209434
C           26.47779169685394       88.33227109616438       54.19141437728698
C           25.61723908643582       88.45035979081555       53.13128590947311
C           26.20110299845883       89.44975674253001       52.24617986399994
C           26.13721414410752       90.83149684134305       50.18696793476420
C           25.63456947109220       91.13642829831439       48.86277657029733
C           26.30989046143170       92.23489810703629       48.43050779854504
C           27.21382799598294       92.61484861961644       49.49536197850173
C           28.04300935167172       93.72834509051314       49.48326667980961
H           27.92582508664820       94.42156556773689       48.65642275685914
C           30.89280762993212       93.51125382770559       53.39047031247960
H           31.69322619200468       94.12970658623715       53.78370041310444
C           28.54782252160507       89.56767211617660       54.90863821779742
H           28.58833098356459       88.92956859473155       55.78537725792484
C           25.67377002745288       89.81090450855159       51.00898965046287
H           24.81243793242879       89.25022832536747       50.65811929978484
C           31.74367855280551       96.12822001804402       51.85707688413481
H           31.37342075200013       96.79260299198319       52.64842073841998
H           32.01199158349581       96.74336564418698       50.99143482937131
H           32.64336939228317       95.62229682518526       52.22225231470235
C           29.82019350398848       96.28251203228609       49.34953750444523
H           28.80581107319971       96.39527856726711       48.95376336252502
H           30.49047478165195       96.03276456118144       48.51731490563526
H           30.13152231008199       97.24137902411108       49.77811669638022
C           32.26304525054592       92.75416762724963       56.08086715380229
H           32.19526189740223       93.82432332505589       55.86080194813005
H           33.24015872548103       92.38876839327499       55.74084954296053
H           32.19177557095210       92.61847177839381       57.16600410567295
C           30.82999361685206       90.00370623175149       56.92149835333184
H           30.06004423709336       89.26229694136416       57.12253859053289
C           31.91424504931547       89.94318385487954       57.76566687588252
H           32.77327944866466       90.59834868277251       57.67309763840638
H           31.95156219803896       89.20648399387305       58.56336670070068
C           26.34190710928262       87.44696138980521       55.40652011980232
H           26.60106827896808       88.00210184515095       56.31493947788360
H           27.01502024132768       86.58409478680527       55.32573245723131
H           25.31270916343931       87.08369607186323       55.50238305977901
C           24.32330170091851       87.86450174307720       52.92583639019684
H           23.57414270944561       88.51453002316055       52.47062671791576
C           23.92345736011295       86.60398545371133       53.25059961864763
H           24.60476023177776       85.88499108100943       53.69143474055888
H           22.91053949771077       86.26874422453869       53.05067330836220
C           24.59915584741083       90.37864725500233       48.06915096977657
H           23.59692481736719       90.78227162707499       48.26186535877228
H           24.60221781752312       89.31632638984128       48.33360310843871
H           24.80450426051874       90.47763988566813       46.99732319074361
C           26.19292602829159       92.87427127792898       47.06305565810533
H           25.14867161320938       92.87808561226717       46.73117184451275
H           26.78125870186334       92.30888013834088       46.32815882271089
H           26.55568907651689       93.90588547313037       47.08100283076941
O           27.24018648847811       93.09686804106163       53.28511291324731
H           27.62329418122351       93.95432638668331       53.10274816272348
H           26.54616681007859       92.96953936005936       53.90505800199639
C           30.64537650343082       87.63608331284956       48.58182948009416
H           30.79102480081249       86.63219287416862       48.99854367029280
H           31.51467321786482       87.88206288663386       47.96034174324137
H           29.75135343122543       87.62309616159261       47.95225887747124
N           31.40255189434589       88.91586246722599       50.65025266431949
H           32.29306629637039       88.45845768056101       50.75189466624366
C           30.46823633082599       88.65340131475492       49.67814772458480
C           30.90028917144383       89.89369615563889       51.43632963491924
H           31.42669463938166       90.30334002155125       52.28487409883736
N           29.71760286862897       90.26323132298364       51.03163783023319
C           29.40980185498847       89.50413908677604       49.91648416814137
H           28.47865508518757       89.63310624411800       49.39495314552330
78
 energy: -116.041951650017 gnorm: 0.043856144914 xtb: 6.7.1 (edcfbbe)
Fe          28.38314180245377       91.57433279906368       52.12119871579583
N           29.32535439698223       93.25942074345527       51.52085349866711
N           29.55687059811461       91.49828977899425       53.80453931620554
N           27.32231478450516       89.99533071915634       52.81680972854344
N           27.14744573590938       91.70172646925116       50.51836071269099
C           29.01733344508420       94.02136473827424       50.43325504960099
C           29.85525464879714       95.19960503842339       50.39559623963112
C           30.68362925718747       95.12293478307859       51.47619589915870
C           30.32659591885359       93.91053006285905       52.18486989706133
C           30.54006323038348       92.38543831192762       54.13436198398685
C           31.16641596605738       92.00217910258378       55.37562166211190
C           30.55152307704200       90.84207357957794       55.79557147798662
C           29.50620718373654       90.57552720349256       54.80249752948730
C           27.52704436420750       89.32208774922996       53.98608315564137
C           26.48038732642705       88.34590399307879       54.19751118823958
C           25.62149654375244       88.45601844569192       53.13138100933315
C           26.19492389335557       89.47751066679955       52.26100847754353
C           26.15549276075488       90.82586838882254       50.18612954383656
C           25.64362406705287       91.12977865750962       48.86386613360943
C           26.31630868269519       92.23468059570003       48.43186092432462
C           27.23513156987019       92.59556874505324       49.49196833435854
C           28.05755122695482       93.70995188852902       49.48307412236208
H           27.94342909647020       94.39919757619795       48.65753507826816
C           30.89309535653556       93.50156017845774       53.38227548983056
H           31.68400598325596       94.12467913807842       53.77787288985126
C           28.55781612269536       89.56753378081471       54.88737176370518
H           28.59260286803148       88.93066625424140       55.76100102657408
C           25.68218759247035       89.81912649559354       51.01627996890293
H           24.82659591428905       89.25631437948839       50.66564426014764
C           31.73521635302488       96.11140081969457       51.86359324013618
H           31.37433981864784       96.77476959550874       52.65106142638090
H           32.00707142080805       96.72364414563108       51.00695404580259
H           32.63215506576744       95.61419375376687       52.22379231266749
C           29.81439006617602       96.27210054865807       49.35649647186720
H           28.81054865941677       96.39177078327322       48.95839834269140
H           30.48103087352978       96.03042553405909       48.52757204230228
H           30.12813908527281       97.22534459906544       49.77575428362622
C           32.25396752252934       92.75256447514866       56.06729566623189
H           32.19478309284921       93.81649081745410       55.85230595534066
H           33.23296580929593       92.39457302214326       55.74501566669784
H           32.18090794656049       92.61921980965919       57.14411380551830
C           30.83127952001225       89.99583217947357       56.93082050472543
H           30.05504503592370       89.26415052566188       57.12709192253757
C           31.87986631468769       89.95558290785542       57.72556576173999
H           32.74166811105862       90.59396520438695       57.64129864314645
H           31.92898271755782       89.23544398992091       58.52844680136656
C           26.34672144016415       87.46489262235208       55.39468729846074
H           26.60330528958517       88.00433267967240       56.30426159926547
H           27.00896415457044       86.60112677420990       55.31798890277391
H           25.32586305579312       87.10208801146128       55.48796208717351
C           24.32440798430582       87.84431618998873       52.91985003316424
H           23.59215635826293       88.49986546178350       52.45595652555267
C           23.94739816807098       86.62431939980740       53.23703024802818
H           24.61277829415760       85.90137356943899       53.67603993583457
H           22.93739261747624       86.28703547443602       53.06519187781200
C           24.60909204879164       90.37791534911449       48.08984652038162
H           23.61160202743879       90.77776768016236       48.27818076778226
H           24.60681122997280       89.32259547489207       48.34712053920165
H           24.80655007795445       90.47064295274089       47.02324556875641
C           26.19341627783064       92.87679104544931       47.08761693630298
H           25.15780844812323       92.88032475585732       46.75335299894292
H           26.77789811051325       92.31941962201647       46.35251528255834
H           26.55508919653958       93.90010040979664       47.09410006055644
O           27.17579758737843       93.08922490078659       53.22988530464060
H           27.59941979592785       93.95429110453649       53.14944351011577
H           26.53880841915170       92.98214887773305       53.94501959100068
C           30.64385022006022       87.64759108213822       48.59518580031129
H           30.79169239520816       86.65132503070623       49.00966634049549
H           31.50722452871582       87.88799024192726       47.97594599145893
H           29.76097928765558       87.62985856511737       47.96478365010037
N           31.39056782019295       88.91731882881864       50.63842865742719
H           32.28274202891595       88.45861046067427       50.73945937028243
C           30.45580000995859       88.65923765867701       49.66983564025310
C           30.89152616714643       89.89206399186277       51.43516924929131
H           31.41684016596874       90.29614511329586       52.27696043470652
N           29.70305091434588       90.26445943708055       51.03892129153931
C           29.42058599492056       89.50755831165257       49.93471179133473
H           28.49365905785842       89.63059594702736       49.41346422425892
78
 energy: -116.044474136192 gnorm: 0.060446697968 xtb: 6.7.1 (edcfbbe)
Fe          28.37880816421582       91.58195710120366       52.12527905318296
N           29.33518516760353       93.24816534178004       51.51587717537592
N           29.55758513490317       91.49945772409546       53.79142545558081
N           27.31672159194611       90.01486563225897       52.81885053014094
N           27.15777931917703       91.69782148302713       50.51746150120394
C           29.03125479992294       94.00565254809165       50.42802694190850
C           29.85859671456829       95.19079252402646       50.39474420510830
C           30.68490361304173       95.11573949765571       51.47635196548591
C           30.33077200530954       93.90094170336188       52.17975138410173
C           30.54410370777482       92.37815249743817       54.12074390493561
C           31.16877914429563       91.99425755396112       55.36082162939402
C           30.54634307924492       90.83774164234315       55.77666548738018
C           29.51125715310189       90.57131862697052       54.78097186098314
C           27.52360051412109       89.33811409675033       53.98131128721037
C           26.47988707532043       88.36187592928046       54.19462045867926
C           25.62550412898788       88.47078307362517       53.12705501391851
C           26.19256123191482       89.49792352484774       52.26509539820382
C           26.16927308286656       90.82371568692344       50.18646288546977
C           25.65533088024033       91.12492925067230       48.86709220502804
C           26.32740106576215       92.22905993064688       48.43444199516750
C           27.25617135819298       92.58039304494973       49.48739021832779
C           28.08051729718860       93.69057453651516       49.47298944253910
H           27.97214669151263       94.37487599965600       48.64448095252472
C           30.89845198069622       93.49493540563252       53.37458601214677
H           31.68459766255244       94.12043597590134       53.77238586048996
C           28.56351264105441       89.56706298914757       54.87077566172889
H           28.60326356302127       88.92320253288925       55.73712903020937
C           25.68602477374780       89.82701447839837       51.01838457350432
H           24.83409157432747       89.26160352532867       50.66767468730102
C           31.73357610304229       96.09773193025683       51.87351797943232
H           31.37336960170397       96.75695884629847       52.66400159082080
H           32.00941262019490       96.71244084551233       51.02109439368915
H           32.62819671403022       95.59686074179891       52.23288252661590
C           29.81147033223458       96.26329832974457       49.35930107326207
H           28.80745682660366       96.38452398173641       48.96350344108100
H           30.47573265973109       96.02419048766629       48.52847055049307
H           30.12667448208199       97.21529740155513       49.77834506161748
C           32.24796501146408       92.75050272702271       56.05504668233434
H           32.18983904100217       93.81318070846554       55.83511014947432
H           33.23202114121475       92.39547526797713       55.74538076113105
H           32.16490945920156       92.62225772989298       57.13074906245022
C           30.80790570640502       89.99334031306948       56.92036944087906
H           30.02757832452422       89.26794287916061       57.12168998983832
C           31.87492795961606       89.96545367450268       57.71104365139344
H           32.73918231026934       90.59380520282197       57.60001216862031
H           31.93078744318836       89.25710372495632       58.52254611389368
C           26.34915702535028       87.48124981368717       55.38754985474895
H           26.60784504879886       88.01524387719549       56.29939906459705
H           27.00851591321385       86.61642646439441       55.30714745601660
H           25.32822448243858       87.12068667503145       55.47775441419127
C           24.33248042375899       87.84959638068047       52.90746073615369
H           23.60446101206082       88.49942134753022       52.43273472740397
C           23.96046477652768       86.62401135502884       53.24566333448272
H           24.63481065010824       85.90129402225983       53.66884850089055
H           22.95572781199352       86.27766176532079       53.06884758073063
C           24.61481430220361       90.37255963909357       48.10860022724176
H           23.62020017374007       90.77437600085804       48.30380681927412
H           24.61262313446349       89.31892509409413       48.37041740010513
H           24.80441445713643       90.45934228491328       47.04086871160624
C           26.19508019618119       92.88252821001683       47.10185733172636
H           25.15800081565578       92.88740067701802       46.77512235369790
H           26.77691169456027       92.33134397702584       46.36096574375237
H           26.55671585414299       93.90509776168751       47.11336486014051
O           27.06234402308925       93.09208872908174       53.14848176137487
H           27.58688862423107       93.94428305668235       53.22349262037852
H           26.54731372528619       92.97612259848806       54.00151564787952
C           30.64068167849220       87.65831638539835       48.60398132505317
H           30.79213604066848       86.66567872555520       49.02438687634391
H           31.50531341571533       87.89919322004708       47.98775910033066
H           29.76129379089793       87.63436325902909       47.97030280244254
N           31.38372487595981       88.92521137705533       50.63806855444786
H           32.27605289494608       88.46657349827196       50.73343467413529
C           30.44603340757121       88.66954788386136       49.67246190303335
C           30.88588119450700       89.89310519771070       51.44318850876235
H           31.41255034275679       90.29343053369186       52.28346564877192
N           29.69338390592409       90.26542636394355       51.05371904566936
C           29.41163997464001       89.51377350960816       49.95061660387028
H           28.48488347985983       89.63199166592189       49.43080439648894
78
 energy: -116.047017742902 gnorm: 0.037688173126 xtb: 6.7.1 (edcfbbe)
Fe          28.37451663839974       91.58955364246431       52.13038179553912
N           29.34281081235160       93.23611530938049       51.51438683515505
N           29.55531415131144       91.50305962978150       53.77762030277191
N           27.31125194649396       90.03812915920952       52.82120516845885
N           27.17230128840290       91.69220683101372       50.51841632281728
C           29.04510450091664       93.98921228247596       50.42453730988987
C           29.86306348307394       95.17976286703185       50.39496912327567
C           30.68568949362120       95.10698533144355       51.47713013845015
C           30.33483970523968       93.89112944748047       52.17624963696430
C           30.54955571154458       92.37081138862533       54.10667514657437
C           31.17292690281227       91.98292072797169       55.34420105235576
C           30.54295571267467       90.83083593595417       55.75236997459282
C           29.51574358251876       90.56779701620356       54.75909165523803
C           27.52048622015010       89.35542756880180       53.97682623455225
C           26.47981737754364       88.37878110496506       54.18967018484034
C           25.63007617354440       88.48900799130821       53.12239586720320
C           26.19011738092161       89.51970526932394       52.26891456294448
C           26.18331517479945       90.82322747883119       50.18966169008945
C           25.66848432746931       91.12103151679337       48.87343021317533
C           26.34068802071183       92.22230657517675       48.43998163279115
C           27.27738016403557       92.56582159592581       49.48594702760023
C           28.10566387671630       93.67032724028299       49.46284734262528
H           28.00575718123933       94.34792483650695       48.62898633824553
C           30.90598926993971       93.48880919546677       53.36767371059417
H           31.68958308154921       94.11517649349835       53.76610620674552
C           28.56983063751527       89.56560172938377       54.85455923910288
H           28.61810779405432       88.91051148819633       55.71052286153488
C           25.68838925399461       89.83637835880222       51.02128773463982
H           24.84027798296031       89.26794042589687       50.67006716580075
C           31.73350321444227       96.08326787840130       51.88529040077199
H           31.37275357115966       96.73731197910362       52.68099114472122
H           32.01369854895073       96.70227713072366       51.03653007559341
H           32.62570997950537       95.57498179231850       52.24414408479073
C           29.80860341629927       96.25347304823329       49.36237663611724
H           28.80152961588349       96.37602569411018       48.97138456823085
H           30.46941477253302       96.01552357137291       48.52736685551402
H           30.12641974882584       97.20500093368982       49.78291632907790
C           32.24435933258598       92.74704246257947       56.04169739623831
H           32.18486761304690       93.80942057933346       55.81373434638384
H           33.23447864498743       92.39462106258739       55.74425485043848
H           32.14867051460908       92.62486401203591       57.11792614462102
C           30.78238872373123       89.98856399839971       56.90183179369264
H           29.99664566075471       89.27362731821346       57.11712153310959
C           31.87446459111997       89.97063026957251       57.69396651068523
H           32.73727588817623       90.59439758571116       57.54992838086756
H           31.93230235455840       89.27754303081764       58.51830422296982
C           26.35260769540157       87.49721668992827       55.38070269459683
H           26.61525993945005       88.02785604982732       56.29490314910869
H           27.01007302307589       86.63065915581292       55.29449411683144
H           25.32934387560665       87.14032205673901       55.46811036172464
C           24.34423403415914       87.85989855903919       52.89252181442865
H           23.61635215474476       88.50043254594347       52.40836133629824
C           23.97718354963487       86.61985447826387       53.25012280362997
H           24.66201361633618       85.90407580264225       53.66851078563043
H           22.97458372758188       86.26747165215293       53.07273896124111
C           24.61938455536350       90.36736483675595       48.13065241076956
H           23.62739545968693       90.77247535982310       48.33620896027391
H           24.61858435995516       89.31425411173639       48.39995096626123
H           24.79937749250626       90.44765166420648       47.05995559987092
C           26.19688400544957       92.89008683320655       47.11716037491885
H           25.15580051543778       92.89621052339686       46.80087085631595
H           26.77587053810806       92.34654537691875       46.36740973901283
H           26.55733060083582       93.91416070626127       47.13807602498932
O           27.07555728691315       93.07624990393491       53.21947923975270
H           27.48860933097738       93.93238619488885       53.19974440810429
H           26.49760389794598       92.98155912886791       53.97604857360422
C           30.63514661392515       87.67059054844268       48.61113651964300