78
 energy: -116.058077217718 gnorm: 0.000069753720 xtb: 6.7.1 (edcfbbe)
Fe          28.26662668927280       91.63924971034061       52.15615071771757
N           29.28414062750235       93.25541635282701       51.51916176937108
N           29.41354422489600       91.58878817672642       53.81429346667894
N           27.22567178194381       90.07620558619924       52.82482898471333
N           27.10650270270138       91.73930330175544       50.54085252534249
C           29.10366304041810       93.92349661202935       50.34878316804353
C           30.05733875730665       95.00185019921840       50.22309321328695
C           30.82409758990500       94.96884138939787       51.34670454225088
C           30.33047697132161       93.86749294438854       52.14198430544815
C           30.44267581644201       92.42622651282619       54.12974108606402
C           31.05846729497645       92.03639278471762       55.37023294099209
C           30.38598843257441       90.92183382285351       55.80087575220031
C           29.35680078149370       90.66851398728251       54.81301260363583
C           27.45316478167439       89.36917107581195       53.96503554675506
C           26.50736936236997       88.28888263714175       54.09684770605877
C           25.69384944116599       88.35540263709571       52.99792963053606
C           26.16427362007957       89.48737652847477       52.22157758786511
C           26.06483415127147       90.92345513309940       50.23709700823300
C           25.47373638607002       91.29549209555339       48.96891744329574
C           26.18924717181094       92.35685916991567       48.51315829789775
C           27.20565750509751       92.61872858726100       49.51038848940173
C           28.13562079701748       93.63461745802492       49.40522432117600
H           28.10229581263752       94.25322210431378       48.52157352091794
C           30.86858932978633       93.49639926925869       53.35911361722484
H           31.70462249446762       94.07185747610691       53.72633896367484
C           28.45346552682541       89.62608645087209       54.88516501783099
H           28.53537386755544       88.95581859872532       55.72691606679010
C           25.61741833762074       89.87023350629836       51.01091127752063
H           24.78037862566603       89.30036778311353       50.63714190999146
C           31.95648534759155       95.85293397534404       51.74439517328052
H           31.73990485569002       96.35407065486443       52.68830084741817
H           32.13714072276095       96.61283172413820       50.98822888928024
H           32.87122997504969       95.27330639813837       51.87275721838041
C           30.12549929454202       95.93213281331990       49.06099110625193
H           29.18691641755146       96.47558322898887       48.94969593102995
H           30.30666018122487       95.37971664352870       48.13878170555318
H           30.92662383891401       96.65584956973191       49.19001458132895
C           32.15956174077339       92.77316274154458       56.05051243015203
H           32.04024775679300       93.84839734747413       55.92488482973149
H           33.13111278618405       92.49164770530292       55.64034595871532
H           32.15833288446301       92.54504692719760       57.11447482122864
C           30.58880842300205       90.13990412158758       57.00001939689906
H           29.69506789548360       89.70395286843139       57.43112079275318
C           31.75970212203071       89.91735863626783       57.58837201286879
H           32.68580676167277       90.28325036220976       57.18058172480463
H           31.83413695801320       89.33367617589462       58.49088677630272
C           26.42184614718098       87.36031822997192       55.25751935631111
H           26.61025526514207       87.89058341400020       56.18987656629945
H           27.15737511250636       86.55876661636020       55.17054024348938
H           25.43067957428304       86.91413026219995       55.30577554479317
C           24.56557847400328       87.52363898282995       52.64187624959199
H           23.75751139892028       88.02817407244669       52.12496538157513
C           24.45787560841736       86.22248252670573       52.89070816072520
H           25.24817013702111       85.66139692131058       53.35833316306721
H           23.57923900195716       85.66569686139951       52.60973454122524
C           24.30690811587105       90.60496936043205       48.35066142995706
H           23.43835025943489       90.66177854364440       49.00695404460148
H           24.53091762493606       89.55212372471179       48.17680088558204
H           24.04673787806392       91.06139380042421       47.39877129268150
C           26.01949390406497       93.14324270113511       47.25865634390780
H           25.19534261671008       92.75333111083421       46.66642753157362
H           26.92609506769032       93.10202224798955       46.65438485390193
H           25.81261090218681       94.18900624589267       47.48711557659674
O           26.92359068624275       93.10566428287918       53.30019628348796
H           27.26376543569332       93.93667121345230       52.95102390016712
H           27.28525722141876       93.00213078766069       54.18710264249899
C           30.61728553419601       87.57833323981338       49.14721873970038
H           31.20268301350122       86.83003696549694       49.68142307627193
H           31.15844325442525       87.85155026769904       48.24143182671240
H           29.66556367078245       87.13902014895366       48.86549975209060
N           31.40310762002423       89.53566001063184       50.49733007439311
H           32.38534373672879       89.37692796266428       50.34380749170258
C           30.38087134642836       88.77012985552631       50.00057354387894
C           30.85194624978470       90.53076480596464       51.22787079410957
H           31.41602022782543       91.28471852335520       51.73673886854902
N           29.54416557491470       90.44210030821276       51.22366594201971
C           29.23573427401060       89.35185838102309       50.46398188802665
H           28.21810518204672       89.06097383876751       50.30361833362794
