87
 energy: -128.466677818677 gnorm: 0.000056421882 xtb: 6.7.1 (edcfbbe)
Fe          71.12411202843087       42.71363819218866       10.19072289035067
N           71.58387604600605       44.41761756112322        9.24589786347124
N           73.04677137727069       42.47379525281566       10.70123737621577
N           70.64504365679350       41.04056897774251       11.18553042568898
N           69.21548954497368       42.91459209414133        9.62178997422901
C           70.73549891902168       45.22405478578919        8.55999381808782
C           71.43016969437573       46.39309934127179        8.06371917798046
C           72.72240419097956       46.26950217337289        8.46698051705415
C           72.80028521122013       45.02253453862449        9.19772822399653
C           74.07766246212604       43.30949668863703       10.40752269059220
C           75.32363918822281       42.77134744129030       10.88693044720286
C           75.02863961398079       41.56146167173047       11.45585781119442
C           73.58884960651750       41.41373483151146       11.35307408986668
C           71.49719295611774       40.24601184308236       11.88725765931107
C           70.77892644444857       39.19226470146811       12.55204842345619
C           69.45398670827736       39.37517470430993       12.25216471584775
C           69.40271789574300       40.52561327116251       11.37171075194389
C           68.19018847720254       42.06325697808377        9.89140255963749
C           66.98065890053226       42.49325328774790        9.22492550442336
C           67.29977507539405       43.63432809062907        8.55681842898480
C           68.70033223417538       43.88169889142591        8.82030600631428
C           69.39485526589398       44.97390417647710        8.33465222854551
H           68.84800742693889       45.68625567826238        7.73537545209557
C           73.96933272496139       44.51616442619498        9.73289480831852
H           74.87175525925450       45.09486071320480        9.60145396885537
C           72.87210370261971       40.39540547841737       11.94941039097004
H           73.42499549096347       39.67151783979106       12.52794532347932
C           68.25904723521586       40.95892302823801       10.72149926773342
H           67.35716953366502       40.38378935078543       10.86578895306964
C           73.87763115995281       47.18340416382993        8.23617877009184
H           73.56810255765278       48.06638078533478        7.68221470354385
H           74.65931801246447       46.67915178106757        7.66684799534171
H           74.30707022445644       47.50694707976047        9.18480164496054
C           70.78789890077472       47.48100827323444        7.27254879729554
H           69.97067584280050       47.93276490854414        7.83536180758756
H           70.37912142924250       47.08743283928597        6.34138910203830
H           71.50690474059266       48.25933860016339        7.02796872363659
C           76.65702884804936       43.41457850829968       10.71513145209304
H           76.65424194197784       44.42350035684670       11.12903829922195
H           76.91711518050899       43.48579169942107        9.65812230576133
H           77.42903756872759       42.83555239688835       11.21583996093272
C           75.96694878275648       40.62117837488337       12.03102421862090
H           76.80096151606068       41.06484527702172       12.56516238422243
C           75.90704800863276       39.29874970463126       11.91833238172251
H           75.13192306557924       38.80925823816192       11.35347136626635
H           76.64803642838231       38.65945410322517       12.36967197657550
C           71.39613147363231       38.15799719763488       13.42911946666235
H           71.86770452910915       38.62212894519374       14.29599230313796
H           72.16384260694539       37.60408991671528       12.88799789269719
H           70.64528307815645       37.45630248370608       13.78426062700128
C           68.33998772212475       38.58516495772052       12.73112437825974
H           68.54112829461792       37.52513000970016       12.84714447544899
C           67.14167830404068       39.04846279882533       13.07101027469811
H           66.89951909547703       40.09689435986948       13.02932580444065
H           66.36353886220613       38.39294199247315       13.42597337250503
C           65.67455751282162       41.77859369221178        9.30805072286809
H           65.31210237546028       41.75664452057368       10.33648453970749
H           65.77728639294439       40.74796686664951        8.96735853830973
H           64.92445347291340       42.26985740717885        8.69290923498683
C           66.43577024527639       44.50422330497964        7.70876906743488
H           65.42770349158543       44.10192437954004        7.64098067826814
H           66.84323357101441       44.58260256406229        6.70056144117403
H           66.37594383036573       45.50947806101394        8.12699708977263
C           71.40698092817112       46.20308735725676       14.56534518598874
H           71.49876515000281       45.76449927762231       15.55908564668094
H           70.68689823940861       47.01978445906205       14.61856831177786
H           72.37101959440595       46.60780717477125       14.27348935397344
N           69.79249303950537       44.50109548140600       13.68802462965944
H           69.11593738943051       44.61333099403196       14.42503907121690
C           70.97642539542757       45.18282086886927       13.57588203279420
C           69.70634022835979       43.65599757950456       12.63619154024613
H           68.88330539070122       42.99356700677939       12.46513082548923
N           70.76124670872753       43.76015313005647       11.86669377376984
C           71.56012408379937       44.70612245462096       12.43747406402356
H           72.49491661591401       44.97878209980747       11.99380347202889
C           73.23941591285039       40.64427098084173        5.43949011159286
H           72.65074696563643       40.74253679836096        4.52727297131028
H           73.65843487451453       39.63833626824050        5.46795578049620
H           74.05517543754065       41.35964380438536        5.40604212436698
N           71.29426258478981       40.15170777503680        6.93836347996420
H           70.94388965796294       39.37742576148290        6.39868128877517
C           72.40221871804646       40.90129795521126        6.63878314676555
C           70.76705897818518       40.64098815158960        8.08344102491922
H           69.89085653019140       40.24834894348338        8.55670998741268
N           71.47180026496517       41.65255761114157        8.52574188420400
C           72.49202893078764       41.82684918559230        7.63836309249321
H           73.21724244206823       42.60138232267106        7.77762165383851
