87
 energy: -128.314876953441 gnorm: 0.331751558546 xtb: 6.7.1 (edcfbbe)
Fe          71.13000000000000       42.83100000000000       10.19000000000000
N           71.66900000000000       44.45100000000000        9.27500000000000
N           73.01900000000001       42.53800000000000       10.66700000000000
N           70.72000000000000       41.19200000000000       11.15400000000000
N           69.28100000000001       43.08100000000000        9.69000000000000
C           70.85299999999999       45.29800000000000        8.56900000000000
C           71.67600000000000       46.26400000000000        7.83500000000000
C           72.96100000000000       46.08400000000000        8.20700000000000
C           72.96100000000000       44.93800000000000        9.05900000000000
C           74.14200000000000       43.17600000000000       10.18000000000000
C           75.33900000000000       42.64500000000000       10.74600000000000
C           74.96999999999998       41.70700000000000       11.63000000000000
C           73.53400000000001       41.63300000000000       11.56100000000000
C           71.52000000000000       40.43900000000000       11.96600000000000
C           70.85899999999999       39.28599999999999       12.46900000000000
C           69.60200000000000       39.32600000000000       11.97700000000000
C           69.52900000000000       40.52000000000000       11.14800000000000
C           68.27700000000000       42.16500000000000        9.80900000000000
C           67.07400000000000       42.61800000000000        9.20000000000000
C           67.30200000000001       43.90500000000000        8.82000000000000
C           68.71100000000000       44.16600000000000        9.08900000000000
C           69.46100000000000       45.21099999999999        8.56900000000000
H           68.91300000000000       46.03899999999999        8.12000000000000
C           74.11700000000000       44.31300000000000        9.43900000000000
H           75.06699999999998       44.75000000000000        9.13100000000000
C           72.81800000000000       40.67100000000000       12.18900000000000
H           73.33100000000000       40.04700000000000       12.92100000000000
C           68.39400000000001       40.98200000000000       10.49300000000000
H           67.51200000000000       40.34300000000000       10.52600000000000
C           74.14800000000000       46.99499999999999        7.93100000000000
H           73.80899999999998       47.88000000000000        7.35100000000000
H           74.91200000000001       46.44700000000000        7.33900000000000
H           74.58799999999999       47.34000000000000        8.89100000000000
C           70.51799999999999       47.16200000000000        7.02400000000000
H           69.83700000000000       47.64100000000000        7.76000000000000
H           69.92299999999999       46.49700000000000        6.36200000000000
H           71.01100000000000       47.95400000000000        6.42100000000000
C           76.76099999999998       43.04899999999999       10.42100000000000
H           77.07500000000000       43.87400000000000       11.09500000000000
H           76.81999999999998       43.40100000000000        9.36900000000000
H           77.44100000000000       42.18300000000000       10.57100000000000
C           75.80200000000001       41.02200000000000       12.50000000000000
H           76.34799999999998       41.57800000000000       13.27600000000000
C           75.99900000000000       39.58400000000000       12.44500000000000
H           75.47900000000000       38.97800000000000       11.68900000000000
H           76.67100000000001       39.08499999999999       13.15900000000000
C           71.48099999999999       38.24200000000000       13.38700000000000
H           71.80899999999998       38.72700000000000       14.33100000000000
H           72.36400000000000       37.78399999999999       12.89100000000000
H           70.73099999999999       37.45800000000000       13.62600000000000
C           68.56600000000000       38.46400000000000       12.27500000000000
H           68.46100000000000       37.50200000000000       11.75200000000000
C           67.59999999999999       38.81900000000000       13.28700000000000
H           67.68200000000000       39.77399999999999       13.82600000000000
H           66.77100000000000       38.13800000000000       13.53100000000000
C           65.85299999999999       41.75100000000000        8.91600000000000
H           65.25900000000000       41.63000000000000        9.84700000000000
H           66.17800000000000       40.74900000000000        8.56300000000000
H           65.21800000000000       42.23700000000000        8.14500000000000
C           66.26400000000000       44.85300000000000        8.21900000000000
H           65.29200000000000       44.71800000000000        8.74000000000000
H           66.12900000000000       44.62600000000000        7.14000000000000
H           66.59800000000000       45.90500000000000        8.34700000000000
C           71.31200000000000       45.55599999999999       15.15200000000000
H           70.68800000000000       45.28999999999999       16.03200000000000
H           71.39999999999999       46.66200000000000       15.09400000000000
H           72.31800000000000       45.10099999999999       15.27400000000000
N           69.29200000000000       45.02600000000000       13.58400000000000
H           68.53700000000001       45.34000000000000       14.15800000000000
C           70.66000000000000       45.02700000000000       13.89000000000000
C           69.25800000000000       44.50100000000000       12.33800000000000
H           68.32699999999998       44.35000000000000       11.79200000000000
N           70.45599999999999       44.20400000000000       11.88100000000000
C           71.42100000000001       44.51300000000000       12.83900000000000
H           72.48000000000000       44.35100000000000       12.69500000000000
C           73.18800000000000       40.56800000000000        5.39600000000000
H           72.59900000000000       40.62700000000000        4.45600000000000
H           73.63400000000000       39.55399999999999        5.47900000000000
H           73.99100000000000       41.33500000000000        5.36700000000000
N           71.17200000000000       40.03600000000000        6.87500000000000
H           70.86100000000000       39.21500000000000        6.39800000000000
C           72.28100000000001       40.82399999999999        6.57500000000000
C           70.63900000000000       40.64500000000000        7.94200000000000
H           69.72300000000000       40.29500000000000        8.41800000000000
N           71.33199999999999       41.67800000000000        8.32800000000000
C           72.42200000000000       41.88300000000000        7.46700000000000
H           73.12900000000000       42.69300000000000        7.56700000000000
87
 energy: -128.402183009522 gnorm: 0.142482408367 xtb: 6.7.1 (edcfbbe)
Fe          71.13442345031879       42.83220660507263       10.19049351475375
N           71.66530746800636       44.44885992462198        9.25369714769473
N           73.03757752466660       42.54215567946235       10.67464072668565
N           70.70790202915653       41.18333770800822       11.15955190395449
N           69.27482082670737       43.07056995320205        9.68286563645009
C           70.84049060015225       45.28115968171553        8.56285324516874
C           71.60442847259502       46.29809164436914        7.85216388641331
C           72.92349420812704       46.11507849679971        8.18973841218744
C           72.93035422955306       44.94312699537819        9.03225251794491
C           74.14381271592367       43.18829711246985       10.18571772175564
C           75.35143022323892       42.65502029860316       10.74164529211559
C           74.97884292156709       41.70104751966252       11.63111004084402
C           73.54573338818420       41.63327999824342       11.55530756275571
C           71.51485321156417       40.43462452833620       11.96728417453714
C           70.85258222717353       39.28039711120050       12.47726069374389
C           69.58902566398910       39.33229218949030       11.98305151957235
C           69.51864204135374       40.52318418016358       11.15637144646187
C           68.27799228962768       42.15140975839923        9.80329267908980
C           67.06852924650420       42.61715507905200        9.19215976914823
C           67.29965552817032       43.90751484623161        8.81657710093766
C           68.70894664147551       44.15438780895946        9.08383756328624
C           69.45238590841906       45.20737159812463        8.59151029570114
H           68.89956223763606       46.01355373357976        8.12980821445261
C           74.10399748292649       44.32846484930391        9.42402871095667
H           75.05268443075146       44.76331538487235        9.12782572001290
C           72.83061329489520       40.67120449215270       12.20472448752931
H           73.34421828146765       40.04168534778111       12.91944708277793
C           68.38797151005224       40.96449001274857       10.49275775095860
H           67.50855580138952       40.33376279027478       10.53336553033551
C           74.12817743394589       46.98803504011409        7.92147079097607
H           73.81429938060066       47.87079541094186        7.35507508036289
H           74.89929816360529       46.45672585708000        7.34606787246716
H           74.57563023563598       47.32640637894693        8.86837898812565
C           70.57835802087234       47.17839393628542        7.01948549036664
H           69.88988561898046       47.64320996593636        7.74021467538096
H           69.97622537274968       46.51539999756782        6.37886330850103
H           71.02861926462647       47.96123494847593        6.41297129599966
C           76.75843858336025       43.05470716536802       10.41842302226996
H           77.07755055352733       43.86754653526374       11.08399894119906
H           76.82809319520526       43.39797068022025        9.38076657859315
H           77.43039742453392       42.19988762729052       10.56658763635616
C           75.82171976259060       40.96642634598780       12.51209892455401
H           76.36048772052874       41.54181475230732       13.26827367613849
C           75.99462814371945       39.61629874753192       12.45668976925594
H           75.48950931195341       39.01050822748960       11.70741335154474
H           76.65799378048314       39.10538411805864       13.14762216109747
C           71.47362519427016       38.24933426449338       13.38269518570878
H           71.80534195133049       38.71785259275790       14.31848499226720
H           72.34747619889384       37.79024280217364       12.90010137397733
H           70.74185420003020       37.46925631533441       13.62175054420150
C           68.51062855011702       38.46223841796480       12.30277559408401
H           68.43441012745424       37.50712626680176       11.77930351555569
C           67.60968740406497       38.80050473351584       13.26068494023407
H           67.68983564077260       39.74349497409647       13.79886750790851
H           66.78835239105035       38.14254124714534       13.52170973191622
C           65.85676233324841       41.76152299113068        8.92484003152548
H           65.26155172858581       41.62846169042157        9.83727873041425
H           66.17003750568986       40.77015412271798        8.57037610796253
H           65.22723281171041       42.22877645205308        8.15897113937273
C           66.27793939140635       44.84867766964169        8.22272165656139
H           65.31195993029252       44.71978401141673        8.73017834722272
H           66.13253059700712       44.63474872250260        7.15517637703990
H           66.59406309404866       45.89087922397331        8.34090819607360
C           71.29998270468225       45.55817947065673       15.16101514526756
H           70.69334347779676       45.29753297563509       16.03453338934333
H           71.39948503854652       46.64947177205202       15.10381326125000
H           72.29549152303117       45.11400162645705       15.27281515362082
N           69.33470976675675       45.02213275965833       13.57913854330729
H           68.56838577359439       45.33764712541669       14.15418512649375
C           70.68154087594692       45.03317855854091       13.90284415676862
C           69.27553816108109       44.49160216763772       12.33199405375802
H           68.34732598649990       44.34906694125048       11.79700164450314
N           70.45891962678024       44.17819495894908       11.87624579184363
C           71.38309434267234       44.51663003744478       12.84158269103185
H           72.43932395308224       44.35535598274064       12.69770874950346
C           73.18747994522818       40.56230285187858        5.38999947284899
H           72.61106897703006       40.62232978886728        4.45871448520070
H           73.63478458519046       39.56444747356272        5.46938855286913
H           73.97919113402433       41.31758419300903        5.36580486927908
N           71.19269097952231       40.06323823278255        6.87281840207048
H           70.87643380091005       39.23496286080304        6.39456888744986
C           72.29854826438304       40.82893949695448        6.56001375851713
C           70.64703919543324       40.65454128208948        7.95722705845126
H           69.73836086701145       40.30256730974220        8.42340735492104
N           71.33117532853623       41.69144242563797        8.34572316477093
C           72.39434551069594       41.85138662574703        7.46875411703482
H           73.10030530907936       42.65987552119915        7.56713628645406
87
 energy: -128.428617541610 gnorm: 0.058700479351 xtb: 6.7.1 (edcfbbe)
Fe          71.13761965981840       42.83219860231392       10.18223524449716
N           71.67467801142972       44.45136870848668        9.23292367920456
N           73.05855670923550       42.55353615200237       10.68385356543467
N           70.69656875177587       41.17458410234268       11.16846517897724
N           69.26510713920078       43.05366482104030        9.67002252882397
C           70.82472111248127       45.28117795895144        8.58229748409973
C           71.53167950953819       46.31595637655382        7.85726429363832
C           72.85988133764360       46.14761309896689        8.17534754161602
C           72.92218665858084       44.94831200854360        8.99944290691526
C           74.14964906184167       43.21085707584750       10.19592276806786
C           75.36506863523473       42.67005874256304       10.74220905621295
C           74.98907289084191       41.70769412147121       11.63219434067182
C           73.55732436618237       41.63583058430216       11.55013070444386
C           71.51238296823861       40.43054401420581       11.96741408120554
C           70.84236599278815       39.27623778828721       12.48659263261687
C           69.57776111746426       39.33422403484008       11.98706909321258
C           69.50660232209754       40.52437731673692       11.16913573589405
C           68.27561878440893       42.13265532932823        9.79548881446982
C           67.06112651910664       42.61207655550562        9.18606006688205
C           67.29628381533277       43.90240480538543        8.81160957108935
C           68.70549985917856       44.13406632114071        9.06599475838715
C           69.44011725587697       45.19658224755426        8.58827151154066
H           68.88025074702412       45.99292667174847        8.12930469987029
C           74.10202251179609       44.34667324404631        9.40710781822254
H           75.04625944234427       44.78333294860928        9.12218149134067
C           72.84022198870085       40.67266735834616       12.21709255453048
H           73.35666516882179       40.03589352976373       12.91568109638112
C           68.37680454738198       40.94370406096619       10.49257217240945
H           67.49891128280581       40.31847406982892       10.54230022546236
C           74.08060400999348       46.98563315304165        7.90619654162716
H           73.80761837235409       47.87377312023582        7.34436265673756
H           74.85489808065768       46.45137344524951        7.34994986779377
H           74.54056532260861       47.30816825577352        8.84624235729687
C           70.63757027663057       47.19204245350565        7.04007339893828
H           69.93430661724595       47.67814560700776        7.72145173659505
H           70.04211960042686       46.54315970841572        6.38964315501254
H           71.09690859067402       47.95181458796615        6.42814124168321
C           76.76127039392929       43.06411475547753       10.41611585984794
H           77.08716463617567       43.87024285641029       11.07388038003455
H           76.83906993965226       43.39941293681235        9.38617821240677
H           77.42554443364993       42.21439496594000       10.56366896122760
C           75.84084236594278       40.92826580098620       12.51629704112289
H           76.37146859976984       41.51893632383864       13.25994989128557
C           75.99875245190781       39.63586537906248       12.46063516469749
H           75.49384276842132       39.02889795863248       11.72409521421406
H           76.64590314299681       39.10930434136126       13.14345142144573
C           71.46146715946030       38.25461537360439       13.38059288166401
H           71.79801257523587       38.71318320680236       14.31042456290951
H           72.32927530557247       37.79733047952213       12.90321636612221
H           70.74246957711313       37.47545050804382       13.61905829727440
C           68.46670602155557       38.45803062646991       12.32318669401614
H           68.41350196857290       37.51097972812381       11.79308985217954
C           67.60448690264775       38.78266077860649       13.24462782656851
H           67.68276619402658       39.71937939293553       13.77797091829279
H           66.78540930754292       38.14249477188393       13.52258016616664
C           65.85447978659117       41.77091301517337        8.93421396710040
H           65.26113093224045       41.63166588688081        9.83690125406011
H           66.16185905513281       40.78687207106844        8.57876128014803
H           65.22901326241654       42.22866756953068        8.17206681022611
C           66.29368198670173       44.84433622241721        8.22383880954450
H           65.33197454965884       44.72013931127579        8.72353450015801
H           66.14184816734667       44.64171963986878        7.16245772233358
H           66.60192515430226       45.87990393117811        8.33635456541018
C           71.29020461516110       45.56255638185933       15.16838466836241
H           70.68920267963833       45.30428849911031       16.03455684889506
H           71.39440819724845       46.64545638583125       15.11769773843313
H           72.27982513361864       45.12846593152099       15.28159384203415
N           69.37586374672745       45.01914754154387       13.57210659302828
H           68.60316110486521       45.33628924284655       14.14316288939826
C           70.70577749873488       45.03800896544283       13.90978988781826
C           69.29448842684333       44.47423891012827       12.33103842959880
H           68.36764294299182       44.34267992087293       11.80638760908106
N           70.47286914633214       44.14838854660392       11.87668920269956
C           71.36330615501826       44.50567068830637       12.84356064602782
H           72.41564361632305       44.35143611334680       12.70032251005796
C           73.18701661223282       40.55821421614269        5.38463051093370
H           72.61996567928955       40.61551827600967        4.45733390453398
H           73.63433813551271       39.56941342041465        5.46076981658989
H           73.97547877006559       41.30267622003954        5.35960270349287
N           71.20807841659590       40.08958221375392        6.87243864564918
H           70.88657313894981       39.25991480773796        6.39430137545100
C           72.31203383576683       40.83712281851795        6.54853598706308
C           70.65702518636016       40.65850251401196        7.97266759705658
H           69.75632267908342       40.30265224699113        8.43261635513950
N           71.34412667819116       41.69525583655170        8.36626337874990
C           72.37569812021751       41.82971454309222        7.47701509593234
H           73.08148380790507       42.63322494654160        7.57213857171279
87
 energy: -128.439085021523 gnorm: 0.020942521217 xtb: 6.7.1 (edcfbbe)
Fe          71.13508465174297       42.82259454130165       10.17892300540058
N           71.66035113558385       44.44403302347065        9.21706982984233
N           73.06499364206776       42.56538003508293       10.69233692988072
N           70.68698728368389       41.16577012535686       11.17549358767408
N           69.25851305075628       43.02404836386575        9.65678130227670
C           70.80125367510455       45.27720390091953        8.58524203029002
C           71.50487725276662       46.33868294834624        7.89182456438545
C           72.83042867781108       46.15660970163420        8.17567019632179
C           72.90393804340488       44.94983681670322        8.98570835256007
C           74.14813953161581       43.23366441103374       10.20438579490312
C           75.36893374772968       42.69288035390135       10.74659272189404
C           74.99744132231129       41.72594476247703       11.63422571580825
C           73.56335178208074       41.64141044231555       11.55173247280753
C           71.51025169674109       40.42691474189141       11.97005706679705
C           70.83188183157716       39.27447698260262       12.49439098701929
C           69.56779346230230       39.32640223898816       11.99275550738700
C           69.49547548675181       40.51589366312554       11.17841870247004
C           68.26775649609245       42.10622208753227        9.78731284864348
C           67.05182580669685       42.59511296783731        9.18565787423826
C           67.29254244210492       43.88119655807248        8.80655080719008
C           68.69783209357350       44.10596357706095        9.06015346843233
C           69.41878314920491       45.18004110111180        8.59143313314230
H           68.84352123869934       45.96392406715291        8.13086170173953
C           74.08726021727983       44.36235731073265        9.40123484432043
H           75.02621878192328       44.81200508371318        9.11716949890432
C           72.84263967929823       40.67399089446184       12.21731733966444
H           73.36663313646139       40.03037191238889       12.90603009783193
C           68.36461058361644       40.92149546391290       10.49284991964213
H           67.48637806781960       40.29600209457033       10.55318160989539
C           74.04186260756333       46.98898136593700        7.88626507372600
H           73.78165287308551       47.88224757130357        7.32470126756951
H           74.80075864265015       46.43702602501486        7.32891889452889
H           74.50389437293478       47.29905488408683        8.82742819803723
C           70.68938116856883       47.24907140567232        7.02542385800543
H           69.98756057124265       47.78599776208853        7.67240051872743
H           70.09845357116944       46.61467658304176        6.35796419641834
H           71.23129555136521       47.97202981419704        6.42699624295861
C           76.76582567398607       43.08376021281696       10.41320418852955
H           77.10296951804777       43.89090825777819       11.06443878090353
H           76.84802035441572       43.41270863862358        9.38100590102720
H           77.42697890379911       42.23181197193230       10.56167587902677
C           75.85543508853949       40.93878157889029       12.51383398480286
H           76.39677713154406       41.52084050100730       13.25399748485291
C           75.99803345476744       39.62161046289334       12.46394121414215
H           75.48941292973706       39.02338030214348       11.72552535770092
H           76.64446639956009       39.08998144791497       13.14365710248239
C           71.44991499297460       38.25305147988902       13.38442232481490
H           71.78974484826684       38.70996162364714       14.31359874850662
H           72.31556903610564       37.79781137529142       12.90248192376538
H           70.73166536867949       37.47309280342078       13.62199060488543
C           68.45281894049469       38.44330838959164       12.32170145577924
H           68.39895541831874       37.49834900401544       11.79115875331813
C           67.57273558765429       38.76994682782210       13.25356723893522
H           67.65365126662309       39.70860763924387       13.77880353489587
H           66.75434990846090       38.13023286752786       13.53515980562828
C           65.83633936647999       41.76922266065142        8.94661984656766
H           65.24803022707761       41.63398774938730        9.85289150224160
H           66.13814894961840       40.78543723795506        8.58866215896837
H           65.21196680557624       42.23275202773017        8.18743278456548
C           66.30505106890320       44.83674451590407        8.21996451810636
H           65.34218562813901       44.71989145161389        8.71724400952049
H           66.15454797465144       44.64411241651579        7.15673835417656
H           66.62295795083448       45.86916820357462        8.33666306431287
C           71.28756715645218       45.57019408320988       15.17729825683683
H           70.67443717334524       45.30928912053459       16.03575770869826
H           71.38416685409896       46.65422942914778       15.13330657176924
H           72.27846710775908       45.14536242613053       15.30827244744691
N           69.40216550638729       45.01567961608554       13.56625123642444
H           68.63168626794955       45.34075740626368       14.13084758172977
C           70.72836231640309       45.03655291645205       13.91018254939491
C           69.31630032474835       44.44985555974934       12.33602718554789
H           68.38950136593526       44.32036376899725       11.81427434460072
N           70.49605476380749       44.11138728177077       11.88811145523691
C           71.38254664046951       44.48427880571375       12.84882112934424
H           72.43155019767261       44.33124738928585       12.70758075647968
C           73.18758060864221       40.55720194729653        5.37834229232044
H           72.62261097009041       40.61108205737393        4.44900150095538
H           73.63211450422862       39.56637707885147        5.45358032766063
H           73.98280816962232       41.29436212993279        5.34696230373859
N           71.21283668305695       40.10291423908297        6.87249860361423
H           70.88617576658936       39.28094917231687        6.38918094505621
C           72.31842559941843       40.84498538894047        6.54595015590780
C           70.67272281947658       40.65448592742609        7.98664984011629
H           69.77848220950419       40.29285649112513        8.45223470086774
N           71.36644408664527       41.68745091022787        8.38442551083329
C           72.38682043771959       41.82559314353720        7.48997147410313
H           73.09306235134063       42.62356647985955        7.58563043752497
87
 energy: -128.446033643914 gnorm: 0.019824587818 xtb: 6.7.1 (edcfbbe)
Fe          71.13012875848125       42.81404069894806       10.17413834094206
N           71.64312304520634       44.44247183924067        9.20113824302716
N           73.07116012918476       42.57565910175378       10.70051744181151
N           70.67551089579906       41.15468157341264       11.17925001959625
N           69.24948258323415       43.00013986504800        9.63949743700872
C           70.78031664092180       45.27824356633850        8.58075120958995
C           71.48881785714794       46.34134523540197        7.90119777781546
C           72.80696510440723       46.16014245643075        8.17263997357979
C           72.88569561098329       44.95215063624467        8.97528254169762
C           74.14600541035654       43.25778186468858       10.21781993128542
C           75.37222485484835       42.71875251641690       10.75634188020907
C           75.00621991979494       41.73815171033982       11.63293335316023
C           73.56860079387270       41.64259334397727       11.55027024951935
C           71.50482345350720       40.42207053846475       11.97132508860612
C           70.81760078744078       39.27343164004707       12.50537167876366
C           69.55175288541150       39.32294411643218       12.00746756376430
C           69.48109833990563       40.50846372793356       11.18798094648974
C           68.25702324907893       42.08397800262478        9.77832789654975
C           67.03955115421780       42.57854204137152        9.18245503695401
C           67.28792749283122       43.85983857348256        8.79393416359984
C           68.69189289330861       44.08201987576916        9.03939953690278
C           69.40187843684332       45.17140563380157        8.57666076032711
H           68.82754094795800       45.95419934667698        8.10819652307481
C           74.07067001470023       44.37980525312283        9.40371191417257
H           75.00352776210093       44.84323527324348        9.11817283121808
C           72.84186705935682       40.67235331439527       12.21165873966479
H           73.37333495677619       40.02308817751410       12.89083617806520
C           68.34999240693041       40.90294186938444       10.49380938295733
H           67.47323628386282       40.27498076524696       10.56412027623670
C           74.00335001525484       46.99338903588869        7.86192611972483
H           73.74155324152036       47.88176972003090        7.29504423922022