87
 energy: -124.720686666556 gnorm: 0.000056727940 xtb: 6.7.1 (edcfbbe)
Fe           3.23822903410884        2.94095675199823        6.34315564860122
N            4.15061618485849        2.74408601877249        8.11165569182960
N            4.77781337767432        4.01692762805971        5.67061735826724
N            2.34565604558867        3.10047499162431        4.55889490958506
N            1.71084726104217        1.82698743611844        7.00543192815427
C            3.73584517012456        1.99274018683502        9.16572492624574
C            4.66588452488801        2.10322859717836       10.26809792350101
C            5.64749670088530        2.94853011493303        9.85480347365180
C            5.31233271272352        3.32819114892844        8.50007183719480
C            5.85312433648819        4.43881606289486        6.38385698544413
C            6.74842101413845        5.21136012560604        5.55021463489903
C            6.19324327898226        5.22935100166450        4.30967040371377
C            4.95842622276473        4.48186181642218        4.40808228918393
C            2.86018694368414        3.66381513986689        3.43869160637257
C            1.91199776136434        3.58914804109014        2.34514153845285
C            0.80636240610045        2.95408424583691        2.84588380330454
C            1.10753681313883        2.64605505662049        4.22025406297878
C            0.56162204451396        1.53890843578510        6.34223000802807
C           -0.30739041957820        0.71238766452242        7.15802913394415
C            0.38052020858407        0.47767454861278        8.31956289192347
C            1.62773370073332        1.18723880088670        8.20291893185258
C            2.57552920618739        1.24647705551316        9.21056491263200
H            2.37535479104665        0.69377118555136       10.11571333745003
C            6.10321624814548        4.14185258579217        7.71005560481890
H            6.99945509484950        4.54863279991887        8.15295550366645
C            4.08342715228856        4.30454934540984        3.35444912471352
H            4.35977186919423        4.73025268690844        2.40189673852657
C            0.25323058866911        1.95151502532174        5.06013591547243
H           -0.71473373946771        1.67943383594867        4.66764442674194
C            4.50715061130538        1.40578168595696       11.57569157881228
H            4.46333020737037        0.32590337715953       11.43156717816835
H            3.58582777737706        1.71797418483363       12.06847509856939
H            5.34072436667146        1.62927286178073       12.23698258998578
C            6.85394097387424        3.42642436732549       10.58772683222262
H            6.85678289209242        4.51471768426056       10.64812786003383
H            7.76499229012096        3.11442889206666       10.07579948991278
H            6.87619700362200        3.02710836021255       11.59877648588259
C           -0.01331923137475       -0.37992557336770        9.47097176257922
H           -0.42377036388637        0.22202521379623       10.28374211798282
H            0.84709860933498       -0.92478139381043        9.85662586509982
H           -0.76980291778322       -1.09782648827293        9.16021834702320
C           -1.60891650984421        0.23054316963661        6.75313791739779
H           -1.73085035516829        0.04067127034054        5.69285009275698
C           -2.64030255756656        0.01972301597269        7.56479945202418
H           -2.59483013921755        0.23545835079358        8.61796769307821
H           -3.58052723603348       -0.35438548420205        7.19486741556990
C           -0.43977976760247        2.56325889673473        2.13061081506510
H           -1.24800190118802        3.26549703809434        2.34298177103677
H           -0.76772388593136        1.57105400115361        2.43769652336036
H           -0.26606796926699        2.55447800628017        1.05654507692351
C            2.15307057723696        4.09249020159653        1.01112039357084
H            3.17723309872399        4.02197223980131        0.66282470275307
C            1.23584130572966        4.62791528086031        0.21225430367112
H            0.21542296291667        4.76677750606651        0.52442739562061
H            1.48260080938274        4.97229765384145       -0.77840537305604
C            6.68744239681929        5.87526766805118        3.06098719480905
H            7.64095239398553        6.36905218398925        3.23163485995826
H            5.97383977417082        6.61988762679228        2.70738054971146
H            6.82083107260541        5.13419289449418        2.27238240681578
C            8.01734919750832        5.83045920719188        6.02737600385333
H            8.50736839476519        6.37588433240869        5.22460069148916
H            8.70546045035950        5.06746969400290        6.39319368591636
H            7.81895037994017        6.52523116540787        6.84343008888508
C            4.48240483002001       -1.99281569742386        4.06522442150602
H            4.76800345189653       -2.80740814730555        4.73075414845957
H            5.15660197745992       -2.00012119938507        3.20878291694247
H            3.47097494979849       -2.16951400338768        3.71308152299165
N            5.69686116270204       -0.20333152012410        5.32812786911264
H            6.59294166516924       -0.66220552701882        5.31702316121932
C            4.54202422476379       -0.68842505476225        4.77201683742931
C            5.41123016657005        0.99377748672688        5.88742820855991
H            6.12590866637162        1.60665084084407        6.39648024630253
N            4.14729542697223        1.29528315990263        5.71916954663998
C            3.59313941310696        0.25949631271300        5.02780001898670
H            2.55647929251396        0.26487452360381        4.76236904053843
C            1.71884268111372        6.57664846597672        5.03815594356146
H            0.98816594747711        6.97517035208185        4.33713085056566
H            2.46725406863377        6.01929870479144        4.48147097514930
H            2.21007823789261        7.40416698740899        5.54445254970592
C            1.03670877362248        5.67242770372955        6.04572052532392
H            0.52306803296864        4.84789587869266        5.55312995954691
H            0.33180410079951        6.23441177558999        6.65911274196489
S            2.28376875730882        4.95809636556171        7.19232885366019
C            1.14560821210188        4.48280534024140        8.52878679411509
H            0.35895330324910        3.84613186824898        8.13656401235412
H            0.72956411464836        5.38164224786665        8.97660205174558
H            1.73104729805256        3.93543570955436        9.25951238495326
