87
 energy: -124.460813106753 gnorm: 0.313603017445 xtb: 6.7.1 (edcfbbe)
Fe           3.21300000000000        2.85400000000000        6.32200000000000
N            4.09900000000000        2.67800000000000        8.04300000000000
N            4.71100000000000        4.02100000000000        5.66100000000000
N            2.31800000000000        3.06500000000000        4.59700000000000
N            1.72400000000000        1.70000000000000        6.99200000000000
C            3.73300000000000        1.89000000000000        9.13500000000000
C            4.69900000000000        2.02900000000000       10.22700000000000
C            5.61100000000000        2.87500000000000        9.81800000000000
C            5.26800000000000        3.32700000000000        8.47600000000000
C            5.69100000000000        4.57900000000000        6.45600000000000
C            6.47300000000000        5.46600000000000        5.68800000000000
C            6.00000000000000        5.39400000000000        4.32800000000000
C            4.88800000000000        4.49500000000000        4.38600000000000
C            2.86400000000000        3.57600000000000        3.41900000000000
C            1.88300000000000        3.43200000000000        2.33200000000000
C            0.76700000000000        2.91500000000000        2.85900000000000
C            1.05000000000000        2.61700000000000        4.24500000000000
C            0.55500000000000        1.43500000000000        6.32100000000000
C           -0.22500000000000        0.51800000000000        7.08500000000000
C            0.46900000000000        0.25100000000000        8.23300000000000
C            1.68000000000000        1.00000000000000        8.12500000000000
C            2.64800000000000        1.04200000000000        9.14700000000000
H            2.53200000000000        0.36600000000000        9.99400000000000
C            5.91200000000000        4.25200000000000        7.75000000000000
H            6.70300000000000        4.80200000000000        8.26000000000000
C            4.08800000000000        4.18200000000000        3.29300000000000
H            4.44800000000000        4.42800000000000        2.29400000000000
C            0.19800000000000        1.98900000000000        5.08700000000000
H           -0.84500000000000        1.90800000000000        4.78100000000000
C            4.55200000000000        1.30100000000000       11.56000000000000
H            4.51200000000000        0.26900000000000       11.15100000000000
H            3.51900000000000        1.63800000000000       11.79100000000000
H            5.16600000000000        1.29800000000000       12.48600000000000
C            6.88600000000000        3.35300000000000       10.51500000000000
H            6.68100000000000        4.43800000000000       10.39700000000000
H            7.62000000000000        3.03900000000000        9.74200000000000
H            7.30300000000000        3.17300000000000       11.52900000000000
C            0.13800000000000       -0.71300000000000        9.32300000000000
H           -0.78700000000000       -0.16900000000000        9.61100000000000
H            0.56500000000000       -1.20100000000000       10.22500000000000
H           -0.11700000000000       -1.48000000000000        8.56100000000000
C           -1.65300000000000        0.02400000000000        6.70000000000000
H           -1.74300000000000       -0.98600000000000        6.27500000000000
C           -2.70100000000000        0.45000000000000        7.58100000000000
H           -2.67200000000000        1.44900000000000        8.04100000000000
H           -3.54600000000000       -0.21700000000000        7.80700000000000
C           -0.55600000000000        2.60000000000000        2.15200000000000
H           -1.20900000000000        3.22400000000000        2.79900000000000
H           -0.61800000000000        1.54300000000000        2.49000000000000
H           -0.90400000000000        2.68400000000000        1.10000000000000
C            2.17800000000000        3.77200000000000        0.87200000000000
H            3.20400000000000        3.48500000000000        0.62900000000000
C            1.39900000000000        4.69600000000000        0.12400000000000
H            0.37000000000000        4.93600000000000        0.43100000000000
H            1.81600000000000        5.18200000000000       -0.77000000000000
C            6.48300000000000        6.17700000000000        3.15200000000000
H            6.59800000000000        7.09700000000000        3.76500000000000
H            6.17500000000000        6.46500000000000        2.12400000000000
H            7.45500000000000        5.64100000000000        3.12100000000000
C            7.61300000000000        6.32400000000000        6.16600000000000
H            7.19500000000000        7.24800000000000        5.71300000000000
H            8.31000000000000        5.85100000000000        5.44100000000000
H            8.15800000000000        6.59300000000000        7.09600000000000
C            4.39500000000000       -2.25600000000000        4.51500000000000
H            4.81800000000000       -2.85900000000000        5.34600000000000
H            4.98200000000000       -2.45200000000000        3.59300000000000
H            3.33500000000000       -2.55000000000000        4.36000000000000
N            5.67400000000000       -0.19400000000000        5.11500000000000
H            6.57300000000000       -0.61900000000000        5.01100000000000
C            4.47000000000000       -0.81400000000000        4.86100000000000
C            5.42800000000000        1.03800000000000        5.51200000000000
H            6.20200000000000        1.77400000000000        5.73000000000000
N            4.12100000000000        1.22200000000000        5.59700000000000
C            3.51600000000000        0.08100000000000        5.18700000000000
H            2.43600000000000        0.00400000000000        5.16300000000000
C            2.63000000000000        6.82600000000000        5.52700000000000
H            2.18300000000000        7.49900000000000        4.76500000000000
H            3.48200000000000        6.28300000000000        5.06500000000000
H            2.99600000000000        7.44400000000000        6.37500000000000
C            1.59800000000000        5.84000000000000        6.01700000000000
H            1.24100000000000        5.23900000000000        5.15400000000000
H            0.73500000000000        6.40300000000000        6.43000000000000
S            2.25900000000000        4.75800000000000        7.26700000000000
C            0.80300000000000        4.34700000000000        8.08400000000000
H            0.08300000000000        3.84800000000000        7.40000000000000
H            0.31700000000000        5.26200000000000        8.48600000000000
H            1.01700000000000        3.65200000000000        8.92300000000000
87
 energy: -124.586318532822 gnorm: 0.167310342869 xtb: 6.7.1 (edcfbbe)
Fe           3.20899786588309        2.86286880816154        6.32509290428103
N            4.11063310153215        2.66602577198569        8.06290631116852
N            4.69815486359644        4.00857867333232        5.66040823554945
N            2.31765154858513        3.06093830658068        4.57383571697159
N            1.72710177220829        1.70753029276699        6.97776222482980
C            3.74152904492240        1.87992786410288        9.13327946563276
C            4.69489147084342        2.01973659802546       10.23543411619684
C            5.62220078133883        2.88020092746306        9.82692366561182
C            5.25825496001502        3.31610521147325        8.48753685550463
C            5.67119154631625        4.57412605434238        6.44013405343023
C            6.45305082186928        5.46199974642483        5.67474336043949
C            5.97698517452528        5.38793525750615        4.35378771258704
C            4.88214084799981        4.47956204035164        4.39604555781589
C            2.86101121813366        3.55879109674774        3.40634530306023
C            1.89593324055589        3.43737900472601        2.30765914406701
C            0.77058562295001        2.92053108000418        2.83953634158829
C            1.05083460851590        2.63592212177416        4.23650155414180
C            0.55211569271572        1.44655222927421        6.32347171471452
C           -0.24008562890420        0.53297159990482        7.08885167733089
C            0.48857198161694        0.25298779430406        8.22222867964595
C            1.69506098345846        1.00406165430196        8.12153067243785
C            2.65257528849832        1.04240941335601        9.14070339564694
H            2.52211843810906        0.37722843555344        9.98816549996226
C            5.91359717544449        4.25576069973643        7.75513294670780
H            6.71169933983257        4.79918459667667        8.25176369533784
C            4.08558230739838        4.17041199611274        3.29598619374151
H            4.44086161025413        4.44158760280297        2.30641928041350
C            0.19216165726962        1.99241004249356        5.09165980890365
H           -0.84189445313105        1.88546128539387        4.78026250967935
C            4.51846080123414        1.28296006136204       11.53865569505116
H            4.49501079151898        0.24599262841028       11.18493206866567
H            3.51046534095257        1.60870207505828       11.82108919357159
H            5.17136838851574        1.33184052539896       12.42670667307911
C            6.88815599773982        3.37791577111620       10.48201425133452
H            6.72427382703336        4.45816323440918       10.40728130332359
H            7.64785855495569        3.06171832185638        9.75620519445818
H            7.24882749739029        3.14923927452912       11.49839734445822
C            0.09226114661742       -0.71640827266232        9.29440626037018
H           -0.82083999656966       -0.21180215980808        9.63574061196037
H            0.59571932046071       -1.14876969103401       10.17684475880940
H           -0.16108854975257       -1.52805533027940        8.60169123294061
C           -1.63793516385378        0.01161181192491        6.79139897624683
H           -1.73717025336818       -0.95774690827313        6.28163464787679
C           -2.67608918924645        0.43787384747896        7.56894022879439
H           -2.65765766268211        1.42027572488101        8.03879109289901
H           -3.54432794901727       -0.19208849485376        7.76591459768046
C           -0.56030299947977        2.58927669971114        2.19465176196948
H           -1.24422585892680        3.20662011843173        2.79132561807033
H           -0.66223637978562        1.53563006048871        2.48157174068793
H           -0.84089553842271        2.69654520829959        1.13275818527914
C            2.17993607386481        3.82787400563299        0.89677083152125
H            3.18252352135463        3.50525303932536        0.61075627470010
C            1.42140717614285        4.67316888435594        0.14924813058726
H            0.40355050769333        4.93062548942409        0.43984855003232
H            1.80617620008925        5.14273915502246       -0.75793635657337
C            6.51689056614598        6.18173383333925        3.19633209146662
H            6.64075340559345        7.13368488028951        3.72931014813861
H            6.14080200583530        6.41498006790454        2.18199461951140
H            7.48940258919941        5.67955095212502        3.09447469715611
C            7.60906347794855        6.32883642679140        6.10887378768231
H            7.24331217470790        7.28326310468304        5.70705122174817
H            8.35992126236076        5.89657151605611        5.43482848996049
H            8.09408634933096        6.54142822572998        7.08071097449995
C            4.39671542515330       -2.26109178975257        4.51268694239190
H            4.81284233953504       -2.86088781097857        5.33309280361881
H            4.97353371290916       -2.45878651270177        3.60031775919578
H            3.35097119221749       -2.54878606843853        4.35894824697640
N            5.67449959540037       -0.20133516440455        5.10752639857720
H            6.57835450532207       -0.62522335243401        5.00299207930923
C            4.47347247347729       -0.82515315111738        4.87229064141820
C            5.42101140498403        1.04413835382744        5.51975878206103
H            6.18705786912628        1.77188827685247        5.73496420858906
N            4.12107797655241        1.23947102441866        5.59802382938708
C            3.51908456125204        0.08839199855523        5.19219998851350
H            2.44654157928151        0.00810604160336        5.16194608832876
C            2.63276811280093        6.83222126841056        5.52386018981815
H            2.19162248806148        7.49561345620612        4.77059597402286
H            3.47404415262599        6.29553974216475        5.07200408721658
H            2.99703738349028        7.43836738952345        6.36277555688227
C            1.58949198783883        5.84777742323439        6.00443737000425
H            1.23729179098106        5.24016410141004        5.15935886115231
H            0.73641635420720        6.39547170165920        6.43115888772876
S            2.27722213703568        4.76755482113133        7.26855783481206
C            0.78547900195414        4.34427268430261        8.08936362062247
H            0.08277112085450        3.84735821815470        7.40734257534208
H            0.31530287365099        5.25323222293666        8.49049036834726
H            1.01341964335366        3.65930483263120        8.91498341032732
87
 energy: -124.655257481258 gnorm: 0.077687031255 xtb: 6.7.1 (edcfbbe)
Fe           3.21013531911939        2.86580390153812        6.32106167344116
N            4.12417540811605        2.65885916874301        8.08254856609053
N            4.68837283813972        4.00134856184650        5.66250727585952
N            2.31106479746473        3.05992111032825        4.54915211775687
N            1.72821671733568        1.71551278398857        6.96630706062981
C            3.75471915793517        1.87223204868667        9.12984127351005
C            4.69503070474593        2.01110072164142       10.24055818144427
C            5.63138329450256        2.88613762590047        9.83435985280711
C            5.24933301137684        3.30688867514268        8.49424842212235
C            5.65531487388061        4.56916281534618        6.43283229950076
C            6.44266369917621        5.46318369621437        5.66199289014494
C            5.96617494449253        5.38869456259010        4.37157932590861
C            4.87686965782160        4.46967389321118        4.40139239491384
C            2.85435163104417        3.54230705665422        3.39463555245125
C            1.90000726740536        3.43769982260318        2.28973893714848
C            0.76452649498241        2.92538119505158        2.82818350134589
C            1.05094253302964        2.64936139275452        4.22939874797867
C            0.54997806096628        1.46037772730690        6.32607567893455
C           -0.25530780348109        0.54804260940089        7.09364001514195
C            0.49971706658918        0.25189175126301        8.21299174452761
C            1.70684850651045        1.00330715780877        8.11859996515864
C            2.65697682535529        1.04158317707065        9.13322805973952
H            2.50970329407392        0.38922777044196        9.98294195988414
C            5.91624396078889        4.25789591961220        7.75911778124737
H            6.71980341469399        4.79477023481050        8.24110041653184
C            4.08215198053464        4.16107482079562        3.29875453725535
H            4.43212714447000        4.45893015251003        2.31888862054619
C            0.18924314738248        1.99398129604372        5.09407849315699
H           -0.83606103487843        1.85906832302850        4.77633025201273
C            4.48836719824237        1.26656788885021       11.51642976434733
H            4.47524364826486        0.21888829524801       11.22226609040953
H            3.49950898326870        1.57524478418429       11.85307884091609
H            5.18488729547888        1.37316580663464       12.36123915642323
C            6.88760487706424        3.40062297210195       10.45157673110062
H            6.77156196610028        4.48127999531623       10.41907068390925
H            7.67896241809279        3.08823829945551        9.77012505349847
H            7.18377027222047        3.11849813608729       11.47153583716514
C            0.04437384804310       -0.71826332370954        9.26095791291897
H           -0.85637945092449       -0.25318008046754        9.65793572539244
H            0.63959203408806       -1.08319614732645       10.11839331196914
H           -0.21097457891846       -1.57629265359427        8.64055439295946
C           -1.61773222403787        0.00524072289043        6.86276627640577
H           -1.71133696458170       -0.93348501149782        6.29886099764590
C           -2.64976108464240        0.42905529131818        7.56364497893902
H           -2.63886683261239        1.39158239863963        8.06000196736355
H           -3.55171651806636       -0.16085615221239        7.70956962870285
C           -0.56458821779887        2.58048578548047        2.23485464870809
H           -1.28205370670902        3.18844085323246        2.78588415872666
H           -0.70667193870584        1.52801948769365        2.47505202531757
H           -0.76626513442669        2.71455222978484        1.16131751142901
C            2.18497288096532        3.85938827331050        0.91999116551182
H            3.17538576960008        3.53616547871372        0.59852436881413
C            1.43898726794930        4.65351885708352        0.17321148396891
H            0.43301875079671        4.93877391514950        0.45612414922577
H            1.79372495463662        5.09734160446476       -0.75287038589530
C            6.55128185116853        6.18526006933102        3.23857409465608
H            6.68377961815814        7.16603031747181        3.69559472786835
H            6.09009736608031        6.35202086394577        2.24594807608058
H            7.52251872675868        5.71490543997634        3.07174236965195
C            7.60367237331212        6.33339608087388        6.05279590861490
H            7.29238175816163        7.31731470339168        5.69843926531688
H            8.40651371971091        5.94182722872906        5.42709799856557
H            8.01396193040734        6.47532306465927        7.07184124796462
C            4.39699226041210       -2.26466856110857        4.51139162962696
H            4.80911624672820       -2.86692717164072        5.32204418820554
H            4.96712530725001       -2.46253444422385        3.60472994658247
H            3.36069467738140       -2.54805476442644        4.35671455803505
N            5.67549768809598       -0.20640237849218        5.10260957735380
H            6.58305715731022       -0.62765593524838        4.99717525045107
C            4.47626451106793       -0.83244853458772        4.88487500304112
C            5.41578469482256        1.04866617941396        5.52522281754169
H            6.17586205790460        1.77065694129203        5.74108100171007
N            4.12328264341237        1.24996344396640        5.60050399002931
C            3.52309733399432        0.09360129718702        5.19695424121412
H            2.45600734564338        0.00877459263546        5.16072132223397
C            2.63382632335448        6.84019079505833        5.51813915566171
H            2.19951368524571        7.49891993547542        4.77045154665509
H            3.46821711347808        6.30531787918400        5.07568772008186
H            2.99643272818788        7.43455168373656        6.35405278487731
C            1.58185521833512        5.85669072651158        5.99186042463201
H            1.23453356439798        5.24068252344865        5.16341096881060
H            0.73805261816729        6.38982124098569        6.43356490005217
S            2.29137447277275        4.77093545655066        7.26932088639235
C            0.76414670296660        4.33980592778553        8.09938277589395
H            0.08254510935255        3.84705024626166        7.41120105954930
H            0.31256978446838        5.24771401525204        8.49589027610840
H            1.01062098453053        3.66205345743849        8.91179821347666
87
 energy: -124.685923530339 gnorm: 0.047897255118 xtb: 6.7.1 (edcfbbe)
Fe           3.21192294312023        2.86740118335603        6.31661534721218
N            4.13510098014500        2.65154676484995        8.08684199117568
N            4.68558844078434        3.99957433555975        5.66372025190500
N            2.30788175912230        3.05430916621816        4.53799484163626
N            1.73015199093232        1.72062129601178        6.96218852622591
C            3.76540487147293        1.86212878575397        9.12295455084498
C            4.69543784483791        2.00225957196254       10.23612058026304
C            5.63287152780091        2.89021014779912        9.83323770562271
C            5.24679404095307        3.30420207553724        8.49308262502887
C            5.65024029843043        4.56790549955951        6.43288502277908
C            6.44340887860206        5.46620788976531        5.65377865062705
C            5.96808229142697        5.38950013084469        4.37325700961996
C            4.87373684585240        4.46535943455062        4.39973402604890
C            2.85322436978372        3.52769705885409        3.39075385245532
C            1.89937930445516        3.43276882969705        2.29209532448153
C            0.75683109787695        2.92486684192968        2.83278091887383
C            1.04863717725458        2.65479812831601        4.23027557413965
C            0.55021379109243        1.47506201557345        6.32956573852503
C           -0.25402312809493        0.56148973375299        7.10017930653293
C            0.49933500328173        0.25093717714294        8.20860814916106
C            1.71225815893668        0.99937602397979        8.11529183255626
C            2.66055994170603        1.03732831417076        9.12529144511332
H            2.49636193324712        0.40034411774504        9.98164773712047
C            5.91882423536812        4.25924810102050        7.75812128217696
H            6.73125366871847        4.78815101148852        8.22928583060652
C            4.07998566391390        4.15541587649669        3.30141717556182
H            4.41958435851327        4.48309161610435        2.32851309618059
C            0.18711077020136        1.99603203363908        5.09637031328719
H           -0.82993587610750        1.82506569567271        4.76813193036818
C            4.47307940153468        1.25472312454138       11.50192418566551
H            4.45875805634082        0.18977453063437       11.26273390760206
H            3.49152806752607        1.54086399167591       11.88560136140386
H            5.20869556688118        1.41524490674765       12.30251696604981
C            6.88501161662661        3.41464653950956       10.43704458925365
H            6.81930938962542        4.50391903685097       10.43765389808106
H            7.71187810179969        3.11577996893543        9.78855251485506
H            7.11801313530879        3.08389726639331       11.45798931218159
C            0.01676886402736       -0.71761686642077        9.23840419791657
H           -0.88715998647687       -0.29534864697557        9.68066085647137
H            0.68580222890850       -1.02086032863439       10.06462866604465
H           -0.25926825540292       -1.61909779857533        8.68267175386615
C           -1.58900561434122       -0.00945642990876        6.89968464789019
H           -1.67123035154214       -0.92992310290017        6.31823230575704
C           -2.66002587268908        0.44034388936100        7.54980523446142
H           -2.62284980522904        1.37060134159234        8.10557055415888
H           -3.58479758944141       -0.12304126606441        7.63663086837320
C           -0.56866791564717        2.57634378717835        2.25806709823901
H           -1.32411069724462        3.17042614500253        2.77681449900727
H           -0.75364611996178        1.52064387564067        2.46531425068299
H           -0.69284505028244        2.73673098310100        1.17746804060421
C            2.20453475233455        3.87990447144855        0.94394332267912
H            3.18759778561518        3.57064475687412        0.59455418635667
C            1.43537815074883        4.64403220937082        0.17580151996555
H            0.44686113190184        4.95779709901605        0.47913818984563
H            1.77387736704776        5.04792260157627       -0.77069490516374
C            6.57017914737902        6.18339287105307        3.25961607155071
H            6.72314033769695        7.19235716953418        3.65422333237348
H            6.03357917416159        6.28719770722791        2.29841375543158
H            7.55137590985653        5.74952332832364        3.04641819406487
C            7.60024065199588        6.33491746798157        6.02012513544813
H            7.34409674930633        7.34816083162347        5.69489829525409
H            8.45035812193611        5.98831163568274        5.42368475923459
H            7.93656283035522        6.40835558429926        7.07210001217914
C            4.39711094631198       -2.26576446647831        4.51105188020584
H            4.80691985806246       -2.87948237869443        5.31325096841904
H            4.96374070393923       -2.46316560563677        3.60318137977537
H            3.36216205848306       -2.54708880351064        4.35283567857401
N            5.67778537300230       -0.20740295198697        5.10342191573580
H            6.58680781279698       -0.62581183088707        4.99297995863834
C            4.47861596519061       -0.83486463907274        4.89593905921730
C            5.41456623971761        1.05053097919490        5.52946515982599
H            6.17153438158983        1.77232710820891        5.75054227464008
N            4.12446123229032        1.25397458510363        5.60321149457645
C            3.52656652260309        0.09486104506868        5.20323850939809
H            2.46124835751006        0.00774372830535        5.16102402550171
C            2.63134950727140        6.84806880198800        5.51244834396279
H            2.20529901821541        7.51004193297084        4.76443801456644
H            3.46628342866969        6.31310252316579        5.07420868707361
H            2.99559487770845        7.43709265412920        6.34962612636389
C            1.57714620851641        5.86498129009658        5.98404779768955
H            1.23019579669135        5.24088091203637        5.16403852423195
H            0.73623904934584        6.38845679796303        6.43695971495065
S            2.29440223086701        4.77461766065780        7.26942929578465
C            0.74956773544563        4.33762996500314        8.10804580748189
H            0.07804081018635        3.84580322204268        7.41346164636026
H            0.30578937329549        5.24535638015502        8.50557782440241
H            1.00833004800529        3.66009955112799        8.91364369870806
87
 energy: -124.697106270479 gnorm: 0.046393645235 xtb: 6.7.1 (edcfbbe)
Fe           3.21355807590526        2.86680954742113        6.31307579638673
N            4.14292545402771        2.64464039906321        8.08083783881344
N            4.68712986619309        4.00362642368775        5.66241066184339
N            2.30744703517182        3.04765282760748        4.53677882268111
N            1.72949772512695        1.72078111861179        6.96276085187645
C            3.77389851802200        1.85115626769757        9.11267485612879
C            4.69679132382614        1.99232265028526       10.22603741065709
C            5.63216862931451        2.89283474831451        9.82744038664949
C            5.24897653966743        3.30256459026891        8.48699579597575
C            5.65446334202847        4.56904764469822        6.43112888554106
C            6.45266807771184        5.46887772671564        5.64470961137274
C            5.97777638802793        5.38886093743235        4.36614369690561
C            4.87294202900469        4.46750544729017        4.39526320787181
C            2.85147775284737        3.51987406837954        3.39128648127608
C            1.89458049396191        3.43260090721617        2.29858890769107
C            0.74814879089936        2.92686755830574        2.84303655460305
C            1.04701588728850        2.65370635473920        4.23346049138288
C            0.54801212905849        1.48437873938467        6.33285633123682
C           -0.25827551376289        0.57459394470862        7.10660159739963
C            0.49124111890635        0.24532757797567        8.20567120770184
C            1.71139891273322        0.99287424116027        8.11376815282770
C            2.66268306318586        1.03216271113461        9.11775326336211
H            2.48671607362862        0.41051281226846        9.98235752815487
C            5.92487417967636        4.25808610699408        7.75216929341115
H            6.74610609994595        4.77789164441391        8.21765500254213
C            4.07545192081399        4.15808751708068        3.30445931114708
H            4.40073486997528        4.51291918106624        2.33637438704301
C            0.18584428578341        1.99163007045083        5.09632661486069
H           -0.82188627313949        1.78679788833902        4.75744570607592
C            4.47686816416719        1.24912197686713       11.49474216486562
H            4.46242416954454        0.17329407582239       11.29773045416643