72
 energy: -105.884486575186 gnorm: 0.295418994266 xtb: 6.7.1 (edcfbbe)
Fe          -6.07300000000000       24.97700000000000      271.32700000000000
N           -4.42500000000000       23.80000000000000      271.13299999999998
N           -5.73000000000000       25.01400000000000      273.40499999999997
N           -7.96100000000000       25.83200000000000      271.68399999999997
N           -6.55500000000000       24.70499999999999      269.40699999999998
C           -3.88800000000000       23.44000000000000      269.94799999999998
C           -2.62500000000000       22.83400000000000      270.15199999999999
C           -2.41900000000000       22.85300000000000      271.48999999999995
C           -3.54900000000000       23.45100000000000      272.09299999999996
C           -4.74700000000000       24.42299999999999      274.00099999999998
C           -4.87300000000000       24.67600000000000      275.37099999999998
C           -5.96600000000000       25.46300000000000      275.52199999999999
C           -6.53700000000000       25.66000000000000      274.19900000000001
C           -8.34800000000000       26.48999999999999      272.76299999999998
C           -9.50900000000000       27.20600000000000      272.46800000000002
C           -9.79200000000000       26.91100000000000      271.14999999999998
C           -8.81900000000000       26.02500000000000      270.67599999999999
C           -7.73500000000000       24.86900000000000      268.88999999999999
C           -7.70800000000000       24.41600000000000      267.50500000000000
C           -6.50000000000000       23.87300000000000      267.32700000000000
C           -5.78500000000000       23.99700000000000      268.59699999999998
C           -4.47900000000000       23.57000000000000      268.72800000000001
H           -3.90600000000000       23.33100000000000      267.83300000000003
C           -3.70600000000000       23.65100000000000      273.43199999999996
H           -2.98600000000000       23.18800000000000      274.10599999999999
C           -7.66800000000000       26.43500000000000      273.95800000000003
H           -8.04400000000000       27.04500000000000      274.77899999999994
C           -8.83500000000000       25.51600000000000      269.40199999999999
H           -9.72900000000000       25.62600000000000      268.78899999999999
C           -1.20800000000000       22.32200000000000      272.20400000000001
H           -0.36100000000000       22.24200000000000      271.48899999999998
H           -1.42700000000000       21.31400000000000      272.61700000000002
H           -0.92200000000000       23.01400000000000      273.02499999999998
C           -1.67200000000000       22.33500000000000      269.07799999999997
H           -0.98200000000000       23.15500000000000      268.78399999999999
H           -2.24900000000000       22.01200000000000      268.18500000000000
H           -1.07400000000000       21.48500000000000      269.47199999999998
C           -3.95400000000000       24.22300000000000      276.45999999999992
H           -3.16400000000000       24.98699999999999      276.62000000000000
H           -3.47400000000000       23.26300000000000      276.17099999999994
H           -4.52600000000000       24.09300000000000      277.40400000000000
C           -6.57100000000000       26.02800000000000      276.71400000000000
H           -7.66700000000000       26.05400000000000      276.79700000000003
C           -5.88600000000000       26.51600000000000      277.71199999999993
H           -4.78600000000000       26.51800000000000      277.68700000000001
H           -6.40000000000000       26.93200000000000      278.59100000000001
C          -10.22700000000000       28.10600000000000      273.42700000000002
H          -10.10200000000000       29.16300000000000      273.10800000000000
H           -9.80100000000000       27.98500000000000      274.44600000000003
H          -11.31000000000000       27.85800000000000      273.43599999999992
C          -10.89400000000000       27.38200000000000      270.32900000000001
H          -10.99800000000000       27.04100000000000      269.28899999999999
C          -11.77800000000000       28.21200000000000      270.79899999999998
H          -11.62200000000000       28.70200000000000      271.77099999999996
H          -12.69300000000000       28.43400000000000      270.23000000000002
C           -8.83900000000000       24.51100000000000      266.51999999999998
H           -9.12100000000000       25.57700000000000      266.38099999999997
H           -9.71900000000000       23.95200000000000      266.90400000000000
H           -8.52100000000000       24.09200000000000      265.54100000000000
C           -5.97000000000000       23.21200000000000      266.08199999999999
H           -5.47400000000000       23.97200000000000      265.44099999999997
H           -6.80800000000000       22.75400000000000      265.51499999999999
H           -5.22700000000000       22.43300000000000      266.35800000000000
O           -7.16000000000000       22.79100000000000      271.61399999999992
H           -6.46400000000000       22.13800000000000      271.53999999999996
H           -8.02200000000000       22.62600000000000      271.75700000000001
C           -3.48200000000000       27.02400000000000      270.64400000000001
H           -2.83500000000000       27.69100000000000      271.25299999999999
H           -3.37700000000000       27.32300000000000      269.57900000000001
H           -3.11500000000000       25.98300000000000      270.76700000000000
S           -5.19000000000000       27.13900000000000      271.15099999999995
H           -4.96800000000000       26.74200000000000      272.39499999999992
72
 energy: -105.943722312673 gnorm: 0.120903849459 xtb: 6.7.1 (edcfbbe)
Fe          -6.13194635474480       24.88258513477854      271.34988719383858
N           -4.41957608897730       23.82583857361636      271.12281480425611
N           -5.74082421207696       25.00835106652967      273.35601811661923
N           -7.92660698952663       25.81759654827142      271.66267345311036
N           -6.55334595093318       24.67413724693278      269.42962124138819
C           -3.87493068888209       23.45096434044344      269.94032727345547
C           -2.60096920992184       22.83375078323891      270.14786451269663
C           -2.39808882134739       22.83811760170620      271.49141894884235
C           -3.54441211918172       23.45318363296860      272.09030950006053
C           -4.74455488695998       24.40812203059124      274.00085385567871
C           -4.87272232344533       24.68015602377044      275.39492856085724
C           -5.97986501053715       25.46634109150807      275.53855948599949
C           -6.53425844351472       25.66156036192683      274.20707214565414
C           -8.32714849912531       26.49387351148868      272.75408866770505
C           -9.51771134619242       27.21874311852508      272.46797995843065
C           -9.81610366922129       26.92885692287945      271.15398054801085
C           -8.81826814895792       26.03245201735306      270.67868548262703
C           -7.73879906092953       24.88096549847931      268.86389205281711
C           -7.71769751989465       24.40473514707669      267.48863821118948
C           -6.49592671504379       23.86684904449962      267.30229789073650
C           -5.77201382020837       24.02225049775448      268.55739131181946
C           -4.47406272560941       23.58492504937547      268.71186449006507
H           -3.91328502704651       23.31359491114956      267.83063650243366
C           -3.71146803226693       23.65240559283576      273.43921706800421
H           -2.98935053028693       23.20415251379926      274.10809421650885
C           -7.65681642039345       26.43414897975068      273.96218002961098
H           -8.04162912536063       27.02504138151402      274.78370035424734
C           -8.82904215739338       25.52052929922753      269.39834926547587
H           -9.71423427819776       25.63324261556098      268.79085596007559
C           -1.20074792387305       22.31744555887373      272.20957907109829
H           -0.36392175450531       22.23802146972580      271.50916625216155
H           -1.41456684640139       21.32436362883351      272.62209629076085
H           -0.91901100704142       22.99563837312754      273.02157854055645
C           -1.67218446726448       22.33602603696044      269.08120558506556
H           -0.98781005666380       23.14055915868301      268.78415061168693
H           -2.23357067672369       22.01312515067142      268.19888953314177
H           -1.08220363494499       21.49500415174506      269.45849592412907
C           -3.95317313209536       24.21868305732203      276.46951235223247
H           -3.16716632786867       24.96745444081474      276.62817194638615
H           -3.47947156081245       23.27163549296262      276.18929901590690
H           -4.51188825741406       24.08903582111603      277.40145533815416
C           -6.57864863982196       26.02203581489906      276.72880975994559
H           -7.66535948075248       26.05043920973907      276.78614333791649
C           -5.88184130628156       26.51628405119541      277.73643363212437
H           -4.79871997773556       26.52997491600723      277.70734515073002
H           -6.38090634815393       26.93401456891385      278.60100651602272
C          -10.22573576693925       28.10605824561665      273.43304483655896
H          -10.10636312229473       29.15386342316823      273.12712275064609
H           -9.80998948878599       27.99028148563643      274.43759191808891
H          -11.29362498688333       27.85903134825216      273.46163408577587
C          -10.90942545166321       27.39016945602012      270.33556604194575
H          -10.99950200493922       27.02432180622631      269.31395154282018
C          -11.81174142071210       28.23955318551533      270.79205465312197
H          -11.67552607280104       28.71442141613239      271.74739760850525
H          -12.69897964733091       28.46980506123307      270.22152552549625
C           -8.84233755768160       24.51322385667652      266.51768397102859
H           -9.12201370738175       25.56416028743333      266.37793231855937
H           -9.71393251792054       23.96264187852507      266.88951563800072
H           -8.53625308749904       24.10182994909941      265.55134468286457
C           -5.96394287669316       23.21156820887047      266.07384799144381
H           -5.47428370777587       23.95906828833182      265.43844289965813
H           -6.78568104082768       22.75522026218385      265.51374422085991
H           -5.23614574895845       22.43978620168591      266.34094102322098
O           -7.13090836349179       22.81748330868195      271.60904330340441
H           -6.46772757387199       22.13399937232589      271.53940453695088
H           -8.03803195894981       22.62261915269977      271.75862911531982
C           -3.46284192740351       27.01974181453144      270.64118506958880
H           -2.84279188681673       27.68937811324956      271.24822759759240
H           -3.38110374772122       27.31782824325199      269.59138727862677
H           -3.11165089217603       25.99033145141670      270.75687836465823
S           -5.19016285331752       27.11915591336538      271.14182550062503
H           -4.95945301463212       26.77024683072736      272.40453756440274
72
 energy: -105.962328447012 gnorm: 0.033517584505 xtb: 6.7.1 (edcfbbe)
Fe          -6.15495243604911       24.84697124186926      271.36267949863674
N           -4.42050210735389       23.84832018479315      271.11536353560695
N           -5.77249852493718       24.97376271640959      273.31814887064473
N           -7.89433851028770       25.80450160781760      271.63754818748424
N           -6.55953199592029       24.62405201370354      269.45584516655765
C           -3.86609168720393       23.46720470900023      269.93529357702471
C           -2.58568020136059       22.84163244041097      270.14697668811357
C           -2.38800801330851       22.83195805190312      271.49402471527083
C           -3.54681868580100       23.45800528385621      272.08732992050784
C           -4.75758860086892       24.38730943254563      274.00295636150065
C           -4.87605999228466       24.68354867546997      275.40929679554296
C           -5.98803959252472       25.47014395814414      275.54719470304991
C           -6.53829225936160       25.64325340682606      274.21657973772625
C           -8.30241817088386       26.49144183768896      272.74043082493750
C           -9.51149920800716       27.22430919669409      272.46887374118410
C           -9.83530456164689       26.94067238919510      271.16167725440476
C           -8.81734838730059       26.03963505387103      270.67979372719304
C           -7.74206757783766       24.87471185457809      268.84406893540648
C           -7.71980584704442       24.40193258721226      267.47492572099367
C           -6.48709956121760       23.87457624626143      267.27781995920697
C           -5.76773276837830       24.03300162988383      268.52451948769527
C           -4.47336157501158       23.59458471822236      268.70230136377052
H           -3.92120882205224       23.28758452844700      267.83048863675054
C           -3.72314057395691       23.65687612006391      273.44331554991447
H           -2.98873584265275       23.22915160709691      274.10720780395650
C           -7.64857852127814       26.42260538579743      273.96006828953847
H           -8.04483347006357       26.99649476618169      274.78369186063293
C           -8.81926381186650       25.52114016683103      269.39769117270993
H           -9.69403392007262       25.65043187267916      268.78622468415620
C           -1.19794435603480       22.31366824762730      272.21850582557039
H           -0.36125551971974       22.23063752903131      271.53192017467683
H           -1.40322446895143       21.32889319747862      272.63555662766834
H           -0.91653303562497       22.98139649624987      273.02722956354268
C           -1.67205415211332       22.33921180668469      269.08492717557806
H           -0.98727693499218       23.13025295644131      268.77850279796974
H           -2.22534160994543       22.01366076464507      268.20967750417236
H           -1.08541275593230       21.50149937954192      269.45030843640171
C           -3.95335209453383       24.21444250553067      276.47540408761904
H           -3.16408492772236       24.94890649687258      276.63623562223228
H           -3.48726688538558       23.27154393632495      276.20472144588433
H           -4.49967610049653       24.08828971055359      277.40537528181295
C           -6.57890759465442       26.02645791615229      276.73975427758944
H           -7.66038681529192       26.04787456350592      276.77906659584562
C           -5.87829360997444       26.51922340912882      277.75560719810096
H           -4.80558939319553       26.53898486868234      277.73093277474567
H           -6.36621944843543       26.93002737658674      278.61851248989512
C          -10.21416443352257       28.10115770253913      273.44364850601045
H          -10.10978659683777       29.14593791577371      273.14806928015395
H           -9.80302126067180       27.99017293798774      274.44032732624402
H          -11.27411392283494       27.85463255159607      273.48587998296688
C          -10.93305780351129       27.39584709005117      270.35462703418153
H          -11.01169227176762       27.00187144510857      269.35011325363746
C          -11.84872047008969       28.26446055020407      270.78193658480944
H          -11.74586219457151       28.73470779430615      271.73184717932344
H          -12.70373606012806       28.51811267719623      270.18743293095150
C           -8.84628925466034       24.51446171538338      266.51400880356209
H           -9.12571867543414       25.55702409317091      266.37724461892429
H           -9.71653702242251       23.97057515318324      266.87639927347323
H           -8.55407984675354       24.10938492683011      265.55081853523728
C           -5.95572167239341       23.21473894128817      266.05892386201504
H           -5.46354693577923       23.94784411766788      265.42245883609917
H           -6.76663454969216       22.75793841093865      265.49965268455651
H           -5.23989105436652       22.44246594656345      266.32036736454091
O           -7.10350312181664       22.85513393874351      271.62626244312889
H           -6.48743138278863       22.12419098439618      271.54117815512711
H           -8.02652632204551       22.62916960434929      271.75484646683981
C           -3.44149935428777       27.01253912137729      270.63358423091393
H           -2.84891623455427       27.68751654121283      271.24351679898911
H           -3.38155886641044       27.31193224161764      269.59360238946789
H           -3.10180183360389       25.99034411526284      270.74726308679101
S           -5.18623148846584       27.12100816956408      271.13144752147258
H           -4.95930244105306       26.81504646919569      272.41196820115675
72
 energy: -105.967513042861 gnorm: 0.023966029175 xtb: 6.7.1 (edcfbbe)
Fe          -6.16959174871415       24.82078524706003      271.36178031171556
N           -4.41703979717804       23.85931055693678      271.11247732731465
N           -5.79365956102018       24.94965130556276      273.30872587530416
N           -7.88579378732378       25.80502283199492      271.62090515341833
N           -6.56033314576305       24.60536509087569      269.45270530330828
C           -3.85908062974102       23.48016852602907      269.93231943646816
C           -2.57708717881709       22.85451760068125      270.14826957116384
C           -2.38293924201475       22.83877233839082      271.49662285481946
C           -3.54443639500289       23.46716860531815      272.08537598210273
C           -4.76952930477471       24.37499196107460      274.00549709480373
C           -4.87966822485319       24.67928335773546      275.41310895507161
C           -5.99002082252738       25.46773315680187      275.55096134633288
C           -6.54560891715348       25.62382705321565      274.22317196458408
C           -8.29021143054814       26.48860556578036      272.73157211361269
C           -9.50188296374541       27.22535124838550      272.47310803442338
C           -9.84718876300345       26.94649437931569      271.17004053899581
C           -8.81998415651569       26.05015909778082      270.67455609863907
C           -7.74225990787555       24.86762117353505      268.83185057757072
C           -7.71806542582465       24.40356201808522      267.46352024176878
C           -6.48050161953451       23.88272502487817      267.25999808150226
C           -5.76795584369930       24.02939809790324      268.50840521864330
C           -4.47328493056198       23.59246968684764      268.69905908662213
H           -3.92533442827013       23.25984318546907      267.83133543849027
C           -3.72671616856391       23.66241637096724      273.44255798924121
H           -2.97907580104661       23.25300661839722      274.10460426727172
C           -7.65032824201625       26.40688974830736      273.95697588542572
H           -8.05818456053901       26.96723149470285      274.78426014806575
C           -8.81161386828521       25.52852806894248      269.39247737374620
H           -9.67766881493295       25.67903107960238      268.77075863303855
C           -1.19920109555833       22.31157986949267      272.23085303493372
H           -0.35451765515670       22.22093361398113      271.55314244448084
H           -1.40687364826873       21.32807226248722      272.65257236329893
H           -0.91733848997483       22.97660452922340      273.04294295648185
C           -1.66753947140006       22.34316006805712      269.08609515806626
H           -0.97903257292125       23.12777331121137      268.76859234406680
H           -2.22511781473061       22.01265975732265      268.21453819625759
H           -1.08185425597495       21.50397070537110      269.45236672441570
C           -3.95582393838922       24.20574512951934      276.47886797288692
H           -3.15643866369089       24.93040937287120      276.64008871979127
H           -3.49984585070674       23.25595947512991      276.21306262426310
H           -4.49787103631488       24.08730613467571      277.41418508778690
C           -6.57520439328755       26.02746081942061      276.74895928627200
H           -7.65728507659819       26.04971699746512      276.77923350548917
C           -5.87784891770858       26.51172217620697      277.77191041359538
H           -4.80445301050087       26.54244053088064      277.75272303155941
H           -6.36329735095083       26.91856131901067      278.64036408673996
C          -10.19829658811363       28.09215285428829      273.46303851865684
H          -10.11138202209656       29.14023363556303      273.17168542706378
H           -9.77343941711766       27.98267693894408      274.45510808375593
H          -11.25577492981182       27.83463280607399      273.52195731221030
C          -10.95706171398393       27.40155087313360      270.37447331902075
H          -11.03401219960320       26.97849513653236      269.38153283340631
C          -11.87962968146210       28.28460223495050      270.76569013571077
H          -11.81946475259609       28.77156204291039      271.71592237152731
H          -12.70345031023596       28.56318456930603      270.12861303969709
C           -8.85020427597036       24.51918103254460      266.50615860698343
H           -9.12987899691707       25.56293572352538      266.37381325478106
H           -9.72273641905879       23.97764720004136      266.86903277394259
H           -8.56808876147913       24.11625457526670      265.53797381056728
C           -5.94583915475213       23.22406396188479      266.03786225396897
H           -5.44325141817640       23.94911949166001      265.39861454033041
H           -6.75459492340729       22.76959909769723      265.47173440326736
H           -5.23579252921315       22.44448593792767      266.29870286509879
O           -7.08770802534223       22.86455079026016      271.70128522184763
H           -6.51897180026920       22.09811370302247      271.52755752272003
H           -8.02467012170847       22.62578143562851      271.73630122485326
C           -3.42633285710217       27.00525051080992      270.62495249326685
H           -2.84526453867385       27.68926186106963      271.23455788969653
H           -3.37697604361427       27.30203391510700      269.58383976685400
H           -3.08396048249103       25.98471707607257      270.74147329800479
S           -5.17898810041897       27.11222163573886      271.12288031435247
H           -4.94664101440550       26.89468439713603      272.42973986456212
72
 energy: -105.969209354820 gnorm: 0.042905939468 xtb: 6.7.1 (edcfbbe)
Fe          -6.16496038034391       24.82366319590458      271.35907816079055
N           -4.41550118830562       23.86333476252194      271.11154598370882
N           -5.80332207237822       24.93864191805489      273.30915943409826
N           -7.88835662383532       25.80104057858368      271.60880048795838
N           -6.56512509678617       24.58187548533745      269.44821939986167
C           -3.85599427241535       23.48448903806916      269.93071682885869
C           -2.57070154334465       22.86529775835441      270.15029281679148
C           -2.37868415564443       22.84933103119132      271.49911357824425
C           -3.54152082032760       23.47665124636286      272.08414613178502
C           -4.77608199736215       24.36922885055304      274.00852892131229
C           -4.88059124506604       24.67421280728719      275.41527399924996
C           -5.99000896041302       25.46344956689418      275.55518503700091
C           -6.55139747496693       25.60792089009525      274.22950486339431
C           -8.28595156771695       26.47858006952050      272.72574524535094
C           -9.49587721914474       27.21974439686213      272.47785141431825
C           -9.85791436102864       26.94692605444020      271.17844728013307
C           -8.82728782263273       26.05532553544125      270.66787093333505
C           -7.74525128495990       24.85570846271406      268.82436207354937
C           -7.71789088527522       24.40237119572290      267.45350100626047
C           -6.47830250203294       23.88354341302893      267.24569659810641
C           -5.77168050494811       24.01415489379714      268.49914812007972
C           -4.47589204428872       23.58039276435884      268.69824433123983
H           -3.92939398948971       23.23390322816863      267.83439070666327
C           -3.72526415412169       23.67143094827527      273.44083809154785
H           -2.96693502824408       23.27838990436226      274.10168320452743
C           -7.65661206169963       26.38731750525849      273.95484847318409
H           -8.07533063557916       26.93710714715287      274.78379141834273
C           -8.80616193867746       25.53743638047354      269.38444096835434
H           -9.66065559600096       25.71273058671678      268.74911660304713
C           -1.20283612418018       22.31346400631143      272.24417447494602
H           -0.35013650342919       22.21167658606442      271.57578164136703
H           -1.42122984273089       21.33235437437244      272.66971033949358
H           -0.92096045333543       22.97778408543850      273.05886242098563
C           -1.66220370367578       22.34674255392158      269.08827450871519
H           -0.97302905205813       23.12708214030300      268.75888742775220
H           -2.22436858872739       22.00810428630473      268.22123908943075
H           -1.07548632385869       21.50922970756442      269.45969850745468
C           -3.95789209880504       24.19572606801144      276.48133558721969
H           -3.14618198712270       24.90917502832069      276.63911677473203
H           -3.51663493483006       23.23605450991572      276.22043142431471
H           -4.49852693522542       24.08980168501752      277.42101875866280
C           -6.56946172697026       26.02780407500132      276.75718838803090
H           -7.65255279524488       26.05173114588586      276.78323371160735
C           -5.87661943685292       26.50474716113596      277.78560275934615
H           -4.80143131184868       26.53639816762431      277.77836457994641
H           -6.36172327983564       26.90347308137032      278.66078412153803
C          -10.18689330537190       28.08173522466895      273.47678261726651
H          -10.11461322470190       29.13162078370823      273.18729055876906
H           -9.74727115320836       27.97636773004221      274.46478523779422
H          -11.24217779712563       27.81614365426661      273.54718932599798
C          -10.97586891024503       27.41041673036472      270.39416238456351
H          -11.05834484588481       26.96310712119101      269.41126789989147
C          -11.89641003521036       28.30924633244010      270.75117284466648
H          -11.88096260825982       28.80840966338143      271.70350815602171
H          -12.70203041822277       28.58486605968320      270.08855948928579
C           -8.85366199589714       24.52474152308114      266.49760949127017
H           -9.13195761890173       25.57051891387658      266.36844408405665
H           -9.72825027090241       23.98573288985802      266.86298281486586
H           -8.58041331350865       24.12270167174188      265.52520861450290
C           -5.93842407467750       23.23496755698391      266.01648370339791
H           -5.42356508117781       23.95830448266871      265.38286368383672
H           -6.74547689633509       22.78962630681740      265.43795794320863
H           -5.23429794214580       22.44644671192275      266.27410282224895
O           -7.07939200540070       22.86783566433746      271.79865548619858
H           -6.54942868948161       22.09178059204602      271.50821746027219
H           -8.02881781109432       22.61046928688761      271.69274501086426
C           -3.40973668435010       26.99963725222294      270.61571735937861
H           -2.82915709373378       27.69010827106042      271.21732303992763
H           -3.36702310195800       27.28632935781237      269.57072271657046
H           -3.06544754385309       25.97952063676396      270.73953841918262
S           -5.16477624808602       27.12019640478899      271.11674138837242
H           -4.93267880450533       26.97662089931497      272.43872082094754
72
 energy: -105.969424024518 gnorm: 0.036009185407 xtb: 6.7.1 (edcfbbe)
Fe          -6.16242262567094       24.82132596158404      271.35909946691334
N           -4.41361848204612       23.86413916226517      271.11171585676306
N           -5.80501255982449       24.93682009258240      273.31547953529162
N           -7.89569960140502       25.79976839506796      271.59903766040668
N           -6.57055717920707       24.56149903348788      269.44021901646090
C           -3.85388231908279       23.48612655255614      269.92955931592661
C           -2.56535127287959       22.87527897373279      270.15263622122444
C           -2.37448288673620       22.86211924399143      271.50147990061549
C           -3.53727945181326       23.48704646729301      272.08345975973299
C           -4.77873509830824       24.36845969017839      274.01169367399399
C           -4.88041050364706       24.66829033875080      275.41631040243720
C           -5.98921645602411       25.45727625856706      275.55964181994727
C           -6.55500562260473       25.59594161874673      274.23541955733913
C           -8.28507904996696       26.46776596224816      272.72177451956884
C           -9.49159094694908       27.21198227623336      272.48343278062180
C           -9.86712474861814       26.94606318486468      271.18691607301787
C           -8.83548494930558       26.06116995025021      270.65988972004283
C           -7.74778397052806       24.84618821472364      268.81776998708460
C           -7.71673298892629       24.40379391159400      267.44305102959538