87
 energy: -124.665851172539 gnorm: 0.170464012235 xtb: 6.7.1 (edcfbbe)
Fe          14.45800000000000       -8.32300000000000       17.69900000000000
N           15.59300000000000       -9.90900000000000       17.29400000000000
N           15.02000000000000       -8.45000000000000       19.72300000000000
N           13.25600000000000       -6.68800000000000       18.16900000000000
N           13.91200000000000       -8.20900000000000       15.84200000000000
C           15.68200000000000      -10.56300000000000       16.06200000000000
C           16.56100000000000      -11.67000000000000       16.18000000000000
C           17.01899999999999      -11.66300000000000       17.47700000000000
C           16.43500000000000      -10.55900000000000       18.15700000000000
C           15.96400000000000       -9.26900000000000       20.20400000000000
C           16.12100000000000       -9.08600000000000       21.62000000000000
C           15.20600000000000       -8.11300000000000       21.97000000000000
C           14.51700000000000       -7.71300000000000       20.72000000000000
C           13.07100000000000       -6.16100000000000       19.42700000000000
C           12.19100000000000       -5.06000000000000       19.32200000000000
C           11.89200000000000       -4.88600000000000       17.96400000000000
C           12.58300000000000       -5.92400000000000       17.23400000000000
C           13.08900000000000       -7.28700000000000       15.27300000000000
C           12.91800000000000       -7.56700000000000       13.83100000000000
C           13.60900000000000       -8.67900000000000       13.55200000000000
C           14.21400000000000       -9.07600000000000       14.84100000000000
C           14.99500000000000      -10.22800000000000       14.90900000000000
H           15.06600000000000      -10.87700000000000       14.03700000000000
C           16.67800000000000      -10.21600000000000       19.47600000000000
H           17.49400000000000      -10.72900000000000       19.98500000000000
C           13.57100000000000       -6.69200000000000       20.64800000000000
H           13.19200000000000       -6.27600000000000       21.58200000000000
C           12.54500000000000       -6.14300000000000       15.87600000000000
H           12.07100000000000       -5.39500000000000       15.24100000000000
C           17.98900000000000      -12.65500000000000       18.10000000000000
H           18.96100000000000      -12.15200000000000       18.29400000000000
H           18.15600000000000      -13.50500000000000       17.40400000000000
H           17.57800000000000      -13.02800000000000       19.06300000000000
C           16.92800000000000      -12.66600000000000       15.09000000000000
H           16.88100000000000      -12.16600000000000       14.09900000000000
H           16.21100000000000      -13.51400000000000       15.10000000000000
H           17.96100000000000      -13.04000000000000       15.25600000000000
C           17.09000000000000       -9.86500000000000       22.53300000000000
H           18.05800000000000      -10.01200000000000       22.00700000000000
H           16.65800000000000      -10.85900000000000       22.77700000000000
H           17.27000000000000       -9.29000000000000       23.46600000000000
C           14.90300000000000       -7.48600000000000       23.28700000000000
H           14.64000000000000       -6.41900000000000       23.32400000000000
C           14.93000000000000       -8.14300000000000       24.44100000000000
H           15.18600000000000       -9.21200000000000       24.46900000000000
H           14.69700000000000       -7.62600000000000       25.38300000000000
C           11.73700000000000       -4.22900000000000       20.50900000000000
H           12.53300000000000       -4.22400000000000       21.28400000000000
H           10.81400000000000       -4.66800000000000       20.94300000000000
H           11.54400000000000       -3.18400000000000       20.18400000000000
C           11.03800000000000       -3.81300000000000       17.38100000000000
H           11.29300000000000       -3.37300000000000       16.40600000000000
C            9.94100000000000       -3.35300000000000       18.02100000000000
H            9.65100000000000       -3.76600000000000       18.99800000000000
H            9.32400000000000       -2.56000000000000       17.57300000000000
C           12.12200000000000       -6.78400000000000       12.82000000000000
H           12.77000000000000       -6.00900000000000       12.35800000000000
H           11.26500000000000       -6.28500000000000       13.32200000000000
H           11.75200000000000       -7.46500000000000       12.02400000000000
C           13.68700000000000       -9.40100000000000       12.20800000000000
H           13.56900000000000       -8.66500000000000       11.38400000000000
H           12.87200000000000      -10.15300000000000       12.13800000000000
H           14.67400000000000       -9.90000000000000       12.10700000000000
C            9.54700000000000      -10.27800000000000       19.25300000000000
H            9.54000000000000      -11.00800000000000       20.09100000000000
H            8.87300000000000      -10.64500000000000       18.45000000000000
H            9.19000000000000       -9.29500000000000       19.62800000000000
N           11.63800000000000      -11.20800000000000       18.20000000000000
H           11.27700000000000      -12.13700000000000       18.12400000000000
C           10.94200000000000      -10.14100000000000       18.72100000000000
C           12.84200000000000      -10.80700000000000       17.82300000000000
H           13.59900000000000      -11.46000000000000       17.38900000000000
N           12.95600000000000       -9.50500000000000       18.06200000000000
C           11.77200000000000       -9.07200000000000       18.63500000000000
H           11.63600000000000       -8.03800000000000       18.92700000000000
C           16.33100000000000       -6.25900000000000       14.71600000000000
H           16.19200000000000       -5.38900000000000       14.03900000000000
H           15.57300000000000       -7.03100000000000       14.46300000000000
H           17.35100000000000       -6.67100000000000       14.56000000000000
C           16.16300000000000       -5.82300000000000       16.17300000000000
H           15.13900000000000       -5.41200000000000       16.29200000000000
H           16.89200000000000       -5.01100000000000       16.37400000000000
S           16.40600000000000       -7.12900000000000       17.36600000000000
C           16.66600000000000       -6.03700000000000       18.77600000000000
H           15.72600000000000       -5.52100000000000       19.06500000000000
H           17.42100000000000       -5.26100000000000       18.52600000000000
H           17.02100000000000       -6.62000000000000       19.65200000000000
87
 energy: -124.701387278752 gnorm: 0.071455594121 xtb: 6.7.1 (edcfbbe)
Fe          14.47045988601467       -8.32331486347369       17.69788814499272
N           15.59168503186498       -9.91239146509304       17.28680260700836
N           15.01335780082307       -8.45229689243955       19.70322293834995
N           13.31097236897535       -6.67663420560409       18.15857612135519
N           13.89449965350372       -8.21753930266524       15.82554338475553
C           15.67660792267158      -10.57313443438632       16.08129918014964
C           16.57274539334866      -11.68293822826717       16.19057641008435
C           17.03905932190647      -11.67366053439459       17.47514382460419
C           16.43492085635118      -10.55774336030072       18.14393533746624
C           15.96138070933053       -9.27202568611530       20.20162596428581
C           16.10671967168372       -9.07682463602514       21.62727929353445
C           15.19454821542975       -8.10684114148641       21.97090963591218
C           14.52423989682097       -7.71135016112038       20.71676966635912
C           13.06631181990342       -6.17980599438437       19.41277750457265
C           12.18914811260252       -5.05398510882647       19.31878331041182
C           11.90046388596410       -4.86908091423374       17.97707025274477
C           12.60737942020832       -5.91379141714515       17.26031660461712
C           13.09860276218721       -7.26649783430187       15.26042482733334
C           12.90933227807382       -7.55466495336572       13.83612807884408
C           13.59757140248239       -8.68700595163133       13.56367383910183
C           14.20300724488496       -9.09149749761725       14.83140036054235
C           14.99267534373038      -10.22496717093887       14.92929406558213
H           15.08269360315470      -10.85939573135780       14.05712645558822
C           16.67115370588402      -10.21531892126082       19.46845675531300
H           17.46534553005694      -10.74416624137941       19.98241188228465
C           13.57574013674801       -6.70191220123073       20.61892367541735
H           13.21230614733286       -6.27072240928124       21.54517152875696
C           12.55725950112678       -6.14684551540603       15.89266748989736
H           12.05262558720544       -5.41847933740905       15.26765818710606
C           17.99118944353027      -12.65038200918351       18.09980448039804
H           18.95287163743081      -12.16430897175277       18.29748018058941
H           18.15740202746345      -13.49526331463435       17.42698958933507
H           17.58993174227876      -13.02507311144370       19.04680270657636
C           16.92512563907639      -12.65586189862577       15.09960551717209
H           16.88182686986485      -12.17438156856634       14.11815591871052
H           16.22779605508704      -13.50178182003605       15.09837734575787
H           17.93902741957235      -13.03718533646745       15.24795222071972
C           17.06995018849522       -9.84012038338298       22.51404502810207
H           18.03045768580445       -9.99943467087759       22.01089755695788
H           16.66036417004110      -10.82580627476558       22.76694293141990
H           17.25708927951294       -9.29287121983083       23.44218718531000
C           14.90977217114235       -7.49867280817148       23.27487281331848
H           14.64296871554123       -6.44240343573685       23.29118540007334
C           14.93815185351865       -8.14726584177918       24.43453259872368
H           15.17217775901357       -9.20273083216324       24.48056951047920
H           14.70551840255506       -7.64344846679626       25.36646140545344
C           11.74263123941570       -4.23215812888810       20.49464637957132
H           12.51764309932295       -4.22159025448167       21.26783478026245
H           10.83121649499076       -4.65344898314191       20.93543859508160
H           11.54288110744572       -3.20043591856259       20.18971270816845
C           11.04045962878727       -3.82783839381668       17.40133161382365
H           11.30269155201496       -3.41278188518263       16.42815806189657
C            9.95447074210321       -3.35869916685196       18.01902209032936
H            9.63976926432333       -3.76007015605131       18.97266793950997
H            9.34387755350408       -2.57694387246517       17.58028916697039
C           12.11869450303348       -6.77136752669140       12.83645065665117
H           12.75222223428590       -6.00991361247857       12.36581303821097
H           11.26624882745897       -6.27880838152506       13.30948145575147
H           11.75025739189631       -7.43865422267300       12.05075219140079
C           13.69283038515078       -9.39397489613237       12.23503944805352
H           13.57791826699862       -8.67942972721604       11.41327569776807
H           12.89535887194371      -10.14132645837891       12.14545254516515
H           14.65733786998661       -9.89409706497856       12.11374147730048
C            9.54685160590040      -10.28491604104419       19.25320917193103
H            9.52685575435414      -11.00026248557294       20.08255617322151
H            8.87110978480625      -10.63947324254985       18.46813024577214
H            9.19606321837768       -9.31666070330869       19.61677700387428
N           11.62243456269179      -11.21720488999924       18.20654105003081
H           11.26528253619132      -12.15293598225156       18.12845645397405
C           10.93128883025013      -10.15280385406021       18.72363638853604
C           12.83481284872385      -10.79175782284219       17.82395844181178
H           13.58697661786469      -11.43039736943538       17.39344038424501
N           12.95721953305750       -9.50083899236024       18.06355894431860
C           11.77451639001756       -9.09048236607150       18.63016810836150
H           11.63394099996190       -8.06889790948429       18.92178622493744
C           16.33529459557016       -6.25936311551469       14.71594052715365
H           16.19695786262842       -5.40613612168132       14.04507614713781
H           15.59929596283267       -7.02223613498314       14.45957221642785
H           17.33681881710628       -6.66960867185845       14.56044831773621
C           16.15504000487765       -5.79627953047790       16.15525084388979
H           15.14134525937866       -5.40011302278615       16.29361474216916
H           16.88391612528422       -5.00487138338372       16.37218102963990
S           16.42098059063049       -7.10860220709442       17.36261843014038
C           16.66555082696940       -6.02337596509236       18.78687261539162
H           15.72926032970760       -5.52781895372366       19.06160503977329
H           17.42107562454758       -5.27176412235330       18.53610108776702
H           17.01516801540809       -6.61883638719925       19.63367284977501
87
 energy: -124.711418475961 gnorm: 0.020486521007 xtb: 6.7.1 (edcfbbe)
Fe          14.47882387214290       -8.32365404491202       17.70994901417199
N           15.59071729262689       -9.91570864870621       17.28681686826254
N           15.01298164855390       -8.45389192134383       19.68224581895818
N           13.34893696140474       -6.67508507249280       18.15186857067453
N           13.88842913650170       -8.21655854260265       15.81675144837538
C           15.67240868821915      -10.57542452746769       16.09973683362578
C           16.58109513887881      -11.69006005815226       16.19954857981785
C           17.05619972136757      -11.67918682108522       17.47528215162058
C           16.43386802980066      -10.55741872316112       18.13820474992742
C           15.95694926265434       -9.28051498871759       20.19598911831076
C           16.09172842697777       -9.07651699616468       21.62410986889238
C           15.18243976103400       -8.10714012132302       21.96024169279866
C           14.53293116895379       -7.71238976421883       20.70856136150245
C           13.08523977749834       -6.18859264999638       19.39987440193857
C           12.19351149843258       -5.06009636877687       19.31935284499325
C           11.91360825503200       -4.87017770569917       17.98790039314036
C           12.64083726224508       -5.90865653087833       17.27707867827294
C           13.10562668889395       -7.25291506071005       15.25374813520873
C           12.90640387402685       -7.54012634699468       13.84369809061034
C           13.58574846572858       -8.68930233392849       13.57775143175766
C           14.18950867512538       -9.09947409876274       14.82759317875571
C           14.98982635805278      -10.21885019264207       14.95063111331866
H           15.10427149743531      -10.84132674419897       14.07604038381330
C           16.65999721869881      -10.22476693490685       19.46517803421791
H           17.42877616901388      -10.77788937551614       19.98603331109495
C           13.59423154692872       -6.70181215078676       20.59195502204567
H           13.24098415462385       -6.25540227573257       21.51094298751471
C           12.56846196758798       -6.15343110885361       15.90875388162984
H           12.02045026309131       -5.44570321691707       15.29879496434141
C           17.99879245552435      -12.64483689606869       18.10395741288213
H           18.95622588893039      -12.16866030375220       18.30813438239144
H           18.16603513454193      -13.48949806058513       17.44329227096680
H           17.59735201546636      -13.01878346718521       19.04293446409778
C           16.92126835278682      -12.64830083885442       15.10712581568806
H           16.87726229844504      -12.16731729419176       14.13440971305131
H           16.22968194313897      -13.49154689713679       15.09940745667414
H           17.92644452571868      -13.03677339868131       15.24599857479555
C           17.04859187980903       -9.81766679010094       22.49737212550019
H           18.00143620886349       -9.97381018414640       21.99463286759781
H           16.64803389850071      -10.79957394848612       22.75532786879692
H           17.23346244427858       -9.27384670251155       23.41990832408953
C           14.90433339851662       -7.51525054068932       23.25336967490809
H           14.64101594733403       -6.46355694798387       23.25147767137743
C           14.93655866664988       -8.15514897409081       24.41907869938389
H           15.16289787563468       -9.20312828254113       24.48467539369297
H           14.72402768042699       -7.65142545446107       25.34670399026035
C           11.75075348969823       -4.24214445508819       20.48549066205177
H           12.51833649161923       -4.22142201249768       21.25555902598677
H           10.84404214951662       -4.65426237681307       20.93035420521865
H           11.54342929422869       -3.22012842006962       20.17821387811059
C           11.05352626429872       -3.85287469402057       17.41306106011869
H           11.32899466577715       -3.46246990571770       16.43912366955675
C            9.96750720403303       -3.37199465485567       18.01059419989483
H            9.62913076813641       -3.75447749029660       18.95594515224362
H            9.36619509968979       -2.59441326416955       17.57172134000106
C           12.11586360418011       -6.75355891675649       12.85416497951837
H           12.74036534522206       -5.99502833742933       12.38142721256055
H           11.26749091437451       -6.26381477155362       13.31854310285031
H           11.74437969491191       -7.41375488313932       12.07354415769828
C           13.69184169817699       -9.38852529930749       12.26194263733369
H           13.58250297787877       -8.67954952067393       11.44417910900580
H           12.90685372803437      -10.13964334751040       12.16150120282641
H           14.65052436270555       -9.88478171907309       12.14477749353357
C            9.54006217318686      -10.29269164965128       19.25516378065677
H            9.51200889350521      -11.00081744124164       20.08081359698966
H            8.86268963007929      -10.64067033455727       18.47816460805758
H            9.19733272192243       -9.32808069223213       19.61088479944961
N           11.60991574663626      -11.22957132010410       18.21023235752159
H           11.26015378159427      -12.17021886940555       18.12938841571297
C           10.91931834854130      -10.16710803800058       18.72685662852871
C           12.82532763992675      -10.78282009084778       17.82442869172499
H           13.57604581442453      -11.40889617817216       17.39189645502577
N           12.94816425684914       -9.50007393816202       18.06679107916682
C           11.76821048518298       -9.10637677232002       18.62915245128805
H           11.61656728931955       -8.09241792653278       18.92377112953086
C           16.34044833355830       -6.25126530984459       14.71124058977232
H           16.20393179534652       -5.41418037039289       14.03161736922686
H           15.61851782919520       -7.01853611057154       14.46543126428525
H           17.33615084842300       -6.66061897861877       14.57363942425425
C           16.15121475635559       -5.76572233231002       16.13640065765925
H           15.14063426771874       -5.38730103858386       16.28458075754154
H           16.87625219196105       -4.98282733158769       16.36119875785707
S           16.43755493168556       -7.09303602280897       17.35192273190644
C           16.66706904673273       -6.01168895270128       18.79224644358789
H           15.73011963857230       -5.53167663714253       19.05480615874025
H           17.42529153297678       -5.27246898872130       18.55145627398172
H           17.00586689772495       -6.62589229940168       19.61833285327659
87
 energy: -124.714131618779 gnorm: 0.013767719064 xtb: 6.7.1 (edcfbbe)
Fe          14.48439888658948       -8.32344229053821       17.71974527243334
N           15.59173266924280       -9.91929198039168       17.29413543649048
N           15.01228921849506       -8.45937117770320       19.66818987790376
N           13.37774245065171       -6.67235868994621       18.14953346121569
N           13.88725831714884       -8.21362751930593       15.81898717804720
C           15.67219069109250      -10.57330226371674       16.10844274089283
C           16.58437865698533      -11.69085663648912       16.20337838247419
C           17.06342361981642      -11.68222334892112       17.47660023586820
C           16.43285485701650      -10.56383592013217       18.14183735490213
C           15.94781706932134       -9.29375308370415       20.19040921499449
C           16.07676919668462       -9.08705694403380       21.61483319553867
C           15.17124367601361       -8.11545748949036       21.94708416015101
C           14.53680677205545       -7.71758878105567       20.69895692281991
C           13.10937439885440       -6.18904877071036       19.39526595704369
C           12.20780545375093       -5.06653428288138       19.32153784932091
C           11.92799136071770       -4.87959297648648       17.99224526796133
C           12.66114339842933       -5.91258202761602       17.28203698700946
C           13.10564706602463       -7.25019073264825       15.25640833844160
C           12.90050430963319       -7.53365472395776       13.85237165072305
C           13.57491729729715       -8.68806348769846       13.58828705411213
C           14.18239549176290       -9.09934108003993       14.83093125047115
C           14.99105988224195      -10.21282229886521       14.96111011675105
H           15.12028362926665      -10.83038717866939       14.08505671130686
C           16.64757879576189      -10.24479738716674       19.46985855285315
H           17.39366985209933      -10.82089082194283       19.99988737780615
C           13.61320907064029       -6.69727143209960       20.58226003872108
H           13.27190021514456       -6.23620486869375       21.49786183740418
C           12.56699340584523       -6.16010172688396       15.91883025104558
H           11.98621703651132       -5.46538790470907       15.32339866535648
C           18.00855325861280      -12.64185443172190       18.11043579878969
H           18.96460511380010      -12.16425041436195       18.32157211135357
H           18.18347992255899      -13.48935318544666       17.45384197235369
H           17.60326653215301      -13.01577243490438       19.04875531301095
C           16.91742122889959      -12.64441907097905       15.10710401325485
H           16.87364419434407      -12.15623652213990       14.13776406772786
H           16.22076312144670      -13.48402909650484       15.09591230818016
H           17.92083251789926      -13.04104577108433       15.24208573922531
C           17.03822155127564       -9.80899735930537       22.48950693832115
H           17.98949494269557       -9.95688515753029       21.98187617028768
H           16.64542403140234      -10.79168419032015       22.75692702154521
H           17.21622288661204       -9.25186680883873       23.40582232821682
C           14.90053728254981       -7.52344180119034       23.23742765617579
H           14.63042139180477       -6.47379779440760       23.22515025374793
C           14.94268326611515       -8.15695178088985       24.40605230025865
H           15.14933267863322       -9.20994229629712       24.47911559658398
H           14.73191128889595       -7.64989223365169       25.33187472152746
C           11.76033246876753       -4.24959310865989       20.48330355951011
H           12.52860861998210       -4.21716950507449       21.25252548441443
H           10.85614009658760       -4.66465974968238       20.93095271699253
H           11.54343268441327       -3.23174685393262       20.16570373219485
C           11.06953502286267       -3.87320507239125       17.40864913666313
H           11.35270434105559       -3.50494123275836       16.42864242723291
C            9.98154834341724       -3.37975563573016       17.99358108198582
H            9.62337510761114       -3.75274815487745       18.93726390808001
H            9.38445963652532       -2.60881160329991       17.53776582022041
C           12.11055221364836       -6.73442995971066       12.87234832933252
H           12.73382770083928       -5.97149934882956       12.40420166837953
H           11.26529376916193       -6.24382163027117       13.34426342860808
H           11.73171751227877       -7.38600120660778       12.08778951066357
C           13.68905690254150       -9.38772178160234       12.27704540875305
H           13.58101512404649       -8.67888520005403       11.45944525303978
H           12.91095411482295      -10.14600417367929       12.17440392188601
H           14.65294111515195       -9.87818077757034       12.17187951288093
C            9.52864910550535      -10.30353307331190       19.25759618285185
H            9.49397794914066      -11.01029399378669       20.08484891900594
H            8.84797491393638      -10.64868672581917       18.48132297623302
H            9.19051867414558       -9.33579856818120       19.61112456539741
N           11.60338825137172      -11.23893348297590       18.21008898932216
H           11.26010240708777      -12.18189077707419       18.12529919002011
C           10.90902562022237      -10.18011648928167       18.73068967270880
C           12.81792375547391      -10.78127007236459       17.82573907219356
H           13.56990854359465      -11.39989165377906       17.38540232661767
N           12.93686854738935       -9.50022511074225       18.07475067624247
C           11.75518081243571       -9.11576099429228       18.63646803043413
H           11.59029683687064       -8.10478787509092       18.93614796126295
C           16.35136016330298       -6.23837604496020       14.70380809072870
H           16.21464223181677       -5.41614443885669       14.00516998401948
H           15.63783926305024       -7.01783006432287       14.46685282926278
H           17.35171469045794       -6.64421682632153       14.58369887041754
C           16.14856660238660       -5.73571980647265       16.12071772421201
H           15.13429802695330       -5.36955488693504       16.26837192958637
H           16.86727252229542       -4.94901840168709       16.34885675657374
S           16.44468903754344       -7.07073250089553       17.33947611965896
C           16.67029980202839       -6.00160521558126       18.79453697109649
H           15.73038292186284       -5.52505778027111       19.04996581805989
H           17.43616720481935       -5.26535482218975       18.56979681943428
H           16.99604538780025       -6.63556722400331       19.61179897320039
87
 energy: -124.715578554854 gnorm: 0.009962812223 xtb: 6.7.1 (edcfbbe)
Fe          14.49128636987239       -8.31890105220478       17.72914126609122
N           15.59558115425547       -9.92052680897918       17.30333456305226
N           15.01388761951862       -8.46445002974342       19.65608812669464
N           13.39000153284626       -6.68097974899312       18.15143854698154
N           13.88815544845543       -8.21022608815493       15.82403181201274
C           15.67548335922860      -10.56801732374312       16.11384800187495
C           16.58805608518209      -11.68890564333975       16.20433937078363
C           17.06674940918721      -11.68685498563898       17.47712295765637
C           16.43161317678598      -10.57417463641722       18.14819955990853
C           15.93629734725823       -9.31050657228284       20.18726095698533
C           16.06063853184977       -9.10406152750409       21.60730661853053
C           15.16115743910663       -8.12556653543655       21.93562121360196
C           14.54201215600554       -7.72214611704896       20.68971963693549
C           13.12828607319680       -6.19018061688227       19.39367304545427
C           12.22248867525448       -5.07231176495050       19.32278797027869
C           11.93768629034859       -4.89335782584195       17.99387393540028
C           12.67117650547283       -5.92454737103853       17.28546784866381
C           13.10240786872990       -7.25207529504901       15.26144269641489
C           12.89282687810040       -7.53182439595783       13.86077120162377
C           13.56607439309862       -8.68645044429997       13.59606607046876
C           14.17953003242483       -9.09621261627013       14.83537124424941
C           14.99578283028575      -10.20503896054468       14.96767340178221
H           15.13289356415753      -10.82177316007903       14.09240635155632
C           16.63135884176716      -10.27338943217820       19.47968610533117
H           17.35449222252992      -10.86937479105216       20.01911997656650
C           13.63373052513562       -6.68967689472779       20.57901391162582
H           13.30546825362739       -6.21619465733906       21.49233089451053
C           12.55719161239055       -6.17033719987313       15.92811772843450
H           11.95528475600093       -5.48374335034974       15.34820985380126
C           18.01771723827578      -12.63989711659419       18.11548860496948
H           18.96905112429858      -12.15334480321927       18.33417453873839