87
 energy: -124.720540677910 gnorm: 0.000070892752 xtb: 6.7.1 (edcfbbe)
Fe          14.47034769981756       -8.30988767352491       17.72289391305868
N           15.57005432887503       -9.92060491324519       17.29756189857407
N           14.97461888626865       -8.46686592659970       19.65748184459658
N           13.36403678581793       -6.68748083565957       18.14159255846884
N           13.89850267270629       -8.19671289915763       15.80563727174192
C           15.75439531742843      -10.48793410900154       16.07844138790524
C           16.65982236913692      -11.61326045412578       16.16780341999569
C           17.01077809495853      -11.71538468069486       17.47639035996350
C           16.31776966457590      -10.64829794477788       18.16668725525682
C           15.76751734637650       -9.41830695464096       20.21659412334684
C           15.86391940962658       -9.23325738103295       21.64182140801217
C           15.09887882878940       -8.13685130395650       21.94075663052059
C           14.56239781544418       -7.67002440409892       20.67690667528167
C           13.19490251434382       -6.10823163377661       19.36264983376659
C           12.32907793437944       -4.96103338916418       19.27133066440525
C           11.95157606694188       -4.86836308235618       17.95759365986087
C           12.60887329639861       -5.96588167746616       17.27530211633113
C           13.03278299595493       -7.30169498701469       15.26209143842141
C           12.83390218541073       -7.57087985349575       13.85561973709776
C           13.60450375161817       -8.65248754752742       13.56187877676479
C           14.26072955111564       -9.02900166483959       14.79431867490695
C           15.14376198526937      -10.08750171596741       14.90507966441629
H           15.36611318509520      -10.64697655593787       14.00909941304340
C           16.40798568531513      -10.43240967336528       19.52587175612145
H           17.02082519320857      -11.11310494939808       20.09655397302456
C           13.73803573003684       -6.56850529666039       20.55052463114335
H           13.48103441217394       -6.03224431066449       21.45122468514878
C           12.43286128442915       -6.25408410899393       15.93438998678396
H           11.76993320036680       -5.61698326512767       15.36934625830664
C           17.91908041383462      -12.69421481369132       18.13768184322080
H           18.75361185397240      -12.17915111994050       18.61368623176543
H           18.32021564911271      -13.40011784131689       17.41451022604959
H           17.38559011748951      -13.25524600737245       18.90549435918390
C           17.07983239058989      -12.44850502544683       15.00701379955311
H           17.56603782744921      -11.83288306159865       14.25017841210936
H           16.21712464895628      -12.93144748758914       14.54651727018855
H           17.77746115643273      -13.22164733242428       15.31929918004447
C           16.70303788502762      -10.05271360121839       22.55868359405935
H           17.64584640528370      -10.31885390163102       22.08310652902912
H           16.19118492957039      -10.97649553497165       22.83363170917846
H           16.91697372658420       -9.49472129958456       23.46812869592327
C           14.86390916194905       -7.50578273172428       23.22032990313859
H           14.74513280847947       -6.42836644300645       23.19757946391387
C           14.77763658608937       -8.13637687533454       24.38721238155641
H           14.83952662292574       -9.20774676511481       24.46519662436603
H           14.61496053791431       -7.59940778335146       25.30705458581377
C           11.99996860042891       -4.04430583673740       20.39758963391316
H           12.86181996655462       -3.90782074923533       21.04957743586227
H           11.18187218379652       -4.44383941988957       20.99947524537458
H           11.69846649101048       -3.07251175434268       20.01149630528525
C           11.10462881604379       -3.88872988657481       17.31455818625989
H           11.36265140858848       -3.64778390896206       16.28943626942075
C           10.05928296841326       -3.28655677905323       17.87245434555116
H            9.72727994631880       -3.52043231736483       18.86881808964346
H            9.48009876832120       -2.55285134028457       17.33656253173724
C           11.94800990508008       -6.77176734016196       12.96293794872682
H           12.29552692212465       -5.73989611881532       12.90213339332218
H           10.92682473105253       -6.76199084685125       13.34448163285490
H           11.93490090422092       -7.18691185301173       11.95808976519756
C           13.79220882320522       -9.35490259927450       12.26077344346613
H           13.18699462608626       -8.89586565250902       11.48293927723546
H           13.50613224510880      -10.40384608747552       12.34395461447358
H           14.83682805117281       -9.31391888236236       11.95071036236766
C            9.89748484901780      -10.71639799748662       19.83152778821569
H            9.98416696941815      -11.73179292949622       20.21817977672086
H            8.97608024211907      -10.64937582499312       19.25294541619138
H            9.83301127685690      -10.02921868745620       20.66932826570837
N           11.41420215968600      -11.07747778661119       17.87135608921175
H           10.92314573249320      -11.87830426533574       17.50918986194836
C           11.07294402721057      -10.36897814993745       18.99368956391732
C           12.52115837708146      -10.50593939786096       17.34688624501551
H           13.01440862348000      -10.85193997586244       16.46227194021108
N           12.90085444389841       -9.47964773476808       18.06787943140967
C           12.01035291971269       -9.38151013779621       19.09554934248033
H           12.10186530841157       -8.61413001853986       19.83559305513801
C           16.48269623331797       -6.23651380569407       14.65451526227326
H           16.24533561033396       -5.49845012810279       13.89085296388470
H           15.95729709372122       -7.15835962588971       14.42307773233655
H           17.55178096650202       -6.43425326432819       14.63340359631942
C           16.06780863095319       -5.72419322915008       16.01999772901844
H           15.00016835539846       -5.51409715531619       16.05581053438419
H           16.63131031672091       -4.82921200329292       16.28413354964891
S           16.43931091842372       -6.98338158056545       17.30849848981455
C           16.61271461984694       -5.84956586706383       18.72042050247380
H           15.69375375275571       -5.28853206976975       18.85730168395584
H           17.45355807450493       -5.18477971853045       18.54040339335152
H           16.80299422706669       -6.46108645569224       19.59545048034775
