78
 energy: -115.950509999111 gnorm: 0.343444100299 xtb: 6.7.1 (edcfbbe)
Fe          -5.79200000000000       57.00599999999999      111.65899999999999
N           -6.42500000000000       56.10900000000000      113.38799999999999
N           -6.72400000000000       58.76800000000000      112.24400000000000
N           -4.86800000000000       57.99499999999999      110.10299999999998
N           -4.58900000000000       55.34899999999999      111.20900000000000
C           -6.13400000000000       54.85400000000000      113.77200000000001
C           -6.69400000000000       54.58900000000000      115.00700000000001
C           -7.33800000000000       55.76700000000000      115.40800000000000
C           -7.10000000000000       56.67699999999999      114.39700000000001
C           -7.36300000000000       58.98600000000000      113.38699999999999
C           -7.89800000000000       60.27800000000000      113.42499999999998
C           -7.46900000000000       60.87899999999999      112.24600000000000
C           -6.67600000000000       59.92900000000000      111.59999999999998
C           -5.05600000000000       59.27799999999999      109.75599999999999
C           -4.25400000000000       59.65699999999999      108.68200000000000
C           -3.51100000000000       58.51199999999999      108.37599999999999
C           -3.95000000000000       57.52300000000000      109.25099999999999
C           -3.85200000000000       55.16600000000000      110.11199999999999
C           -3.55000000000000       53.82599999999999      109.92200000000000
C           -4.06100000000000       53.16899999999999      111.03399999999999
C           -4.67800000000000       54.15300000000000      111.80900000000000
C           -5.35000000000000       53.94400000000000      113.02300000000000
H           -5.25500000000000       52.94500000000000      113.44699999999999
C           -7.51400000000000       58.01800000000000      114.39599999999999
H           -8.02100000000000       58.35499999999999      115.29899999999999
C           -5.92700000000000       60.14299999999999      110.44199999999998
H           -6.03400000000000       61.13300000000000      110.00099999999999
C           -3.50400000000000       56.19100000000000      109.23999999999999
H           -2.79900000000000       55.92900000000000      108.45099999999999
C           -8.13700000000000       56.00599999999999      116.67499999999998
H           -8.15100000000000       55.07800000000000      117.28500000000000
H           -9.18100000000000       56.28200000000000      116.41400000000000
H           -7.66600000000000       56.81900000000000      117.26799999999999
C           -6.60400000000000       53.26400000000000      115.76100000000000
H           -5.58300000000000       52.84099999999999      115.64699999999999
H           -7.34100000000000       52.54399999999999      115.34500000000000
H           -6.80500000000000       53.43200000000000      116.84099999999998
C           -8.83500000000000       60.76599999999999      114.51599999999999
H           -8.49500000000000       60.37499999999999      115.49900000000000
H           -9.86500000000000       60.39800000000000      114.31900000000000
H           -8.82800000000000       61.87600000000000      114.54799999999999
C           -7.76800000000000       62.12600000000000      111.68500000000000
H           -7.19600000000000       62.43800000000000      110.80000000000000
C           -8.76300000000000       63.06400000000000      112.14900000000000
H           -9.38100000000000       62.83200000000000      113.02900000000000
H           -8.91400000000000       64.02100000000000      111.62799999999999
C           -4.14600000000000       61.07400000000000      108.09800000000000
H           -4.14400000000000       61.81699999999999      108.92400000000001
H           -5.01500000000000       61.27400000000000      107.43499999999999
H           -3.20000000000000       61.17200000000000      107.52399999999999
C           -2.55000000000000       58.27000000000000      107.38700000000000
H           -1.92500000000000       57.37600000000000      107.51600000000001
C           -2.25800000000000       59.04299999999999      106.19900000000000
H           -2.82600000000000       59.95800000000000      105.97499999999999
H           -1.46500000000000       58.72500000000000      105.50700000000001
C           -2.90700000000000       53.19400000000000      108.70200000000000
H           -1.84200000000000       53.50600000000000      108.64100000000001
H           -3.43400000000000       53.52999999999999      107.78400000000001
H           -2.95400000000000       52.08700000000000      108.78399999999999
C           -4.00500000000000       51.65900000000000      111.31100000000001
H           -3.09400000000000       51.22900000000000      110.84200000000000
H           -4.90000000000000       51.16399999999999      110.87799999999999
H           -3.96500000000000       51.48000000000000      112.40700000000000
O           -4.30700000000000       57.69200000000000      113.09200000000000
H           -4.55100000000000       57.30200000000000      113.93100000000000
H           -3.61200000000000       58.22500000000000      112.94199999999999
C           -8.99700000000000       54.87300000000000      107.61899999999999
H           -9.33500000000000       55.56200000000000      106.81600000000000
H           -9.84700000000000       54.22200000000000      107.91600000000000
H           -8.16000000000000       54.25300000000000      107.23300000000000
N           -9.21800000000000       56.55499999999999      109.56199999999998
H          -10.15600000000000       56.84300000000000      109.36799999999999
C           -8.52300000000000       55.68800000000000      108.82599999999999
C           -8.47100000000000       56.96099999999999      110.57099999999998
H           -8.79600000000000       57.66399999999999      111.33700000000000
N           -7.29800000000000       56.37500000000000      110.48000000000000
C           -7.28600000000000       55.59799999999999      109.42900000000000
H           -6.40500000000000       55.02600000000000      109.16600000000000
78
 energy: -116.021749337764 gnorm: 0.137676405570 xtb: 6.7.1 (edcfbbe)
Fe          -5.75587367492443       57.01427570462861      111.67053698898094
N           -6.41779856914184       56.11196945142112      113.36463163531961
N           -6.69861488458548       58.74863361380754      112.24260155345236
N           -4.87646897904430       57.98980334887087      110.11062638778611
N           -4.60880580768961       55.35956461577263      111.21575682402151
C           -6.12892980287486       54.84643732896097      113.75655376520332
C           -6.70111122163063       54.58208261948052      115.02495530198922
C           -7.33569416529571       55.74765482106744      115.42100278661952
C           -7.11064763798964       56.68216671471005      114.38138985411634
C           -7.37334211019382       58.96375615119227      113.39048146318193
C           -7.91168395645224       60.27991429177438      113.42767055217585
C           -7.49067674334199       60.89375462012350      112.25365124084664
C           -6.68071206229752       59.92060694715396      111.57913166023873
C           -5.06673074566233       59.28669769168941      109.76671252879149
C           -4.24460842614788       59.66691974655915      108.67495533364956
C           -3.50918419728652       58.52900583172028      108.34899710814902
C           -3.94421747161817       57.51372557038822      109.25700638231829
C           -3.87135527861293       55.17475280772532      110.10099128140583
C           -3.54965152693934       53.80327480514345      109.92444725250702
C           -4.05599352844551       53.15194075370282      111.02851330260221
C           -4.69966172716447       54.15100106165492      111.81670724740232
C           -5.35771947536787       53.93657434499066      113.02406029578886
H           -5.26027263215405       52.94477728443410      113.44784236339490
C           -7.52886668430513       58.01152787605648      114.39697450716918
H           -8.02623188926670       58.34689642671084      115.29861246114358
C           -5.93860581011984       60.15005051120244      110.43012988092892
H           -6.02623923792573       61.13793787404043      109.99862938252269
C           -3.50423225295386       56.19257086437357      109.23317276300577
H           -2.80577545802557       55.92367125046585      108.45045116980651
C           -8.12870812615210       55.99831242634689      116.67154506845952
H           -8.15433748173443       55.09151048251039      117.28308822309181
H           -9.16048076252362       56.27835895506077      116.42096808219428
H           -7.67721962051485       56.80739824868859      117.26043432973836
C           -6.60590595606396       53.27304436311825      115.76205167511651
H           -5.60091286205776       52.84784781364968      115.65230284607075
H           -7.33013611220275       52.55475421475865      115.35637122716420
H           -6.80495561533220       53.42316740625833      116.82773468233418
C           -8.82573909665359       60.76781536329586      114.51331332669713
H           -8.50164510058808       60.38187687217868      115.48652960796831
H           -9.84793038302147       60.41098853464307      114.32449457418407
H           -8.82622810137701       61.85946369735120      114.55988216837709
C           -7.79367524478221       62.16717015282128      111.70429831592087
H           -7.22452957244505       62.45418296082418      110.81941238649198
C           -8.74063789592885       63.04990008469474      112.13839959979377
H           -9.36926882095294       62.83531451574811      112.99351588422648
H           -8.90028276990128       63.99455707325831      111.63096918073008
C           -4.14528324009349       61.06128591777624      108.10431926813041
H           -4.14570036471135       61.80355323960882      108.91211276674809
H           -4.99803965423891       61.26931370934896      107.44429219299936
H           -3.21644879211112       61.17220836760250      107.53719726014944
C           -2.52974212124317       58.29655293919553      107.34698146317845
H           -1.92368468985355       57.40105044216411      107.48953156612914
C           -2.26182712457769       59.03042158639222      106.22659118622558
H           -2.82038202404349       59.92634912518454      105.98102277619462
H           -1.48398629743084       58.72462123380535      105.53489604114426
C           -2.90354905387359       53.19501125181309      108.71280848576424
H           -1.85228213785800       53.50095097312116      108.63826824355870
H           -3.42221522806347       53.52134804067407      107.80167614473909
H           -2.94991131056533       52.10351203680885      108.77683416638637
C           -4.00161145181932       51.66957527638439      111.30914550116496
H           -3.10705361361645       51.23326660292037      110.85126369785053
H           -4.88532913472857       51.17173012316976      110.88915792667152
H           -3.96747359860706       51.48141342653523      112.38787580507523
O           -4.30195335106962       57.68084976063138      113.09117956002835
H           -4.53346772036406       57.31118835271073      113.94233322158679
H           -3.56997494504528       58.24991018756922      112.95473018660329
C           -9.00007615018314       54.88419528687157      107.62290799054004
H           -9.33484936283974       55.55359058147493      106.82225966011201
H           -9.83460768724732       54.23210370329184      107.90868524865139
H           -8.17832633106034       54.26823303743386      107.24509856384384
N           -9.22845176887926       56.54353234856520      109.55258200316722
H          -10.17013716378476       56.83520188427300      109.35743460401578
C           -8.51359824325138       55.66699725995362      108.81268383608729
C           -8.46877636626848       56.96462803999207      110.57439382629099
H           -8.79300556556542       57.65897556929918      111.32873765416237
N           -7.28246888460175       56.39700639671550      110.50106076136350
C           -7.28337488702227       55.59413482641884      109.43067268603771
H           -6.41111225569168       55.02668037726497      109.16576125232145
78
 energy: -116.039143290380 gnorm: 0.043812993254 xtb: 6.7.1 (edcfbbe)
Fe          -5.72465839197850       57.02299705098851      111.68431466743014
N           -6.41428706970389       56.11028742028912      113.34207488063065
N           -6.67723752238638       58.73172691035425      112.23854979062428
N           -4.87690895020794       57.98880052002679      110.12691398971120
N           -4.64687455679106       55.36559208972237      111.21074971167292
C           -6.12810935159788       54.83985892944342      113.73976765936733
C           -6.70586173028700       54.57961796466464      115.03329469901028
C           -7.33118744546482       55.73113654448773      115.42155836556250
C           -7.12013500678413       56.68179734703806      114.36054956831343
C           -7.38152567813417       58.94009990553128      113.38468928456780
C           -7.92319048969477       60.27180719829527      113.41893649684924
C           -7.51193948285416       60.88870113192315      112.25405804591770
C           -6.68736974491963       59.90838879167707      111.56222348087412
C           -5.07432434286482       59.29097807193686      109.78135012133457
C           -4.23626530130720       59.66699641033217      108.67572184568471
C           -3.51464100780802       58.53947357523847      108.33887311161253
C           -3.94603752885433       57.50685281371798      109.26500076306576
C           -3.90180617250875       55.18322457969067      110.09022379373742
C           -3.55787549991764       53.79185936627455      109.92979048536645
C           -4.05803641647264       53.14585466721236      111.02355092028070
C           -4.72940965771685       54.15163717814984      111.81654175538650
C           -5.37190669097518       53.92594761748359      113.02141273501341
H           -5.27190892243127       52.93811699569426      113.44655513940127
C           -7.54692849684423       57.99916659753891      114.39067200080385
H           -8.04664627136367       58.32824082226929      115.29001725840676
C           -5.94978107492349       60.15753334648800      110.42033430416485
H           -6.02277514547801       61.14696102005654      109.99568228517641
C           -3.51413923082874       56.19218612054014      109.22509113602173
H           -2.81964533049368       55.91567864177042      108.44582725240906
C           -8.11795126815647       55.99142772714693      116.66340623996931
H           -8.15423455664759       55.09981220562453      117.28269675552968
H           -9.14192160233543       56.27555080688884      116.41799292645453
H           -7.67835102230772       56.79988794564151      117.24859541830931
C           -6.60783202908190       53.28221784885057      115.76210464324754
H           -5.61178820547859       52.85585217874122      115.65708503906120
H           -7.32439169662806       52.56323472442514      115.36307522573799
H           -6.80965744046328       53.41821704501442      116.82079179552257
C           -8.81337450774856       60.76637464407624      114.50856095819881
H           -8.49902214330413       60.38013841044436      115.47599669238897
H           -9.83642417523041       60.42658132631311      114.33067716891863
H           -8.81280591666262       61.84866547773292      114.56754131272483
C           -7.81524813812386       62.18708741191791      111.71409327922946
H           -7.23322554075885       62.46178294275433      110.84029854361286
C           -8.73077096951654       63.04102833089428      112.12935173255508
H           -9.37416815632646       62.84471354362515      112.96642819365141
H           -8.88745679396599       63.98316057597113      111.63301175494243
C           -4.14446248569384       61.04571332516031      108.11280758756334
H           -4.15203107646726       61.78807416034647      108.91039343330313
H           -4.98617201739777       61.25745071482576      107.45100863985928
H           -3.22422849417327       61.16906227525293      107.55089066495572
C           -2.52021748246884       58.31239802797954      107.32318225477233
H           -1.92044827235850       57.42148918273548      107.48174913426875
C           -2.27108538425090       59.02230554217277      106.24113701379238
H           -2.82307167925102       59.90598154433419      105.97577941677447
H           -1.49317986133956       58.73265444915854      105.55403922732198
C           -2.89988904395378       53.19950212674534      108.72757151786638
H           -1.85700986552184       53.50484548527529      108.64638912419298
H           -3.41281187394779       53.52007133764550      107.81990224542169
H           -2.94024262239308       52.11479477142442      108.77418283175949
C           -4.00012948123195       51.68268846107802      111.31091007136543
H           -3.11526398524115       51.23990323310376      110.85916325148317
H           -4.87745483195153       51.17947077985111      110.90062391339406
H           -3.96994438846861       51.48910019049698      112.38003307392795
O           -4.24442014950099       57.65439880594456      113.08017763932520
H           -4.48389846723629       57.35053365597431      113.96063581152335
H           -3.52737997651121       58.27991789826152      112.98375588052225
C           -8.99788162559924       54.89377878148599      107.63087394348501
H           -9.33420808160632       55.55749588643533      106.83648951691181
H           -9.82773619551135       54.24417703042457      107.90759065451417
H           -8.19039735136493       54.27762533439141      107.24849745641484
N           -9.23639264398948       56.52901524039041      109.54755132366725
H          -10.18110338690404       56.81882525980071      109.35117261810369
C           -8.49848276471843       55.64824783022848      108.80994232404024
C           -8.46704959875150       56.96883542763224      110.56973901387262
H           -8.79418885130363       57.65931324305553      111.31574945887618
N           -7.27097917496696       56.42376012753284      110.51354910347085
C           -7.27797342338169       55.59784980973138      109.43511586715459
H           -6.41122878821408       55.03046728622597      109.17036275764283
78
 energy: -116.044748243287 gnorm: 0.044856101797 xtb: 6.7.1 (edcfbbe)
Fe          -5.70363053113442       57.02814812923971      111.69658851511427
N           -6.41284395732906       56.10472376224356      113.33081099235538
N           -6.66443600643436       58.72305910200474      112.23653088414287
N           -4.87333593845729       57.98965460276045      110.14049655097791
N           -4.68347362081925       55.36193296569385      111.20033205527268
C           -6.13425954332610       54.83258991177050      113.72909406269183
C           -6.71059843657075       54.57468233997268      115.03197222197412
C           -7.33268578970219       55.72165949147142      115.41524719325356
C           -7.12699701170666       56.67486372728361      114.34538679214656
C           -7.38883228148304       58.92399631848544      113.37529159297624
C           -7.93405167048501       60.25881412964818      113.40800421067972
C           -7.52511571356580       60.87673053718088      112.24907793254128
C           -6.69115778824669       59.89926633138330      111.55480767466433
C           -5.07344048471385       59.29140461702217      109.79298514510393
C           -4.23149387989571       59.66297010577031      108.68143637671982
C           -3.51806117631574       58.53951612008578      108.34215487366086
C           -3.95163412194452       57.50230968673769      109.27061539012904
C           -3.93299199462645       55.18275842639500      110.08130188883278
C           -3.57308008583801       53.78778115319481      109.92967166379118
C           -4.07166342027355       53.14278696693763      111.01834556262732
C           -4.75978126234008       54.14747052853157      111.80748337856627
C           -5.39173038051526       53.91205676221185      113.01334463850795
H           -5.29182201504813       52.92462978161549      113.43851115734672
C           -7.56598745567437       57.98451932626385      114.37881707347938
H           -8.08434706484164       58.30332349400076      115.27093906356205
C           -5.95352106843587       60.16074395551077      110.41684173493513
H           -6.02408484198775       61.15021108863680      109.99198311153879
C           -3.53238234280431       56.18628094252740      109.21831347158873
H           -2.84407129483572       55.90282755389212      108.43673389341969
C           -8.11208694489037       55.98954787498226      116.65715250867169
H           -8.15192605639838       55.10372911570525      117.28385596843162
H           -9.13374220950036       56.27612628269389      116.41160633987897
H           -7.67041270772547       56.79979700875573      117.23610507065567
C           -6.61009231756159       53.28215617609043      115.76318523798338
H           -5.61370064602200       52.85877560285643      115.66347524321337
H           -7.32341243890190       52.56108522186301      115.36473027184775
H           -6.81771148688584       53.41613696707165      116.82056583125758
C           -8.80325268972002       60.76192835478479      114.50891094202815
H           -8.48779725549938       60.36407018567677      115.47021266601263
H           -9.83507211756252       60.44607719734521      114.33989905045263
H           -8.78141024556612       61.84301659865886      114.57931144341234
C           -7.81904689339674       62.18752621040187      111.71620897231567
H           -7.22307283868219       62.46455300698785      110.85501174074439
C           -8.74428885555710       63.04838511899987      112.12161714983563
H           -9.41552702724622       62.85561050361417      112.93731167535157
H           -8.87964690337980       63.99573535749443      111.63012431649129
C           -4.14365019549896       61.03840445931510      108.12100121725980
H           -4.16293774702384       61.77941680299277      108.91823664611763
H           -4.98002529420915       61.24445576237927      107.45223964366514
H           -3.22069567092024       61.16838094331698      107.56663952184807
C           -2.51605267423581       58.31570488016388      107.32420613307970
H           -1.90688316593378       57.43512514909926      107.48983609849260
C           -2.27615117852870       59.03041201398828      106.23245703170515
H           -2.84607553189202       59.89644132460130      105.94987565426722
H           -1.49140313985023       58.74990239602057      105.55056044839750
C           -2.89334545470676       53.20496734875447      108.73729654852970
H           -1.85351114049162       53.51943318927338      108.66581722889548
H           -3.40088159559823       53.52317232034611      107.82742576977587
H           -2.92345143410253       52.12011049541677      108.77646722389461
C           -4.00254716690888       51.68629873476738      111.31732528811007
H           -3.11747593422833       51.24405568810360      110.86750466814571
H           -4.87820473420255       51.17652628511740      110.91348894170510
H           -3.97096879630035       51.49945803519619      112.38633461425911
O           -4.12108805368508       57.58080298756786      113.05981363284118
H           -4.43177973366737       57.42987557807127      113.98763333493827
H           -3.49380135128923       58.34015034279783      113.01105484935266
C           -8.99347042395642       54.89870332941064      107.63774045657053
H           -9.33230003834543       55.57149226406435      106.85266808303599
H           -9.82609681799003       54.25272786313476      107.91165615455787
H           -8.19484564837220       54.28043936736653      107.24312392684872
N           -9.23832192897277       56.51806496401050      109.55060998513875
H          -10.18637679407053       56.79784733274880      109.35307170771402
C           -8.48534827274295       55.63954962868380      108.81738395792446
C           -8.46632146643604       56.97562826412260      110.56619390716291
H           -8.79986020014060       57.66884497558072      111.30636920183450
N           -7.26465000703690       56.44609186833129      110.51945561493150
C           -7.26802330965913       55.60775867034718      109.44205047125644
H           -6.40074428515617       55.04078809245449      109.17905850655870
78
 energy: -116.047890561247 gnorm: 0.025506751552 xtb: 6.7.1 (edcfbbe)
Fe          -5.68756236550971       57.03123086362342      111.70568368456780
N           -6.40344539290624       56.10264079569602      113.32726909455923
N           -6.64328355301668       58.72128111600038      112.24191014760559
N           -4.86513923268249       57.99178825941519      110.15468761349688
N           -4.71861026014031       55.35760900065948      111.18903001935178
C           -6.13849312344157       54.82812973170613      113.72227041550516
C           -6.71497618170147       54.56987732910962      115.02763664007705
C           -7.33611128724553       55.71549612137454      115.40710649065370
C           -7.12850459030326       56.66859623060442      114.33453713220734
C           -7.39176433892462       58.91299369764272      113.36810860938979
C           -7.94715735114668       60.24408551409959      113.39578034195533
C           -7.53890459600231       60.86270654290892      112.24097209699102
C           -6.68952049286719       59.89387338720059      111.55335565515833
C           -5.06700987349216       59.29176866494848      109.80558245516852
C           -4.22797839645712       59.65881503371646      108.68819328701218
C           -3.52218687659067       58.53652609762731      108.34604076801574
C           -3.95635673465639       57.49933492785577      109.27526992059654
C           -3.96361621260610       55.18110438104747      110.07355244828608
C           -3.59113227782993       53.78721625894529      109.92769698667681
C           -4.09001376556187       53.14194007885606      111.01303285848107
C           -4.78985814243064       54.14392659611119      111.79597455855749
C           -5.41324722315441       53.89850921463751      113.00331377684731
H           -5.31937787318992       52.90875526043628      113.42467724552709
C           -7.58500910001766       57.97058037291706      114.36646927693369
H           -8.13682875572638       58.27451766494190      115.24488262677605
C           -5.95214128618505       60.16378931311234      110.41700719659947
H           -6.03053658079799       61.14927811776167      109.98475207212250
C           -3.55336728020913       56.17914603215941      109.21075284954436
H           -2.87513689142653       55.88819332666980      108.42291016252696
C           -8.10930820628809       55.99125776000333      116.65066336777436
H           -8.14989062942711       55.10849930613576      117.28391968660112
H           -9.13063811685491       56.28005882596560      116.40477350712329
H           -7.66004881835923       56.80326189091620      117.22260385661306
C           -6.61254632023508       53.27922037705611      115.76320526362406
H           -5.61228570923065       52.86127759140510      115.67188947913566
H           -7.32157144056132       52.55386129870022      115.36250605962823
H           -6.82894672096051       53.41558176847250      116.82021072900753
C           -8.79667422867624       60.75877574777873      114.50731005843055
H           -8.47704090855307       60.34673555346501      115.46279881132638
H           -9.83975308264717       60.47091453898538      114.34881797009528
H           -8.74439593525046       61.84145727669225      114.57997668146228
C           -7.82529394123227       62.17984600503372      111.71508004074128
H           -7.20811413281788       62.47311333457326      110.87515436951897
C           -8.76362415035711       63.04674808355789      112.11216023656681
H           -9.45865173853143       62.85216356333098      112.90949672136935
H           -8.86995275724431       64.00336004702334      111.62662440612257
C           -4.14288227379346       61.03459992966560      108.12834200465879
H           -4.17740129008882       61.77466785121445      108.92712795448571
H           -4.97421010451770       61.23130675180326      107.44926883073379
H           -3.21294380663492       61.16834669316692      107.58367406766052
C           -2.51642117707289       58.31723328012619      107.32858295157813
H           -1.88423563259735       57.45557840448681      107.50236487563855
C           -2.28939913998198       59.03549136836224      106.22312611932892
H           -2.88079774710321       59.88478138088519      105.93029542838762
H           -1.48996047116667       58.76779505445422      105.55128262148354
C           -2.88389397171935       53.21314438324315      108.74653311872767
H           -1.84599498390860       53.54179634901202      108.69491075950121
H           -3.38207427315847       53.52816207518818      107.82972324291485
H           -2.89972062562194       52.12641556994895      108.78261256875926
C           -4.00669254299001       51.68840457332148      111.32714058468795
H           -3.11870309637400       51.24909049522655      110.87786974437121
H           -4.88133885425278       51.16789129187897      110.93203681614665
H           -3.96889286335384       51.51429899392685      112.39908540160162
O           -4.06461484659761       57.61519697586146      113.06812048094558
H           -4.32028354788311       57.43081592798254      113.97271316623679
H           -3.43641574951585       58.34845267419288      113.02356110408795
C           -8.98761226237924       54.90110894679340      107.64504284291927