78
 energy: -115.990315205174 gnorm: 0.204563421926 xtb: 6.7.1 (edcfbbe)
Fe          29.39200000000000        7.53900000000000        2.77100000000000
N           29.25700000000000        8.69400000000000        4.40500000000000
N           27.28800000000000        7.35200000000000        2.73400000000000
N           29.38700000000000        6.05000000000000        1.29700000000000
N           31.27900000000000        7.37000000000000        3.02900000000000
C           30.31400000000000        9.21000000000000        5.08800000000000
C           29.84400000000000       10.06300000000000        6.11500000000000
C           28.49000000000000       10.04000000000000        6.06900000000000
C           28.12500000000000        9.16500000000000        5.01200000000000
C           26.45000000000000        7.93800000000000        3.63100000000000
C           25.08300000000000        7.56900000000000        3.36300000000000
C           25.11600000000000        6.70100000000000        2.30500000000000
C           26.53100000000000        6.56800000000000        1.90200000000000
C           28.32700000000000        5.54900000000000        0.56700000000000
C           28.83600000000000        4.70100000000000       -0.44400000000000
C           30.22400000000000        4.68300000000000       -0.31200000000000
C           30.53000000000000        5.53100000000000        0.78500000000000
C           32.11500000000000        6.57900000000000        2.32000000000000
C           33.48800000000000        6.67600000000000        2.81900000000000
C           33.48100000000000        7.55600000000000        3.84300000000000
C           32.07200000000000        7.98000000000000        3.97600000000000
C           31.65300000000000        8.93400000000000        4.89700000000000
H           32.39700000000000        9.47500000000000        5.48000000000000
C           26.81700000000000        8.83400000000000        4.65900000000000
H           26.01200000000000        9.30600000000000        5.22300000000000
C           26.96300000000000        5.79200000000000        0.80800000000000
H           26.22100000000000        5.36900000000000        0.13100000000000
C           31.79600000000000        5.74500000000000        1.24300000000000
H           32.61400000000000        5.23200000000000        0.73700000000000
C           27.51500000000000       10.75000000000000        6.97000000000000
H           28.07300000000000       11.33700000000000        7.73100000000000
H           26.87300000000000       10.00600000000000        7.48800000000000
H           26.88600000000000       11.44300000000000        6.37100000000000
C           30.73000000000000       10.86600000000000        7.07600000000000
H           31.59700000000000       11.28300000000000        6.52000000000000
H           31.10500000000000       10.20200000000000        7.88400000000000
H           30.14600000000000       11.70400000000000        7.51300000000000
C           23.83100000000000        8.00800000000000        4.14800000000000
H           23.32500000000000        8.83600000000000        3.60700000000000
H           24.12700000000000        8.36600000000000        5.15700000000000
H           23.12700000000000        7.15400000000000        4.23900000000000
C           23.95700000000000        6.03700000000000        1.65500000000000
H           24.12900000000000        5.06800000000000        1.16500000000000
C           22.71600000000000        6.49700000000000        1.60300000000000
H           22.45700000000000        7.45900000000000        2.06900000000000
H           21.92800000000000        5.92200000000000        1.09300000000000
C           27.93400000000000        4.01200000000000       -1.46700000000000
H           27.81300000000000        4.66700000000000       -2.35600000000000
H           26.93500000000000        3.82400000000000       -1.02000000000000
H           28.39399999999999        3.05200000000000       -1.78700000000000
C           31.24100000000000        3.96000000000000       -1.13400000000000
H           32.30500000000000        4.02900000000000       -0.86300000000000
C           30.91500000000000        3.20200000000000       -2.22700000000000
H           29.89600000000000        3.22800000000000       -2.64100000000000
H           31.66800000000000        2.55800000000000       -2.70400000000000
C           34.70900000000000        5.93100000000000        2.27100000000000
H           34.97200000000000        6.33500000000000        1.27000000000000
H           34.47599999999999        4.84900000000000        2.17300000000000
H           35.57299999999999        6.07300000000000        2.95500000000000
C           34.68600000000000        7.96200000000000        4.66800000000000
H           35.45200000000000        8.41800000000000        4.00600000000000
H           35.12200000000000        7.06700000000000        5.16100000000000
H           34.38300000000000        8.70700000000000        5.43400000000000
O           29.44400000000000        5.87400000000000        4.59500000000000
H           29.38200000000000        6.37300000000000        5.41000000000000
H           29.50700000000000        4.99000000000000        4.52300000000000
C           28.49700000000000       10.49300000000000       -1.86500000000000
H           29.35500000000000       10.64900000000000       -2.55300000000000
H           27.95300000000000       11.45400000000000       -1.74400000000000
H           27.82100000000000        9.72600000000000       -2.30000000000000
N           29.86900000000000       10.78500000000000        0.22200000000000
H           30.22400000000000       11.68200000000000       -0.04000000000000
C           29.00000000000000       10.02800000000000       -0.53800000000000
C           30.14600000000000       10.12300000000000        1.34500000000000
H           30.82900000000000       10.47900000000000        2.11500000000000
N           29.45600000000000        8.98100000000000        1.35400000000000
C           28.74800000000000        8.90000000000000        0.18100000000000
H           28.12500000000000        8.04200000000000       -0.03700000000000
78
 energy: -116.030752616499 gnorm: 0.075519171929 xtb: 6.7.1 (edcfbbe)
Fe          29.37398024089019        7.47352690943723        2.80338048586664
N           29.26093960034472        8.70270888372443        4.38742498721235
N           27.28745001317285        7.34500812071851        2.74211668464117
N           29.38898096474021        6.05635232925174        1.30080660670328
N           31.30025189206976        7.37523978592233        3.02186721996277
C           30.31227821598321        9.22501441278893        5.07732483609683
C           29.84293570134806       10.08334283824523        6.12226474701788
C           28.48251043241278       10.04659926898399        6.07541567236607
C           28.12698236755326        9.17235851337449        4.99155843775711
C           26.44618803433826        7.94902418941589        3.62389852435748
C           25.07707387199807        7.56782426359049        3.36007990479464
C           25.11066212355384        6.70865855432691        2.29095956336662
C           26.52367372802929        6.58097111007243        1.90754335053789
C           28.33662950366880        5.55951065474364        0.57385505203776
C           28.83180107976026        4.70172922361880       -0.46077663716472
C           30.21331359083354        4.67923041242514       -0.34799992698032
C           30.52194496618014        5.53250614217619        0.77086582932934
C           32.13353198787788        6.57538994347968        2.31010596111321
C           33.49629325371460        6.67234406397793        2.80883240271051
C           33.47927691458484        7.55761294380865        3.83501633150266
C           32.08920367549402        7.99628911989517        3.95720122127204
C           31.65255463713731        8.93307273311343        4.87727224747975
H           32.38659311265459        9.45001158240519        5.48217411006000
C           26.82513585074328        8.83251604953999        4.63985535593195
H           26.02830950662738        9.29174203079305        5.21430131204326
C           26.98212836728986        5.81316643641965        0.83490447936915
H           26.24296998361851        5.37801843242535        0.17030108128963
C           31.79991615888740        5.75171675993171        1.24328795682150
H           32.61219326901175        5.23792103914418        0.74816249773314
C           27.51367925941766       10.74960386041400        6.97008726203668
H           28.05183800677589       11.33028911124985        7.72494830568883
H           26.87331965764815       10.02407663549880        7.48220662669264
H           26.88499462443813       11.43150201613804        6.38717179162941
C           30.72290224483462       10.86194857122091        7.06790787409806
H           31.58140944501015       11.27945737320088        6.53212611728189
H           31.09739475792345       10.21594810921930        7.87016204143863
H           30.16102436281433       11.68786791074512        7.51142207413335
C           23.85552906989303        8.00310734012347        4.14027636797015
H           23.34414494930157        8.82303111674835        3.62105154151788
H           24.12575690153295        8.35370789069344        5.14025932819869
H           23.15159794471410        7.16973259753740        4.23651737077765
C           23.97331185098936        6.04070675631248        1.65306406310780
H           24.16248789196994        5.08184327453623        1.17075897468154
C           22.72432907750821        6.49572612126562        1.60824019411556
H           22.45127272741862        7.44708954314976        2.04517448693991
H           21.94198350784871        5.93557043943845        1.10724482315654
C           27.93500822103322        4.01616336342572       -1.45606591969888
H           27.81233641238382        4.65019885044237       -2.34338139569431
H           26.94899681495313        3.82839545431394       -1.02532036815610
H           28.35692728828435        3.05737244932726       -1.76485840176966
C           31.20753929182936        3.95340061457160       -1.14333687571676
H           32.25328345237526        4.01395341079655       -0.83839878195202
C           30.92496584785622        3.21213664580556       -2.22334675152165
H           29.93620927800602        3.20700337888067       -2.65122722288258
H           31.67559944620066        2.59659062737423       -2.70432116090170
C           34.69428032765864        5.93514862824959        2.27008205493054
H           34.96689033655281        6.32510409422216        1.28279155059808
H           34.48167637926530        4.86575261309651        2.17458637437652
H           35.54907841782536        6.06738898300083        2.93963412460280
C           34.66507973907635        7.96598669772133        4.66311655274103
H           35.43441114625701        8.41182197717940        4.02138542825165
H           35.10602597218303        7.09103856736582        5.15552576356358
H           34.38934059554912        8.69556259943232        5.42825068043789
O           29.42849633233527        5.90083160713624        4.57488146933402
H           29.38176297444509        6.36576841624508        5.40843866365351
H           29.50658457574939        4.96504047179590        4.52505206797116
C           28.50221452145695       10.49200268225967       -1.85831258313378
H           29.33892265619947       10.64919977202566       -2.54896331755521
H           27.95852996785915       11.43789017143921       -1.75483610345892
H           27.83299975866041        9.74314761765883       -2.28843255434531
N           29.86802446764685       10.77697280930060        0.21997271388812
H           30.22867563593523       11.67878583390156       -0.04284079505106
C           28.99818047102317       10.02872783313601       -0.53215922128511
C           30.13125448723959       10.10243696059751        1.35531202139807
H           30.80599399277680       10.45668664854395        2.11588569984624
N           29.46146135533623        8.95966981893243        1.37898414386110
C           28.75527551158736        8.90444486766428        0.20277185318834
H           28.13529499990171        8.05676011891481       -0.02248924821441
78
 energy: -116.042916150995 gnorm: 0.025374335983 xtb: 6.7.1 (edcfbbe)
Fe          29.35521596036433        7.43056163717887        2.82331566686689
N           29.26403166210111        8.70976819199506        4.37142491911866
N           27.29576702046895        7.33375816601600        2.75952385063412
N           29.39613926775261        6.05751121847082        1.31565964143031
N           31.31665928730597        7.37308940803084        3.01455656060005
C           30.31012536297236        9.23887608559746        5.06178943530671
C           29.84026173647102       10.10158059396553        6.11813022977595
C           28.47801313045659       10.05496748874374        6.07114327043645
C           28.13136996284999        9.17897912182925        4.97240193416050
C           26.44974998891469        7.95460304293213        3.62528485169968
C           25.07958498261881        7.57862741238759        3.35431641000078
C           25.11511988966394        6.72572656577388        2.27859868257082
C           26.52577153218702        6.58830164864194        1.92265334148852
C           28.34618661245117        5.56972559847764        0.59236856602355
C           28.82166957175068        4.71011535348386       -0.46525294482976
C           30.19698632477806        4.68220427116744       -0.36809265720174
C           30.51794428929146        5.53554530840020        0.76368135902297
C           32.14874547804931        6.56965584890946        2.29973996996503
C           33.50362469539102        6.67257384515020        2.79627542849461
C           33.47743214750814        7.56596052312983        3.82083352960604
C           32.10077061528342        8.00487077537296        3.93799473342083
C           31.64739869434996        8.93025288694400        4.85737003338521
H           32.37416140496531        9.42139862706103        5.48823066827089
C           26.83463377761187        8.83232868245189        4.62890773334463
H           26.04424567982567        9.28454697541159        5.21111003588908
C           27.00280605926185        5.82578440735254        0.86807100041377
H           26.26580660612979        5.37802356711239        0.21454042791085
C           31.80171364990935        5.75561852875005        1.23904980080987
H           32.61007850943744        5.23860997962047        0.74890052650306
C           27.50852532086834       10.74847222660479        6.96472653199715
H           28.03517771676447       11.32613231850035        7.71841092317365
H           26.86864795925680       10.03060223922869        7.47382007768094
H           26.87520294812216       11.42385313804915        6.39251905552490
C           30.71481521275973       10.86033509983304        7.05810770127439
H           31.57111342661154       11.27704574405566        6.53354162770030
H           31.08798994781438       10.21697772176551        7.85464322777668
H           30.16590887708773       11.67932837213397        7.51322114094725
C           23.88066237893465        8.00358630783754        4.13327645861782
H           23.36733128785619        8.82406953778895        3.63023419075248
H           24.14662336305719        8.34010172149434        5.13091618302503
H           23.17848945231075        7.17650716905021        4.22502340284306
C           23.99961445181025        6.05233301861034        1.64494216825850
H           24.21103586606097        5.09988842193021        1.17147077195942
C           22.74433864112895        6.49760522243981        1.60171576553119
H           22.45219603905387        7.44091785399920        2.02186138859578
H           21.96338100117607        5.93260425241489        1.12225298855881
C           27.92684814512666        4.02282389017459       -1.43963132485410
H           27.80892989453812        4.63441617310620       -2.33607545347300
H           26.94366030002171        3.84949651763345       -1.01445725293140
H           28.32815333751053        3.05816414491556       -1.73203403319530
C           31.17295167887804        3.95273589235980       -1.14314699707658
H           32.19951946872559        3.99785746556604       -0.78886436352401
C           30.93461567364379        3.22281430457333       -2.23007723400938
H           29.96440935982447        3.17571484943473       -2.67998245453874
H           31.70367155215004        2.64630303773520       -2.71564609365029
C           34.68546154072641        5.93638478220836        2.26777404881479
H           34.96060542917662        6.31572472867169        1.28436327340898
H           34.47796622593032        4.87306753810425        2.17572618575612
H           35.53545225973136        6.06478942648124        2.93145182267131
C           34.64664847418733        7.97456604801117        4.65664505077520
H           35.42001534203172        8.41747701394514        4.02874972223101
H           35.08346556559843        7.10585527223325        5.15008606881779
H           34.37418329636793        8.69318351210647        5.42100959097642
O           29.36039467417717        5.90760887283230        4.53605812514302
H           29.39499353928146        6.33733661779075        5.39654736444153
H           29.51866375604007        4.95877608540266        4.52633676271121
C           28.50583510223607       10.48836535199033       -1.84997625538418
H           29.33529363509042       10.64455038754918       -2.53806766202492
H           27.96335364872598       11.42770163146787       -1.75423060039770
H           27.83974718379392        9.74647228963460       -2.27491898567749
N           29.87099271770208       10.76759165064475        0.22650970878336
H           30.24086733496189       11.66912548890172       -0.03292721416592
C           28.99725953768895       10.02768679204213       -0.52479888190447
C           30.11776961884977       10.08271506355860        1.36745046844533
H           30.78416452529737       10.43149755692217        2.12873541848034
N           29.45166568614388        8.95119374100550        1.39307852760435
C           28.75354714675554        8.90677784657914        0.21595645513024
H           28.12982655829027        8.06929990032281       -0.01585439671940
78
 energy: -116.045009054396 gnorm: 0.064662174846 xtb: 6.7.1 (edcfbbe)
Fe          29.34080527295496        7.41112585673764        2.83255775768531
N           29.26272181012003        8.71504222066174        4.36083355992955
N           27.30644175608386        7.33594455945834        2.77099499989516
N           29.40212024171733        6.05842350103855        1.32710746033147
N           31.32168891081349        7.36554220039082        3.00848750303110
C           30.30779351665449        9.24698044030664        5.04829764327313
C           29.83795989491832       10.11486781086548        6.10623366736307
C           28.47676505708436       10.06630499344261        6.06033821260048
C           28.13405584331956        9.18763889577571        4.96039693594702
C           26.45678825556241        7.96266888359483        3.62818980019034
C           25.08831282869980        7.59523819423458        3.34914794593450
C           25.12627537785306        6.74480800530799        2.27255516708466
C           26.53408598711207        6.59768412923247        1.93456750393534
C           28.34952187131661        5.57604465217247        0.60977576727825
C           28.80822036469578        4.71676148620194       -0.45822261479137
C           30.18046935462781        4.68078816286264       -0.36930081002197
C           30.51644929559765        5.53438840790151        0.76354127323873
C           32.15574927994120        6.56523298898462        2.29097507675827
C           33.50739571826818        6.67549269462361        2.78513485055726
C           33.47564274527362        7.57430720598959        3.80707232638371
C           32.10266264888843        8.00622553007273        3.92390575551468
C           31.64101619599343        8.92667837132003        4.84482454139812
H           32.36490428470595        9.40035732924362        5.49208675756758
C           26.83924206051565        8.83983967538858        4.62693952441079
H           26.05249763517892        9.28922803505315        5.21426687036409
C           27.01363847313655        5.82981647668757        0.89162169922970
H           26.27662042439293        5.36975004697054        0.24882307362360
C           31.80236347905655        5.75337551864271        1.23261482203345
H           32.60995020913344        5.23580938626838        0.74111128999785
C           27.50159292053613       10.74972904277984        6.95535353067576
H           28.02122422124255       11.32806468115670        7.71301650233005
H           26.86425037249136       10.02710521293578        7.46134858719182
H           26.86088905534600       11.42179300247012        6.38746054242255
C           30.71280864249847       10.86208734034513        7.04976863150801
H           31.57099211701003       11.28114886560611        6.53073376512396
H           31.08360010853717       10.21009786976395        7.84073671979306
H           30.16811940467766       11.67775923607406        7.51670720573716
C           23.89734126892655        8.01258944706250        4.13251830506313
H           23.38339897176608        8.84151686012897        3.64475879791959
H           24.16904170657760        8.33074013087570        5.13453382085753
H           23.19535117381687        7.18431420473949        4.21248739719062
C           24.02486145380947        6.06149281443051        1.63810975348651
H           24.25938508235809        5.11502804355715        1.16504040007784
C           22.76426690692256        6.49156459230432        1.59540249538774
H           22.45969923168312        7.44095163992660        1.99382495051416
H           21.98849162415975        5.91745924084384        1.12012841112687
C           27.90844805762731        4.02600919446119       -1.42035616263257
H           27.80443387903276        4.61585083705892       -2.33356242354177
H           26.91940234209241        3.87918140233423       -0.99701332627472
H           28.29698030254693        3.04718953869713       -1.68712080673621
C           31.15048959473909        3.94598635358958       -1.13553167051146
H           32.16341879149922        3.98356696099676       -0.74678902002920
C           30.95021131592381        3.23277407302363       -2.24353553335306
H           29.99623482252937        3.16614469988384       -2.73052868739119
H           31.74826531592279        2.69080460312192       -2.72450075192159
C           34.68478278908168        5.93431481764224        2.26209183952605
H           34.96177017450073        6.30417809363555        1.27552360093012
H           34.47332198175663        4.87121084214654        2.17587672227002
H           35.53517139878861        6.06191210060884        2.92466683031244
C           34.63442688448760        7.98605349809700        4.65149240852831
H           35.41308426177194        8.43244543583701        4.03396844301829
H           35.06632554834624        7.11718833478966        5.14807469600629
H           34.35151455091101        8.70052327079686        5.41536383599944
O           29.20214388228751        5.88436836276359        4.50052886970731
H           29.45288713235914        6.29865851212226        5.38061922968591
H           29.56977457252844        4.94818284753965        4.52208767443526
C           28.51095372202862       10.48560987369610       -1.84042431118275
H           29.34076018106475       10.63843531439240       -2.52771617079826
H           27.96886258626822       11.42511243239696       -1.74913915112497
H           27.84392716681210        9.74341688241491       -2.26227995106404
N           29.87551327735531       10.75793231404750        0.24094678085084
H           30.25690434898126       11.65574392720967       -0.01446078846984
C           28.99700816833674       10.02582923630588       -0.51438593570460
C           30.10731288910577       10.06647955396451        1.38323229240185
H           30.76710229488299       10.40784608399037        2.15273281509585
N           29.43544830607412        8.94423626747994        1.40047734613317
C           28.74085163206199        8.90698047479040        0.22464411319159
H           28.10879477231934        8.07802597573379       -0.01279098450704
78
 energy: -116.047760363835 gnorm: 0.022255721986 xtb: 6.7.1 (edcfbbe)
Fe          29.33022195758321        7.40141995697625        2.83756542654415
N           29.26065123562972        8.71788508494931        4.35437046577002
N           27.31721092619575        7.34147318870444        2.77919525031943
N           29.40729122513467        6.05844288381743        1.33592465357356
N           31.32293178187264        7.35741408464633        3.00361383801857
C           30.30643197846989        9.25196344650281        5.03771598190330
C           29.83664199470706       10.12423704911586        6.09377994436954
C           28.47729832263008       10.07630989939288        6.04944649751435
C           28.13625150350386        9.19495115054430        4.95310324581778
C           26.46458169886168        7.96927060219187        3.63145218528533
C           25.09844584286314        7.60915501959655        3.34606573000563
C           25.13859926407457        6.75964925061149        2.27063706790637
C           26.54414719366050        6.60483144672409        1.94462987099945
C           28.35107103430429        5.57917244087478        0.62415830318953
C           28.79698429668253        4.72176294960406       -0.44871705922241
C           30.16762152685560        4.67977368018443       -0.36526100197926
C           30.51697532481723        5.53257088383688        0.76520825516447
C           32.16003276702700        6.56309716702076        2.28306728697863
C           33.51050463802905        6.68098340132709        2.77455346964647
C           33.47535956652217        7.58319194995607        3.79414454060152
C           32.10207240343791        8.00643857970388        3.91279018500814
C           31.63603437876774        8.92451787315079        4.83614414720294
H           32.35881831525478        9.38710566464171        5.49299112203990
C           26.84188798084800        8.84800339617781        4.62849314355541
H           26.05718855605800        9.29573425302360        5.21927657965673
C           27.02014500008242        5.82922775579922        0.90896592216649
H           26.28223415171196        5.35971499703852        0.27530111783946
C           31.80350461521817        5.75056763841629        1.22535343370459
H           32.61169239975825        5.23437792646758        0.73045121281504
C           27.49570921218232       10.75082381700431        6.94657377403728
H           28.01046198206740       11.33108655727021        7.70901306944731
H           26.86171759529199       10.02020323960889        7.45011454821446
H           26.84767328627694       11.42080609491244        6.38069002108870
C           30.71318719656431       10.86509723696488        7.04284833700016
H           31.57346922625615       11.28757978853309        6.52632114559159
H           31.08234320593911       10.20279876713144        7.82893600748495
H           30.16866931821241       11.67839742917039        7.51949818793785
C           23.90921972043584        8.02023385315599        4.13492622389359
H           23.39572040070591        8.85862502051437        3.65974346570718
H           24.18872146408255        8.32132641584107        5.14249919912795
H           23.20708816185725        7.18871933083579        4.20247419438530
C           24.04643498328544        6.06810580763363        1.63218194753077
H           24.29940605744266        5.12437894903481        1.16114539227758
C           22.78223354744567        6.48464859601155        1.58811594685907
H           22.46776144700831        7.43849718667689        1.97515363939461
H           22.01047498965785        5.89861472774423        1.11691570053332
C           27.89306509366874        4.02633837368955       -1.40436114150543
H           27.80226232523641        4.59855062775824       -2.33278138690471
H           26.89691785641777        3.90322824876602       -0.98234433685020
H           28.27549612084342        3.03513449788209       -1.64802780624056
C           31.13579905174382        3.94173014123901       -1.13010059091749
H           32.13866501302305        3.96969117008799       -0.71610463251498
C           30.96212376191830        3.24446241926569       -2.25776640622228
H           30.01884044129328        3.16467031912102       -2.77331376460050
H           31.78516763629770        2.72636717150129       -2.72958308067049
C           34.68747301953314        5.93387676832908        2.25444989279382
H           34.96491082928882        6.29640069229214        1.26321423605234
H           34.46976187475491        4.86926305841997        2.17426731745431
H           35.53949049298500        6.06227646199048        2.91753893206887
C           34.62708204210231        7.99858523871933        4.64609685506159
H           35.40995125295355        8.45006436363384        4.03597514158580
H           35.05489099967964        7.12792966860704        5.14597428935639
H           34.33098366703485        8.71160997060210        5.40948208380958
O           29.29582083861408        5.87147067259715        4.48458904837992
H           29.37470389617109        6.25996157365672        5.34848852683837
H           29.50030408615696        4.93763218227461        4.51565229364011
C           28.51300420408262       10.48287452564007       -1.83074355497078