78
 energy: -116.058077609622 gnorm: 0.000024446492 xtb: 6.7.1 (edcfbbe)
Fe          35.79691083029125        4.23991582899816       10.32643772574856
N           37.64402111364055        3.87466509880310        9.67579000231021
N           35.47986957363810        5.47161879096817        8.79128600509605
N           33.95506655947751        4.64523265553579       11.03746763099545
N           36.12547096676060        3.03950864252614       11.90995403781786
C           38.57989675197852        3.07835887050841       10.25521185484201
C           39.80104044679044        3.07200721481629        9.47819313668276
C           39.57615829950763        3.88215504645410        8.41060281338547
C           38.22184961560649        4.37349952585740        8.55211898888000
C           36.34261653033349        5.74547292795374        7.77795067344618
C           35.76013386232082        6.67511038094454        6.84271487912179
C           34.51169815936214        6.96994770173352        7.32046010753922
C           34.35800211637756        6.19297115860138        8.53712688969046
C           33.03135981773192        5.47580262584105       10.47679650249991
C           31.81975959709026        5.49299763773322       11.25337172840308
C           32.02500906592597        4.63978803089639       12.30637386275595
C           33.36491329963704        4.11372582197228       12.14001119435491
C           35.24172206787566        2.72330179065717       12.89585846282088
C           35.82979247335170        1.78804369576917       13.82750679626364
C           37.09055805934760        1.54165184070276       13.37817958941532
C           37.25501166830757        2.32914796019925       12.17820182664750
C           38.40997629729537        2.34988258677861       11.41823655065359
H           39.23959158846113        1.74801247282909       11.75678853862761
C           37.62305893330923        5.23544994158361        7.65686258200563
H           38.20764414709515        5.55257782250210        6.80686293300119
C           33.22044465623249        6.21363650837730        9.32044986279213
H           32.41065925784803        6.85431640466524        9.00639448496253
C           33.95905220718924        3.22363819193966       13.01568117618178
H           33.37606321236184        2.89010117273192       13.86019291167953
C           40.48895734630983        4.24327579657010        7.28952145692351
H           40.05808070613888        3.94666038500373        6.33288115249307
H           41.45163521606198        3.74988599233413        7.39923798421515
H           40.65608428640649        5.32014454777200        7.26563707232796
C           41.02635206574371        2.30552464529508        9.84300172651613
H           40.81339207654672        1.23699423601207        9.89067513863531
H           41.39767856278056        2.61952779807855       10.81868155265223
H           41.81379027545811        2.46441537522691        9.11048684206637
C           36.40331445597650        7.14025777254065        5.58327587488752
H           36.96098195371347        6.33113547158780        5.11398597312251
H           37.09744434198910        7.95859201686423        5.78100242815344
H           35.64649365370357        7.49292378208585        4.88540894876147
C           33.49859259502658        7.83674636649450        6.76054232291068
H           32.47266310043710        7.52537737657988        6.92166474504526
C           33.72986689674485        8.95997075671630        6.08857667182641
H           34.72380578731895        9.34407514801622        5.94038013777147
H           32.92435470339027        9.55155595307798        5.68588785234945
C           30.58556818615529        6.24759207510983       10.90105513717871
H           30.41862846890458        6.23360304750026        9.82499187110018
H           30.66231338219205        7.28966050826309       11.21609440941205
H           29.72298184267477        5.80258818225544       11.39285181760355
C           31.12401202727751        4.27693581547649       13.37779751459962
H           31.21025040417858        3.25783856012892       13.73697998150073
C           30.23179149478744        5.08474857305068       13.94155339703610
H           30.13524790833954        6.11848896957609       13.65878549941807
H           29.58090591980579        4.74310731865588       14.72925800782482
C           35.13110135068575        1.24211348703772       15.02527869145865
H           34.23307641137951        0.69869690614741       14.73025349645716
H           34.83234449260779        2.04785759755488       15.69633898897895
H           35.77780576689990        0.56198205757942       15.57422096029740
C           38.14246301250466        0.65589473921341       13.95315238925717
H           38.42489415001547       -0.11924695561962       13.24007300826747
H           37.78807032280706        0.17290254559083       14.86040224383208
H           39.03616385872066        1.23064649658790       14.19733101458777
O           36.53142981331796        5.96055492049622       11.65222383116300
H           35.69003121060839        6.34548912280375       11.92061020180752
H           36.86325167570380        5.45429107337906       12.40171942145235
C           32.70966607079458        0.85259054634095        7.15376182567501
H           32.21359665113393        0.01599648731657        7.64571280077998
H           33.13080791288061        0.49456305916028        6.21437966625866
H           31.96961586053582        1.61581297531990        6.93478966993582
N           34.83722335312729        0.68594436436622        8.46429092788750
H           35.01055137847747       -0.28305413986277        8.25315205251910
C           33.76920248353985        1.42279452856256        8.02367525108814
C           35.60572956271138        1.49449007110276        9.22848635769457
H           36.51132817044225        1.18529068823434        9.70829187967556
N           35.08942845057581        2.69747186752901        9.29839695615724
C           33.94716744518891        2.66857404142629        8.55343439811396
H           33.33351176209948        3.53917870056973        8.44972470168165
