78
 energy: -115.966853275122 gnorm: 0.283522071223 xtb: 6.7.1 (edcfbbe)
Fe          35.70300000000000        4.15000000000000       10.19900000000000
N           37.57899999999999        3.87100000000000        9.66900000000000
N           35.45300000000000        5.47000000000000        8.74200000000000
N           33.88800000000000        4.58600000000000       10.93700000000000
N           36.00100000000000        2.92600000000000       11.80000000000000
C           38.53399999999999        3.02900000000000       10.24700000000000
C           39.76100000000000        3.03800000000000        9.46400000000000
C           39.58200000000000        3.91100000000000        8.43800000000000
C           38.22700000000000        4.42000000000000        8.54900000000000
C           36.36900000000000        5.83600000000000        7.74500000000000
C           35.78500000000000        6.79600000000000        6.81600000000000
C           34.50699999999999        7.03200000000000        7.25500000000000
C           34.31100000000000        6.22900000000000        8.45600000000000
C           32.96500000000000        5.48900000000000       10.41100000000000
C           31.80600000000000        5.62900000000000       11.28100000000000
C           31.99600000000000        4.79300000000000       12.34900000000000
C           33.28100000000000        4.12700000000000       12.11600000000000
C           35.11500000000000        2.63000000000000       12.83800000000000
C           35.71500000000000        1.71800000000000       13.81200000000000
C           36.99000000000000        1.49700000000000       13.40600000000000
C           37.16000000000000        2.22500000000000       12.14200000000000
C           38.35400000000000        2.26300000000000       11.41400000000000
H           39.19299999999999        1.66500000000000       11.77100000000000
C           37.67600000000000        5.33600000000000        7.65000000000000
H           38.29899999999999        5.68300000000000        6.82600000000000
C           33.14600000000000        6.23700000000000        9.23900000000000
H           32.32200000000000        6.87100000000000        8.91200000000000
C           33.83100000000000        3.18200000000000       12.98700000000000
H           33.22800000000000        2.85300000000000       13.83300000000000
C           40.59100000000000        4.27600000000000        7.34900000000000
H           40.25500000000000        3.85700000000000        6.37600000000000
H           41.58500000000000        3.84900000000000        7.60000000000000
H           40.66399999999999        5.38100000000000        7.26000000000000
C           40.99600000000000        2.15600000000000        9.71400000000000
H           40.67800000000000        1.19300000000000       10.16700000000000
H           41.69000000000000        2.67100000000000       10.41200000000000
H           41.51000000000000        1.94900000000000        8.75100000000000
C           36.45199999999999        7.38500000000000        5.55900000000000
H           36.38400000000000        6.65300000000000        4.72600000000000
H           37.52300000000000        7.59700000000000        5.76600000000000
H           35.93100000000000        8.32000000000000        5.26100000000000
C           33.55200000000000        7.84500000000000        6.63900000000000
H           32.71500000000000        7.38300000000000        6.09500000000000
C           33.60900000000000        9.28800000000000        6.68100000000000
H           34.42600000000000        9.79900000000000        7.21200000000000
H           32.83700000000000        9.89200000000000        6.18300000000000
C           30.59200000000000        6.53900000000000       11.02300000000000
H           30.43500000000000        6.64700000000000        9.92800000000000
H           30.77600000000000        7.54300000000000       11.46100000000000
H           29.68200000000000        6.08800000000000       11.47400000000000
C           31.16900000000000        4.55500000000000       13.46200000000000
H           31.28400000000000        3.58500000000000       13.96400000000000
C           30.16600000000000        5.42900000000000       14.05000000000000
H           29.97200000000000        6.42400000000000       13.62200000000000
H           29.59000000000000        5.10500000000000       14.92900000000000
C           35.07500000000000        1.13300000000000       15.07500000000000
H           33.98000000000000        1.02900000000000       14.92200000000000
H           35.25500000000000        1.81200000000000       15.93600000000000
H           35.50600000000000        0.13100000000000       15.28500000000000
C           38.05099999999999        0.75600000000000       14.22200000000000
H           37.89600000000000       -0.34000000000000       14.12300000000000
H           37.96500000000000        1.03700000000000       15.29300000000000
H           39.06300000000000        1.01200000000000       13.84300000000000
O           36.40000000000000        5.78000000000000       11.60000000000000
H           35.60800000000000        6.22300000000000       11.90500000000000
H           37.23499999999999        5.98000000000000       11.83000000000000
C           32.83600000000000       -0.04100000000000        7.52100000000000
H           33.08400000000000       -1.04400000000000        7.92900000000000
H           32.82700000000000       -0.09500000000000        6.41100000000000
H           31.83400000000000        0.26200000000000        7.89400000000000
N           35.20100000000000        0.82000000000000        7.66100000000000
H           35.58000000000000        0.10700000000000        7.07200000000000
C           33.86400000000000        0.94900000000000        7.97100000000000
C           35.88500000000000        1.77800000000000        8.26100000000000
H           36.96400000000000        1.90700000000000        8.18600000000000
N           35.03999999999999        2.52600000000000        8.94700000000000
C           33.76800000000000        2.03200000000000        8.77800000000000
H           32.91300000000000        2.50000000000000        9.25000000000000
78
 energy: -116.025870770472 gnorm: 0.112920837504 xtb: 6.7.1 (edcfbbe)
Fe          35.70704847905932        4.15582068912128       10.22051394927540
N           37.59504573015392        3.86326602109601        9.65756990597796
N           35.45575864699379        5.48017656130336        8.73220454769221
N           33.86377863953559        4.59011993425259       10.94551674067348
N           36.00232439054568        2.90762582768476       11.81989537928198
C           38.52766087077788        3.02392326793370       10.23740780627227
C           39.75730219187362        3.02922833265447        9.46466553575348
C           39.57824359552487        3.90695089231108        8.43740768081636
C           38.22707899501614        4.41797043224206        8.55544874254193
C           36.36533914144806        5.82576193618933        7.74929894908469
C           35.79182855831213        6.78892313260043        6.82716029444245
C           34.51697088222070        7.03276948087054        7.26686757250469
C           34.31734706925217        6.21202631335920        8.45496527448963
C           32.96708353652318        5.49567633458735       10.41337864267368
C           31.80799302990491        5.63712599227666       11.27084126265742
C           31.99393467661029        4.79926566924979       12.34772099886194
C           33.27781789176314        4.12732286199758       12.10994974004588
C           35.10983317368868        2.62297016667375       12.83086305559438
C           35.71147143510846        1.72562377279613       13.80669235229201
C           36.99455047095407        1.51253222371754       13.40342921262292
C           37.16201407297440        2.23605274445622       12.14721383696461
C           38.33761500578434        2.27393461718894       11.40241935991419
H           39.17527611049823        1.68153681524975       11.75949862997648
C           37.66402680334580        5.32685273561190        7.66526668380519
H           38.28470238863801        5.67488730193828        6.84485031383225
C           33.16153005379783        6.22297799375889        9.23665978684648
H           32.34702365821141        6.86529589411332        8.91309293853908
C           33.83790810912752        3.18198424906607       12.96574565128017
H           33.24620807919809        2.86557823325768       13.81906163498851
C           40.57292547857570        4.27207699765279        7.36020013564829
H           40.25721791260554        3.86654672300130        6.39017699815543
H           41.56064261707219        3.86207587394339        7.59724859538819
H           40.66165069033642        5.36028147707776        7.26381077159548
C           40.97635177980197        2.16599152704848        9.71806069087659
H           40.68249318866370        1.20880899644138       10.16130411037611
H           41.67654391900832        2.66311355149973       10.40084047397161
H           41.49645151725070        1.95770252935705        8.77569129142805
C           36.44495931863651        7.37038740712449        5.58617051900305
H           36.38528548101580        6.66179904932475        4.74884073318857
H           37.50241944998959        7.59313260935609        5.76705824107260
H           35.93840877530121        8.29383084441645        5.27971259760726
C           33.54421892327714        7.89202554233817        6.64960796747726
H           32.71836570308947        7.41977318688539        6.11214669421277
C           33.60573516216451        9.24749695170178        6.67615376448805
H           34.40493686149393        9.76387179976911        7.19932616189466
H           32.85380825538314        9.86000311613069        6.18990530475513
C           30.61207968177063        6.52736195810760       11.01550492891694
H           30.43948157864284        6.64689021022166        9.94089887426258
H           30.77420761311514        7.52177811377337       11.45103725427324
H           29.71039352241769        6.09261395764360       11.46393165850438
C           31.14617017312382        4.57151756116502       13.47648261441410
H           31.27324500839604        3.61020978187827       13.97442627887889
C           30.19893043842582        5.39995877738926       14.02055556419630
H           29.99995663226230        6.39120679602509       13.62862711247729
H           29.62400462865694        5.09644806548990       14.89099276567731
C           35.07495353114991        1.14807252375180       15.05235953319766
H           33.99392578243636        1.03228036303335       14.92350284958721
H           35.25074333147224        1.80121680765775       15.91722993063591
H           35.49956522020717        0.16132351668848       15.27460302056158
C           38.04092723980543        0.76369136228359       14.19879803783891
H           37.89829095767814       -0.32216348507784       14.11883856343981
H           37.96535223441359        1.03308931275074       15.26001545693192
H           39.04858818127660        1.00680936125503       13.84906714697112
O           36.38145602549339        5.78179025786671       11.58408504027566
H           35.61243164859987        6.23830091278863       11.92053557327650
H           37.25771710782818        5.99657943263040       11.84584671994048
C           32.83954739543530       -0.03992075868651        7.51895729289164
H           33.07447043476124       -1.03412109797758        7.91828721957464
H           32.81904989457257       -0.09930156345769        6.42448583601481
H           31.85240713043568        0.25763348827164        7.88336384845477
N           35.19183982994716        0.80962155782242        7.65797988814003
H           35.57560503920136        0.09433202229668        7.06541072125744
C           33.86305452356574        0.94202664941783        7.97356026472717
C           35.87325122563193        1.78765896300824        8.26848038361966
H           36.94078149056434        1.91402298976516        8.19292341206306
N           35.04818061681020        2.54610481777325        8.95899360716407
C           33.78757033611043        2.03620372978734        8.78336323925785
H           32.93569082528370        2.49866500402939        9.24799383173626
78
 energy: -116.039635988978 gnorm: 0.043815319589 xtb: 6.7.1 (edcfbbe)
Fe          35.70847594506255        4.15515991916382       10.23282643403168
N           37.60928256422793        3.86007383782211        9.65205126169373
N           35.45485754210565        5.48350615972785        8.72283248839872
N           33.84698369100291        4.59393656036424       10.95056624254308
N           36.00342412369832        2.90111083835891       11.83246123729204
C           38.51998803572484        3.02053889988702       10.22861047389940
C           39.75128761399962        3.01887961459346        9.46342443252482
C           39.57308113079398        3.90074998205143        8.43772505652162
C           38.22463848564134        4.41128631625547        8.56297999887388
C           36.35978613693693        5.81430287701688        7.75718575626466
C           35.79268905472095        6.77764961063251        6.83729072503788
C           34.52171046856823        7.02009012340667        7.27540111010867
C           34.32680098327135        6.20099082886949        8.46054855433965
C           32.97060398856243        5.49695375709746       10.41414330471718
C           31.81117710679359        5.63791836836593       11.26198390986366
C           31.99764962851393        4.79653404519627       12.33640628954697
C           33.27862947096046        4.13009287389077       12.09969985407250
C           35.10848314965192        2.62182806657053       12.82089068856472
C           35.70787216593200        1.73357947452026       13.79805688031017
C           36.99602892180096        1.52866807509216       13.39834618392566
C           37.15863953423367        2.24951556381969       12.14925464027217
C           38.32039164992337        2.28503233401370       11.39130696123659
H           39.15647013053670        1.69722529541936       11.74804265566200
C           37.65195713579926        5.31558442607168        7.68080188455251
H           38.27007263061220        5.66454973508992        6.86370760967929
C           33.17766653193981        6.21285492060834        9.23814855151381
H           32.37368763554456        6.86186937727045        8.91313763542476
C           33.84528790882705        3.18487670510584       12.94437018552593
H           33.26326456044590        2.88039715647332       13.80455174582087
C           40.55434527809552        4.26931473600035        7.37068857125320
H           40.24539582709833        3.87275283163199        6.40261536806007
H           41.53833460243246        3.86839961142278        7.60241964958759
H           40.64576223542210        5.34984242668393        7.27596547514980
C           40.95706444537132        2.17279985838610        9.72387174271647
H           40.67505630119012        1.21989652180151       10.16457302573180
H           41.65482995489824        2.66745475518455       10.40013435092754
H           41.48219173251130        1.96868713058053        8.79216688527564
C           36.44093610223975        7.35446121676036        5.61655746375434
H           36.38565243625547        6.65286688859726        4.78151734452497
H           37.49018139516615        7.58545707405657        5.78834526999106
H           35.93307041456202        8.26832317890184        5.31170849914883
C           33.53729798331452        7.91277945193156        6.66286014424240
H           32.71683945821708        7.42562088386740        6.14057242894656
C           33.60181136475458        9.21869375761576        6.68463462989451
H           34.39665185435066        9.74221532176150        7.19183020140515
H           32.86901386895949        9.84013762683372        6.19521546515521
C           30.63264442153649        6.51663319450467       11.00586015097796
H           30.45600140708373        6.64286213240793        9.94090511963695
H           30.78248607507640        7.50602122849193       11.44194570569304
H           29.73817299023260        6.08528510260325       11.45243804518522
C           31.13993604559158        4.57371123362152       13.48016938716141
H           31.28004872112232        3.61507970305604       13.96992967865419
C           30.23811421585222        5.38213006156048       13.99885103583215
H           30.03063919936609        6.37020848402572       13.62679193446301
H           29.65085277731340        5.08694959857039       14.85508928531253
C           35.07351406043793        1.16496798162654       15.02885993858423
H           34.00011835826750        1.04576427600752       14.90851952611817
H           35.24890990460990        1.80762760047545       15.89356186700779
H           35.49911683330210        0.18745439955683       15.25389149234340
C           38.03227483315344        0.77455895214766       14.17350268607006
H           37.88819097876552       -0.30415492091748       14.09517907340216
H           37.96169504311094        1.03572401103586       15.23027758597847
H           39.03690786648885        1.00937987080786       13.83518607670761
O           36.37354934286671        5.80658503044760       11.54433204097850
H           35.63492232488606        6.26136624765238       11.95879853973534
H           37.25454542444349        6.00113224899865       11.86730150621673
C           32.84023219964764       -0.03440965615155        7.52038581160951
H           33.06639328542593       -1.02655935183247        7.91060574395090
H           32.81639240990079       -0.09432416278805        6.43367719323471
H           31.86049858940903        0.26148168214469        7.87767606253640
N           35.18723645430006        0.80275383606878        7.66009774455378
H           35.57406425986719        0.08770929826250        7.06513994588492
C           33.86331254031039        0.93900483215173        7.98198224872927
C           35.86599215375551        1.79395474799074        8.27528873698162
H           36.92534695300741        1.92085477276023        8.19624928796321
N           35.05629525424879        2.55479827014593        8.97119888485462
C           33.80414109581204        2.03874931694983        8.79324542948775
H           32.95313080013605        2.49624096284355        9.25363296617061
78
 energy: -116.043430645849 gnorm: 0.035227953032 xtb: 6.7.1 (edcfbbe)
Fe          35.71148018602003        4.15962022878932       10.24011296454408
N           37.60806169304183        3.85574376794602        9.65024255467135
N           35.45327847233013        5.47474322008039        8.72532077477306
N           33.84694730053066        4.59121404299684       10.94426788129996
N           36.00450606099106        2.90968318324264       11.82849883005158
C           38.51327325549464        3.01647197290395       10.22329028684684
C           39.74320959985394        3.01127251600217        9.46059488126663
C           39.56520295417467        3.89310424443897        8.43668304121691
C           38.21922402512994        4.40374676225035        8.56496383673868
C           36.35518282654879        5.80102037680849        7.76376166326849
C           35.78861151803861        6.76537103705238        6.84756683346966
C           34.51907225175013        7.00458740462324        7.28338493001151
C           34.32868188955865        6.18793309379573        8.46525276805444
C           32.97448020708411        5.49260326488346       10.41068290077679
C           31.81592732748938        5.63105976867631       11.25535184962657
C           32.00456180358648        4.78504616292171       12.32289306937006
C           33.28180934323421        4.12598945591932       12.08732829377613
C           35.10922267258647        2.62649055751161       12.80981386377194
C           35.70723766040970        1.74386371435011       13.78768954467069
C           36.99511130970741        1.54141597577967       13.38957171640724
C           37.15658050431840        2.26189459212969       12.14517601905371
C           38.31432116717043        2.28981927634568       11.38619204463969
H           39.14848509074745        1.70242713935287       11.74242767969028
C           37.64541806548090        5.30584840065315        7.68569746858792
H           38.26137398933149        5.65585394730885        6.86983563104702
C           33.18205908811849        6.20601902233423        9.23805502410143
H           32.38801168471265        6.86480202056907        8.91316861549251
C           33.84799436107696        3.18477231317219       12.93150832777790
H           33.27207419475898        2.88925966178153       13.79711250371954
C           40.53986886515462        4.26968223027224        7.37301371793518
H           40.22916838801633        3.87900360716517        6.40365376300136
H           41.52469242504799        3.87198281012109        7.60272894379008
H           40.62507339009365        5.35087712729528        7.28714339391607
C           40.94683568591358        2.17429770275762        9.73362122161325
H           40.66683581590176        1.22198309798263       10.17590741842974
H           41.63493395758576        2.67678072658068       10.41332238265823
H           41.47970532587269        1.97238528250491        8.80674938786357
C           36.44105390659436        7.34121615684900        5.63757360401495
H           36.39441980138287        6.63623680538884        4.80593809818196
H           37.48650113747134        7.57844190048254        5.81875016370772
H           35.92571005854024        8.25010522513223        5.33507977198275
C           33.52779223274494        7.89837785968271        6.67591726026449
H           32.69853216265471        7.40736911152927        6.17413587100833
C           33.60795103855952        9.21772710595217        6.68122340748822
H           34.40448686943613        9.73775776691839        7.18732580005786
H           32.86975561852163        9.84096481233248        6.20396122426742
C           30.64373810554425        6.50885884585023       10.99287716234040
H           30.47455680546548        6.63745203623541        9.92719605430630
H           30.79223113169585        7.49690461321711       11.43116086291099
H           29.74996711541978        6.07476964285000       11.43541034851188
C           31.15049862738175        4.55293040040345       13.46856569881302
H           31.29487458513048        3.59435109798436       13.95507847185443
C           30.24611626920330        5.37651561540598       13.98646974455335
H           30.06318907650246        6.37274404265006       13.62540281929891
H           29.66183643194399        5.08821860089718       14.84544377754164
C           35.06830643273710        1.18128693494772       15.01233587370333
H           33.99583952666627        1.06308000500192       14.88773787053965
H           35.24225328727809        1.82624900812736       15.87478209165529
H           35.49575654668693        0.20601302592317       15.23782242053018
C           38.02998366874348        0.77919405631338       14.14901030397967
H           37.87755370057576       -0.29678767694104       14.05972737464654
H           37.96453096892073        1.03343402551955       15.20678420591338
H           39.03341640277026        1.01227479011220       13.80749002732640
O           36.37920698539845        5.88318487174022       11.47605497535061
H           35.65618680266203        6.26484975900993       12.02461649378842
H           37.25104412854742        5.99006760908905       11.91063395767372
C           32.83904313757373       -0.02302333080715        7.52547562547328
H           33.05657330501365       -1.02038464233054        7.90735607787705
H           32.81663092108963       -0.07688610214578        6.43843922982467
H           31.85950772587598        0.27558482818568        7.87972311095725
N           35.18813370642530        0.80350902144841        7.66933904934700
H           35.57296507818212        0.08963443159662        7.07125038339829
C           33.86568724253207        0.94216537055261        7.99678358311835
C           35.86848785629403        1.79592501421740        8.28454337305384
H           36.92590049401947        1.92549493793365        8.19882959647749
N           35.06466686997699        2.55567622686078        8.98632640035047
C           33.81365121695635        2.03952535970362        8.81256385733990
H           32.96394866401731        2.49532112688017        9.27527794864051
78
 energy: -116.045310400857 gnorm: 0.025783223229 xtb: 6.7.1 (edcfbbe)
Fe          35.71491849208117        4.16621234300470       10.24635737203658
N           37.60411070525662        3.85454601196526        9.65189472112266
N           35.44885994557587        5.45744202695938        8.72834799369079
N           33.85214007574953        4.58804230359094       10.93651730045922
N           36.00871407636441        2.93118086092944       11.82375325107185
C           38.50813147521567        3.01410432974891       10.22002311758836
C           39.73544720848095        3.00424260552515        9.45696976418540
C           39.55695704591827        3.88514677948997        8.43462330086303
C           38.21306552696173        4.39681004944283        8.56589889237748
C           36.35006840062662        5.78741773840844        7.77106727430249
C           35.78443158084630        6.75552597103266        6.85933494835317
C           34.51565976513697        6.99197448007109        7.29322682321808
C           34.32778493492398        6.17249166847348        8.46928855054038
C           32.97799981006154        5.48698860871285       10.40708046557391
C           31.81960180315228        5.62270467732768       11.24951446612153
C           32.00999165980291        4.77231200601203       12.31035547650375
C           33.28427925988559        4.12053090837748       12.07516978275241
C           35.11247990770637        2.63764262067489       12.80079494204592
C           35.70714029404978        1.75448825768101       13.77596861412944
C           36.99370432617191        1.55294052099150       13.37881530652129
C           37.15573522541587        2.27638223580907       12.13993442748761
C           38.31231243331439        2.29299729671384       11.38290855675871
H           39.14312829293939        1.70180578451198       11.73735908072937
C           37.63975839015305        5.29682314342951        7.68747772663124
H           38.25324039699693        5.64786629730785        6.87158831640129
C           33.18243702672896        6.20012447869626        9.23779172107289
H           32.39857407622440        6.86967308590228        8.91293167686062
C           33.84975668066350        3.18588317510977       12.92302263687116
H           33.27713775648166        2.89279817769686       13.78990466899967
C           40.52587033345850        4.27154085914647        7.37158076782668
H           40.21054785599623        3.88804643569773        6.39987810061417
H           41.51316259349004        3.87531408894248        7.59666783321409
H           40.60256005415804        5.35544363478634        7.29751581402554
C           40.93930764780646        2.17391172142221        9.74522707184286
H           40.65840524853109        1.22146425085796       10.18946091474288
H           41.61353303916991        2.68633993132420       10.43340590186762
H           41.48456731544444        1.97297711502705        8.82435770787534
C           36.44483060896960        7.33122558975595        5.65723573037226
H           36.41385233637882        6.61959632743852        4.82964558472741
H           37.48631636893670        7.57666736608315        5.85500923957424
H           35.92111639306355        8.23447132300028        5.35115429266835
C           33.51809348342377        7.88199237519244        6.69535603774253
H           32.67363939076090        7.39256681983003        6.21928352728961
C           33.60929138424650        9.21153114058597        6.69130505245410
H           34.42766589105835        9.72402484148040        7.17126071379303
H           32.86935589309640        9.83399845033879        6.21507617633811
C           30.65088636261898        6.50143692187111       10.97811060129244
H           30.49473825123266        6.63010793034837        9.90906141193598
H           30.80009534739258        7.48954738452100       11.41765349982746
H           29.75404545046541        6.06541540721832       11.41397315030870
C           31.16472232287564        4.53047533352260       13.45670484226389
H           31.29905993158784        3.56654058310411       13.93303295585402
C           30.26528772770921        5.37215745856065       13.98214485838248
H           30.09883574544241        6.36770861970554       13.61305780950573
H           29.67292982753048        5.08243490999897       14.83491445721228
C           35.06017827843868        1.19659429046887       14.99605466510887
H           33.98750912512399        1.08177239242976       14.86184432347752
H           35.22996853191137        1.84724036007920       15.85606559675746
H           35.48661470030552        0.22129123723432       15.22465626384272
C           38.02932597739274        0.77839120264326       14.12090726380441
H           37.86659378516408       -0.29536892016910       14.01391276086825
H           37.97307451145134        1.02071839346036       15.18257463052519
H           39.03117519538235        1.01113346089278       13.77102538509068
O           36.38174214023596        5.89308486412563       11.50141302404288
H           35.68284231981487        6.30722495539757       12.00300456947232
H           37.23668835911757        6.01049865871266       11.93408120707710
C           32.83552314419119       -0.00479046914407        7.53299924872813