72
 energy: -105.980177162279 gnorm: 0.000177611276 xtb: 6.7.1 (edcfbbe)
Fe          13.84698753768253       -0.52782510260731        9.60210875107081
N           12.11688194179963       -1.51088398676668        9.65959246673816
N           13.73574811557977       -0.17461482597104       11.55410262245575
N           15.56981212120213        0.51451243655094        9.50749026308129
N           13.92362652288460       -0.79894263968576        7.60767072269742
C           11.42392288917961       -2.02319346945289        8.61036540951464
C           10.21888829248367       -2.68300200210366        9.06523646132528
C           10.20715933852000       -2.56238209164877       10.41865335915181
C           11.39619124505155       -1.81523748587066       10.76944053262729
C           12.79711149596955       -0.65419918874034       12.40932137446553
C           13.04722652919700       -0.19638173093915       13.75246381303602
C           14.14916976823727        0.60982768448809       13.68606329499998
C           14.58098860399466        0.58025443499105       12.30088812821936
C           16.22222581024630        1.09825222491039       10.55159906732913
C           17.47462827651517        1.66020474339326       10.12095655406675
C           17.57643771423532        1.39554246794172        8.77989928360901
C           16.36747035851214        0.68460483906953        8.41957576007217
C           14.92666609072702       -0.42197911046581        6.76680507199734
C           14.61992824224344       -0.80020227834196        5.40698995365042
C           13.40132779664131       -1.40570126513274        5.44310954132915
C           12.98606369520265       -1.40268550321580        6.82621415248368
C           11.80985511997921       -1.96566438009432        7.28441723144676
H           11.15431761103996       -2.41187114273972        6.55303540582011
C           11.71722444808177       -1.44354087458108       12.05833686951407
H           11.05601368229605       -1.76141423310729       12.84948268431581
C           15.75646370474100        1.14820585899824       11.85291539103980
H           16.37844987885753        1.63540659266380       12.58660067539404
C           16.07958592427078        0.24283207732038        7.14106421610733
H           16.80501460061234        0.44367715879019        6.36855607971735
C            9.20532197043237       -3.05635855796047       11.40405553077967
H            8.41832877668857       -3.61821051293901       10.90720878450008
H            8.74824291030989       -2.22093356804075       11.93455470111241
H            9.67920029869215       -3.70582656495209       12.14022391183508
C            9.23552791312870       -3.34904047889652        8.16578502713779
H            9.70884356417823       -4.15996594433417        7.61117823513870
H            8.83250923576552       -2.63676005550212        7.44581627936117
H            8.40834052023273       -3.76249449477549        8.73711556409976
C           12.20056379673810       -0.51438802582594       14.93502404390751
H           12.10284467224150       -1.59312539613601       15.05781265828349
H           11.20084924771214       -0.09617417320115       14.81362107169859
H           12.63577725173026       -0.09784014003954       15.83980793952983
C           14.75820861952926        1.34706202429873       14.77415884509337
H           14.77048555041425        0.83538829964393       15.73033228703807
C           15.24651539670830        2.57948163616328       14.69517474793770
H           15.20781972064694        3.15228275016796       13.78395469156405
H           15.67924901608346        3.07065459099080       15.55078657527631
C           18.40895478036097        2.42961395226042       10.98619984315197
H           19.05104308780672        1.75655692836403       11.55615333146012
H           17.85940483396326        3.04775793284142       11.69426986656818
H           19.03976168717365        3.07283329358298       10.37587738629238
C           18.62826960964413        1.75346098031360        7.85378170506299
H           18.30809028388823        1.97247426078477        6.84157750126656
C           19.92199376400228        1.82124041870337        8.14906682380587
H           20.30081978308663        1.56810999068942        9.12369480908540
H           20.65314558160738        2.10805677750921        7.41172268756778
C           15.50926138249949       -0.53631380266847        4.24142090462873
H           16.48146700660054       -1.00805086910022        4.38605750006059
H           15.66934676582936        0.53485212965977        4.11526183914543
H           15.07218304434794       -0.92682591770113        3.32590873941076
C           12.60019886620648       -1.98413364778532        4.32831494790870
H           13.10631422863020       -1.84552824934025        3.37630374280105
H           11.62283585010806       -1.50484446844160        4.27075753226497
H           12.44369435338066       -3.05241981026098        4.48123488502670
O           12.81198243255087        1.41304595426085        9.17023811057624
H           12.80099238149032        1.39746446952826        8.20623657659025
H           13.49277439717032        2.04167881499395        9.43616368789519
C           14.28030267455276       -3.86873770591297        9.14851121790670
H           13.46354230439339       -4.15724921752162        9.80180709644229
H           14.98019883345492       -4.69118859259149        9.03723807914557
H           13.88795620111343       -3.55048357527435        8.18884420484674
S           15.12740784148537       -2.46771578347766        9.95957622856438
H           16.00404220744402       -2.26900485973476        8.96921472092586
