72
 energy: -105.922852022802 gnorm: 0.188731881552 xtb: 6.7.1 (edcfbbe)
Fe          13.87700000000000       -0.51200000000000        9.50100000000000
N           12.11600000000000       -1.46700000000000        9.58400000000000
N           13.77000000000000       -0.19100000000000       11.56900000000000
N           15.66200000000000        0.55100000000000        9.41800000000000
N           13.97300000000000       -0.75400000000000        7.57900000000000
C           11.41500000000000       -1.96700000000000        8.51200000000000
C           10.31000000000000       -2.71600000000000        8.97900000000000
C           10.31600000000000       -2.63200000000000       10.33500000000000
C           11.42700000000000       -1.81400000000000       10.72200000000000
C           12.82600000000000       -0.64000000000000       12.39500000000000
C           13.06800000000000       -0.16300000000000       13.71500000000000
C           14.20500000000000        0.59700000000000       13.66200000000000
C           14.62200000000000        0.62100000000000       12.24000000000000
C           16.29000000000000        1.17000000000000       10.47800000000000
C           17.57500000000000        1.62600000000000       10.08500000000000
C           17.67000000000000        1.34500000000000        8.72800000000000
C           16.45300000000000        0.68300000000000        8.31300000000000
C           14.90800000000000       -0.30100000000000        6.70200000000000
C           14.55300000000000       -0.57400000000000        5.30600000000000
C           13.33100000000000       -1.14500000000000        5.35400000000000
C           12.97400000000000       -1.18600000000000        6.78900000000000
C           11.77000000000000       -1.77900000000000        7.18500000000000
H           11.07700000000000       -2.11000000000000        6.41200000000000
C           11.75000000000000       -1.47400000000000       12.02400000000000
H           11.12800000000000       -1.88000000000000       12.82100000000000
C           15.78000000000000        1.25200000000000       11.78400000000000
H           16.33400000000000        1.85800000000000       12.50000000000000
C           16.12300000000000        0.27300000000000        7.04800000000000
H           16.86500000000000        0.40700000000000        6.26100000000000
C            9.33700000000000       -3.31400000000000       11.26000000000000
H            8.85100000000000       -4.15900000000000       10.72800000000000
H            8.55500000000000       -2.59100000000000       11.57800000000000
H            9.87300000000000       -3.70900000000000       12.14900000000000
C            9.32900000000000       -3.47600000000000        8.11500000000000
H            9.69300000000000       -4.51500000000000        7.96600000000000
H            9.23900000000000       -2.98100000000000        7.12500000000000
H            8.33700000000000       -3.51000000000000        8.61400000000000
C           12.28500000000000       -0.47900000000000       14.96600000000000
H           12.81800000000000       -1.26000000000000       15.55000000000000
H           11.27800000000000       -0.85900000000000       14.69200000000000
H           12.18900000000000        0.43500000000000       15.59000000000000
C           14.75100000000000        1.35900000000000       14.82200000000000
H           14.67100000000000        0.93100000000000       15.83200000000000
C           15.34100000000000        2.54900000000000       14.70900000000000
H           15.45000000000000        3.02700000000000       13.72400000000000
H           15.72600000000000        3.06800000000000       15.59900000000000
C           18.61100000000000        2.29900000000000       10.96800000000000
H           19.37600000000000        1.55400000000000       11.27600000000000
H           18.12000000000000        2.70900000000000       11.87700000000000
H           19.11000000000000        3.11600000000000       10.40500000000000
C           18.81600000000000        1.56300000000000        7.82100000000000
H           18.63300000000000        1.54900000000000        6.73700000000000
C           20.06400000000000        1.77700000000000        8.20200000000000
H           20.32500000000000        1.80500000000000        9.27000000000000
H           20.85700000000000        1.93000000000000        7.45500000000000
C           15.34200000000000       -0.27200000000000        4.04500000000000
H           16.12400000000000       -1.04800000000000        3.90200000000000
H           15.83200000000000        0.72100000000000        4.13800000000000
H           14.66200000000000       -0.27900000000000        3.16600000000000
C           12.48700000000000       -1.57700000000000        4.16600000000000
H           13.15200000000000       -1.87000000000000        3.32600000000000
H           11.84200000000000       -0.73400000000000        3.83800000000000
H           11.85900000000000       -2.44900000000000        4.44900000000000
O           12.61900000000000        1.12800000000000        9.14800000000000
H           11.72900000000000        0.82000000000000        9.32100000000000
H           12.85100000000000        1.94700000000000        8.89000000000000
C           14.19100000000000       -3.94900000000000        9.97600000000000
H           13.83900000000000       -4.17300000000000       11.00600000000000
H           14.75400000000000       -4.83200000000000        9.60600000000000
H           13.29800000000000       -3.79400000000000        9.33400000000000
S           15.24800000000000       -2.47400000000000        9.94700000000000
H           15.27800000000000       -2.37900000000000        8.62600000000000
72
 energy: -105.955631683333 gnorm: 0.068069233679 xtb: 6.7.1 (edcfbbe)
Fe          13.88644661637569       -0.50966446786684        9.50690022529371
N           12.12987051501461       -1.47354233410684        9.58582056498945
N           13.76348536063605       -0.16467098309370       11.54287697082329
N           15.64281026297633        0.55912753455985        9.42239626418947
N           13.95735841580584       -0.72942092149255        7.55372488405160
C           11.42623133320601       -1.96998806444720        8.52073075528851
C           10.29852877363440       -2.71639366160041        8.98246494585053
C           10.31139183992863       -2.64363392296752       10.34221349069746
C           11.44392563390788       -1.83390114135968       10.71630458813766
C           12.83043316245915       -0.64467546801457       12.38696792148485
C           13.07965113391488       -0.17059482467801       13.72138760052969
C           14.19625842796533        0.62256912558358       13.65846368531591
C           14.62292967703410        0.61318621999807       12.24877480724774
C           16.28366964392869        1.14737629255286       10.47763171653886
C           17.57236251428529        1.63025318188326       10.07319495153492
C           17.68699895097204        1.33993226697634        8.72848084761447
C           16.45767896165242        0.68200771221520        8.33669688849092
C           14.93049228330197       -0.31328291144069        6.69268554260422
C           14.55345287781009       -0.57010879839357        5.30894092345483
C           13.32067968523232       -1.13461668891453        5.35387970099643
C           12.96334036660001       -1.20970595519109        6.76970953639393
C           11.77695401133335       -1.78766634935536        7.19223678611011
H           11.08647729313821       -2.12128162463438        6.42998032736119
C           11.76738550557246       -1.47663967506216       12.01412583057664
H           11.13453741831494       -1.86148042550031       12.80527115469391
C           15.77378608275228        1.22630540626983       11.77560975368698
H           16.34522636942614        1.80784383899423       12.48562179572607
C           16.13433823289319        0.26559288973705        7.05796758044396
H           16.86073923954868        0.42545066242275        6.27097165834893
C            9.34089220848861       -3.31148851326728       11.26470744397980
H            8.85535626406444       -4.14452374056515       10.74863646659019
H            8.56749655841637       -2.60542384048569       11.58772396018976
H            9.85627046728656       -3.70336585023307       12.14558979911591
C            9.33203778619360       -3.47032310724010        8.11971038786165
H            9.68308251934605       -4.49781498974391        7.96437010426539
H            9.23165451316071       -2.99238928959100        7.14186275114715
H            8.34892324422349       -3.51022802558751        8.59607284771421
C           12.28990531769966       -0.48141020149190       14.95661820013662
H           12.80549441949865       -1.24865973742133       15.54608569451243
H           11.29281124210574       -0.85194758887170       14.70435424799969
H           12.18524200346060        0.41353695641362       15.57764450753988
C           14.76233659707454        1.35802899500618       14.79539892175457
H           14.65659062917170        0.91564873521695       15.78671972523588
C           15.34395980226392        2.55016518382140       14.70695130536569
H           15.43077125391082        3.06068464032588       13.75709099089717
H           15.71927288757580        3.06198911418816       15.58499720094577
C           18.58942574399911        2.29511032698658       10.95734722561502
H           19.35099875451565        1.57064036815117       11.27313614644418
H           18.12541493511795        2.70451848848672       11.85882475161610
H           19.09010086256682        3.10677590704204       10.41978259824238
C           18.81155362523251        1.56908885390842        7.82934610777987
H           18.60811097220198        1.54148235256922        6.75929234277335
C           20.06838458314343        1.78463176601778        8.20252563407774
H           20.35193150535912        1.79302513742770        9.24443238266291
H           20.85220580837068        1.92981403787910        7.46939470915540
C           15.34582633817721       -0.27071330422581        4.06881996951390
H           16.11851124337988       -1.03187979485949        3.90903149031698
H           15.83020862748183        0.70712344915606        4.13790534848588
H           14.68488337224424       -0.26986702932904        3.19658740759991
C           12.48864956777457       -1.57579163092967        4.18407727935692
H           13.13542124873077       -1.86573796628009        3.35025101660066
H           11.84452013228558       -0.75540305345909        3.84760809628189
H           11.86314354509790       -2.43454511486205        4.44143742547801
O           12.61874988851472        1.13528530475275        9.15982909403352
H           11.71730756923237        0.84852095831171        9.31370554645869
H           12.84164324806682        2.00439170538495        8.87781020008201
C           14.18001442370857       -3.96292479777294        9.96726998951155
H           13.85304358272340       -4.15221935669978       10.99365205126866
H           14.74930806532640       -4.82557836275251        9.60864294179203
H           13.30221925072909       -3.79698181691647        9.33884298746047
S           15.24008549814278       -2.48685337226462        9.94216176451424
H           15.30879930431430       -2.41076870926988        8.61671923914957
72
 energy: -105.965726460830 gnorm: 0.025600924956 xtb: 6.7.1 (edcfbbe)
Fe          13.88276427338997       -0.48581162942790        9.51872999322618
N           12.14777636103525       -1.49049488880161        9.59146078848902
N           13.76520215567462       -0.15291518076373       11.52025412293963
N           15.63157828397590        0.54955139006714        9.42801387521610
N           13.95258911713452       -0.72371769562413        7.53927734992497
C           11.44283834494453       -1.97916002569897        8.53138458090792
C           10.29546457181410       -2.71927104331411        8.98767533046616
C           10.31488522436483       -2.65812527559041       10.34986916717428
C           11.46239594149147       -1.85633934036852       10.71367782525071
C           12.83636409355197       -0.65124183613782       12.37545644323354
C           13.08935208830855       -0.18055311274812       13.71740360217597
C           14.18906990590541        0.63634196454897       13.64581267285283
C           14.61491703870441        0.61571333996226       12.24909967535354
C           16.27383724160358        1.12700843942490       10.47814265471624
C           17.56688048719845        1.62326105240263       10.07132261622457
C           17.69472525216890        1.32652309744174        8.73463652902709
C           16.45440848253934        0.67659581588027        8.35430140215610
C           14.94082776047249       -0.31927652598097        6.68858013185459
C           14.55787769360814       -0.57387366828481        5.31483249623559
C           13.31925165622650       -1.13464480242695        5.35663053881693
C           12.95988189484892       -1.22544254497139        6.75614972266468
C           11.78625647665666       -1.79688708652110        7.20219637794843
H           11.09751280531194       -2.14639109695401        6.45023330140972
C           11.78336414502762       -1.47990046568014       12.00648189150127
H           11.13963458012874       -1.84465512562695       12.79402635035049
C           15.76678276584847        1.20928234624826       11.76921573060809
H           16.36576662826474        1.75153559340340       12.48496094253051
C           16.13399779512566        0.26765019133939        7.06742930302330
H           16.85340037058836        0.44491403187767        6.28272456251227
C            9.34769656730628       -3.30932515678890       11.27646949503905
H            8.85661252064664       -4.13577802161955       10.77084396035825
H            8.58196440916465       -2.60614141211643       11.60140774393103
H            9.85202313953237       -3.69724270047396       12.15611529250285
C            9.33373730767750       -3.46173095023377        8.12310590473500
H            9.67973759049688       -4.48371027001307        7.96360829428282
H            9.22929656253325       -2.98920329805748        7.15163595529996
H            8.35420182422052       -3.50571343330185        8.58928049098725
C           12.29417449882584       -0.48620673491372       14.94273966380699
H           12.79920128454723       -1.24708085520408       15.53826422633433
H           11.30189267402468       -0.85067025855696       14.69798116752373
H           12.18706048583126        0.40264267774070       15.55978583771858
C           14.75813173001635        1.36244263218114       14.76279476887355
H           14.65331480659411        0.89001440654940       15.73426100547398
C           15.33033993899159        2.56114818156895       14.70027490599433
H           15.42209824498184        3.09583181073945       13.77327373684198
H           15.72127763101726        3.04996007011429       15.57523358024533
C           18.56426470870059        2.29257293581304       10.95431373549291
H           19.32446904703422        1.57818958233326       11.27406894369549
H           18.10380368315083        2.70302738677891       11.84726094052363
H           19.06252606473981        3.09988522169663       10.42171831468697
C           18.80405332064846        1.56319883568035        7.84072520107254
H           18.57689008379783        1.54176716474473        6.78150221182220
C           20.06883221258693        1.77706901469819        8.20088165095593
H           20.37791310671162        1.78251080620266        9.22638492326073
H           20.83995169579941        1.93901050336485        7.46968403040976
C           15.35305314104366       -0.26804198662297        4.09083143201674
H           16.12485282818428       -1.02030942023254        3.93015622284923
H           15.83284334935186        0.70351918984457        4.15843823173669
H           14.70319931004677       -0.26243867509761        3.21947024393562
C           12.48992944449127       -1.57453787431077        4.19850345829667
H           13.12740029783376       -1.86300424067363        3.36668383788661
H           11.84106266756526       -0.76616588994475        3.86109259660335
H           11.86673390984373       -2.42592719711366        4.45189029515944
O           12.62058538676001        1.18421106694599        9.19183319754108
H           11.69893192254201        0.92292248957959        9.28461699285316
H           12.81810836903195        2.06106815270777        8.85733452298269
C           14.17084782137654       -3.96974892515461        9.95671095162704
H           13.86404603989005       -4.12622642670449       10.98582927915796
H           14.74295281158805       -4.82394616838929        9.61075379021403
H           13.29971487706096       -3.80446651765131        9.33661538474298
S           15.23550631409420       -2.48868108866284        9.91551704317479
H           15.37516293380369       -2.47237054512143        8.58512655856154
72
 energy: -105.969764741714 gnorm: 0.034867367753 xtb: 6.7.1 (edcfbbe)
Fe          13.88515984542431       -0.48272960364504        9.53244282049337
N           12.15623499405083       -1.49669404082086        9.59779933398336
N           13.76425006897566       -0.14859311811812       11.50348468796467
N           15.62006871211229        0.54245435894187        9.43046718929068
N           13.94642142249836       -0.71713696303238        7.53474062512934
C           11.45454090366385       -1.98595654150817        8.53999734627832
C           10.29889057149376       -2.72325059024205        8.99405548925063
C           10.32181995977118       -2.66893162708943       10.35634827537658
C           11.47298240980045       -1.86977549650702       10.71476181983345
C           12.83709699982914       -0.65281850154590       12.36444699924546
C           13.08976164461088       -0.18202606367954       13.70647591274827
C           14.18079741113480        0.64500463988073       13.62929433240660
C           14.60592184012706        0.61858400333621       12.24228989006719
C           16.26630242273010        1.11022658581308       10.48056032448016
C           17.56068794714035        1.60932956399526       10.07578846127281
C           17.69229175254587        1.31263921924075        8.74217000161950
C           16.44674809463406        0.66782434349810        8.36269354394177
C           14.93801221456915       -0.31663664011792        6.68863343083813
C           14.55878076242833       -0.57348016006860        5.31941223236084
C           13.31909683438323       -1.13555056516285        5.35835938419052
C           12.95719511223324       -1.23015722740929        6.75032933178694
C           11.79342724644213       -1.80925149013986        7.21045931419015
H           11.10597187171788       -2.17953971742761        6.46671070317578
C           11.79110227828552       -1.48420669321388       12.00406104514292
H           11.14230397511950       -1.83816179748692       12.79080346084952
C           15.76933525486580        1.19051938018858       11.76967027837003
H           16.38902066347022        1.69907224488934       12.49380229691108
C           16.12839018817740        0.27004952585247        7.07340203842608
H           16.84596293753571        0.46061185388893        6.29090956841761
C            9.35573511686640       -3.30700886780502       11.29184192424790
H            8.85429468560754       -4.13321750917636       10.79613318544019
H            8.59688625352128       -2.59648712109057       11.61744411939986
H            9.85869344466958       -3.69129664284457       12.17385254784461
C            9.33479147501188       -3.45486226224258        8.12597793489505
H            9.67768551217002       -4.47657184150289        7.95896665719318
H            9.22845856132032       -2.97663528328071        7.15769020080315
H            8.35492338558477       -3.50004636760179        8.59122901198631
C           12.29535585202641       -0.49040785966327       14.92885114698600
H           12.79721472203941       -1.25142659268771       15.52689822057887
H           11.30337443470808       -0.85351975373813       14.68352598532409
H           12.18847740214260        0.39884195224684       15.54492304417694
C           14.76238405631104        1.36315204250177       14.73770843556773
H           14.65626589916621        0.87088154551803       15.69793222997449
C           15.33386426245817        2.56321293741268       14.69378189168098
H           15.39092173933291        3.13959660753114       13.78461229261992
H           15.71684475537058        3.04108274984888       15.57745208909361
C           18.54355662757955        2.29142044881008       10.95806704559249
H           19.30640924390068        1.58513267636442       11.28691086200602
H           18.07317595769533        2.70649591514007       11.84299648301987
H           19.03786505544063        3.09736782180306       10.42043051417649
C           18.79356809623618        1.56256247306410        7.84794094343236
H           18.54973817760344        1.54519117303581        6.79366728715868
C           20.06231523603895        1.77897633538517        8.19473895476136
H           20.39869598001653        1.75754973636706        9.21349224636061
H           20.82449707138192        1.94572340860821        7.45527563034897
C           15.36447493633004       -0.26328982021146        4.10676315063427
H           16.14145704694954       -1.01135406395006        3.95359452297917
H           15.84098709838404        0.70901562113586        4.18498538289751
H           14.72455361155605       -0.25520799658726        3.22887215787232
C           12.48842206211509       -1.57693599345340        4.20503380499234
H           13.12167025162521       -1.86324461096617        3.37019927023966
H           11.83285445574974       -0.77213006642226        3.87202860755008
H           11.86787994656710       -2.42844022441152        4.46421352667792
O           12.63617099174258        1.24607630352588        9.26875787033138
H           11.68860805785807        0.99346984586743        9.22102023194864
H           12.80873336683462        2.09553399579215        8.81511564362143
C           14.16704484875080       -3.97050024108609        9.94525726308468
H           13.87216919528429       -4.09624287819197       10.98162648944764
H           14.73706441249898       -4.82961492462573        9.61302550202577
H           13.29412552926935       -3.80986927136871        9.32818950542306
S           15.24436901333097       -2.49269461960344        9.88011195832681
H           15.44484583118208       -2.53969765975718        8.54949408923474
72
 energy: -105.971756543568 gnorm: 0.022794298940 xtb: 6.7.1 (edcfbbe)
Fe          13.88205933141470       -0.47517662606676        9.53743201478302
N           12.15961771358536       -1.49895029188133        9.60160419050511
N           13.76916713903107       -0.15961521654746       11.49571116609391
N           15.61463040042718        0.53413396821800        9.43487585858677
N           13.93870591769644       -0.70910222732269        7.53462589220414
C           11.46124201421657       -1.99295897692233        8.54420869902145
C           10.30506170312202       -2.72987888150491        8.99908942087463
C           10.32917152021153       -2.67724306012424       10.36043311165036
C           11.47832136468398       -1.87792091699501       10.71676327559414
C           12.83852740171213       -0.65708447391698       12.35701501919700
C           13.08562558159842       -0.18212689196736       13.69556748249875
C           14.17253260492533        0.64810435142264       13.61715956991729
C           14.60209353909057        0.61442666269532       12.23547082570242
C           16.26499722963561        1.09651747055109       10.48643210847346
C           17.55768939919164        1.59426953164611       10.08284160346773
C           17.68678705976914        1.30072607142171        8.74905871145100
C           16.43931839117084        0.66021274057426        8.36620783038521
C           14.92966537221024       -0.31057243170826        6.69019742579564
C           14.55788082239148       -0.57175311887161        5.32129098072322
C           13.32024389200835       -1.13892291013730        5.35752697846740
C           12.95551663411822       -1.23153707790372        6.74850400068028
C           11.79854756226949       -1.82390227961760        7.21407652409559
H           11.11411071077372       -2.21412053564129        6.47589392335115
C           11.79390396783143       -1.49103310032596       12.00447785555714
H           11.14395195010346       -1.84059688833340       12.79196701310009
C           15.77694044432385        1.17348228509526       11.77661389183325
H           16.39889822305111        1.66692831295534       12.50781365642556
C           16.12145135401210        0.27299224665804        7.07680699220623
H           16.84100310040598        0.46829110687371        6.29696304349526
C            9.36346767985672       -3.30403809157319       11.30646070481352
H            8.85028215908359       -4.13185806544353       10.82123077900729
H            8.61229025625281       -2.58256247970769       11.63263059820536
H            9.87032473289712       -3.68526266863917       12.19011510340937
C            9.33431459522594       -3.45124236817594        8.12827405173910
H            9.67329307926531       -4.47416234962647        7.95076892126004
H            9.22605470431179       -2.96192329532640        7.16342675908372
H            8.35459196921050       -3.49574794509349        8.59816723623032
C           12.29134870064093       -0.49256214362545       14.91746809240998
H           12.79359677577554       -1.25571915131920       15.51527095006811
H           11.29862997110582       -0.85640972977061       14.66868988502028
H           12.18475294684082        0.39823210549572       15.53410298034051
C           14.75461402964096        1.37076133099003       14.72385534857206
H           14.67227927508906        0.86034601924827       15.67772301602805
C           15.31539670865602        2.57547003922790       14.68650239736840
H           15.38170809746522        3.15482554850411       13.78170323174157
H           15.72258064955594        3.03328973523770       15.57342271298395
C           18.53045641042427        2.29254102771998       10.96393510513668
H           19.29660531023040        1.59488295067875       11.30717554715732
H           18.04537265120175        2.71502860922070       11.83989331111436
H           19.02124865120322        3.09661939903142       10.41742328538615
C           18.78520111256382        1.55689152659837        7.85112419964634
H           18.52919608220896        1.55856269693376        6.79848478808939
C           20.05649370833319        1.76831121062247        8.18744918285708
H           20.40810576750213        1.73961093410414        9.20316583382139
H           20.80817937440288        1.95716167780463        7.43829571401608
C           15.37747515578677       -0.25821388972687        4.11751604675353
H           16.16170040880977       -1.00354657948333        3.97655764202343
H           15.85039687433579        0.71724403699428        4.20894228390926
H           14.74924682091207       -0.25049623719752        3.22954216345888
C           12.48634395478155       -1.58291667628118        4.20579617964766
H           13.11725426844259       -1.86544566811158        3.36632906487136
H           11.82353622362460       -0.77921366621765        3.87932875007839
H           11.87058488634162       -2.43853650767172        4.47178450245444
O           12.64134032907242        1.29192275628495        9.27397682119595
H           11.70319663682504        1.06503209198886        9.22353037876274
H           12.80291946445782        2.12339277943675        8.79368522023120
C           14.16747770304572       -3.96612939807261        9.93618628711438
H           13.87562465684704       -4.06743368808079       10.97777699256199
H           14.73256153754140       -4.83635814283798        9.61907656294572
H           13.29103773298215       -3.81455475945356        9.31808440269300
S           15.25151343788199       -2.49180934471664        9.84438138787919
H           15.48974216438490       -2.58957247229392        8.51911651177375
72
 energy: -105.972740670504 gnorm: 0.018323563823 xtb: 6.7.1 (edcfbbe)
Fe          13.88689664863036       -0.48428937147239        9.53816189010387
N           12.16041719250567       -1.49888377765577        9.60325607831213
N           13.77312074663129       -0.17282398659972       11.49062086158703
N           15.61267354100927        0.52292639466901        9.44180507306064
N           13.93120984053432       -0.70421302646395        7.53474521791598
C           11.46484781938473       -1.99917227659089        8.54569804008083
C           10.31100272496793       -2.73792548529597        9.00269002376784
C           10.33494312237520       -2.68393675100006       10.36293292224779
C           11.47990975848848       -1.88187781379208       10.71809417151769
C           12.83889201174447       -0.66136476602892       12.35207780196988
C           13.07860484495254       -0.17983238033608       13.68675100553906
C           14.16738916065005        0.64568578360340       13.60927317116738
C           14.60111018292824        0.60639772742047       12.22983467831065
C           16.26750847547712        1.08309292650204       10.49353297044907
C           17.55726160281676        1.57961679406153       10.08907179297134
C           17.68001719795062        1.29270697590238        8.75363684158707
C           16.43226936994171        0.65374707409219        8.36890218788261
C           14.91914206649867       -0.30299434349138        6.69178940646432
C           14.55542436306265       -0.56923622932575        5.32142033487881