78
 energy: -116.058061008045 gnorm: 0.000042552288 xtb: 6.7.1 (edcfbbe)
Fe          35.45603029780144        4.40575875936654       10.20071754448059
N           37.27710749394272        4.02553566385572        9.48875342301605
N           35.05934668756770        5.55618320110126        8.62204497692977
N           33.64929106940052        4.84215887355048       10.97888907255832
N           35.86042268932969        3.27607387872750       11.81814579416100
C           38.24710588314606        3.27007278905581       10.06693333882303
C           39.43758010803029        3.24541029071888        9.24403729071241
C           39.15829662354484        4.00039561210344        8.14920268961480
C           37.80245980050117        4.47783219105629        8.32046148625286
C           35.87050848267022        5.77953847936030        7.55520441152382
C           35.23124311229616        6.64309250280317        6.59401367841289
C           34.00134345589396        6.94976242295590        7.11070535440730
C           33.91691965328641        6.24828245687368        8.37888788502592
C           32.69892621720765        5.64779394008449       10.42638454183950
C           31.52554384260294        5.70088141516382       11.25796972085374
C           31.77770732880965        4.88766521760177       12.33249692266362
C           33.11533771256444        4.36651111995107       12.13448803600383
C           35.01541354348101        2.98365497123316       12.84447307642558
C           35.64295934994313        2.07829425211543       13.77981905226765
C           36.88958625480947        1.82924444952748       13.29389737076135
C           37.00448541674300        2.58175689546614       12.06608553655387
C           38.13076403774436        2.58740058696040       11.26385028464787
H           38.97965504674674        2.00776220634048       11.59329110058770
C           37.15314910605862        5.28225147758407        7.40706898536716
H           37.69621150277733        5.56096781727804        6.51700289815505
C           32.82136001087479        6.31205792502603        9.21768572802075
H           31.98568027700539        6.91679922810313        8.90030358927267
C           33.73773036921972        3.48666992385551       13.00088351952529
H           33.18203538571193        3.16192680193693       13.86691250900538
C           40.02100780482625        4.32103765797483        6.97731031338718
H           40.99662557582413        3.85089846457362        7.07404092133304
H           40.16580276138782        5.39814668905469        6.89377779208086
H           39.56039428226209        3.96915876155208        6.05381196036775
C           40.68833846565616        2.51474874887860        9.59573683976578
H           40.49598327023349        1.44583293421680        9.69504818915465
H           41.08836822173872        2.87518117584935       10.54359644528787
H           41.44639225797553        2.65538551061673        8.82928182017530
C           35.80890569885497        7.03899959614475        5.28030493969083
H           36.35634736205763        6.20968628597225        4.83481052294887
H           36.49917478309935        7.87610005768944        5.39602193402951
H           35.01568159988153        7.33967086598694        4.59873422799038
C           32.94941141053754        7.76715173493076        6.54794803668738
H           31.93734178277412        7.45192276581308        6.77559024567405
C           33.13103959951147        8.85063019562583        5.79978391609395
H           34.11066895519921        9.23851576145828        5.58224228114389
H           32.29825614893619        9.40563791568273        5.40047550062037
C           30.32755725140506        6.54561059330853       10.99710250003466
H           29.64541559704231        6.05167345699532       10.30295217209863
H           30.61694375877163        7.50133401722519       10.56253663886105
H           29.79371227077618        6.73302268474573       11.92666942756455
C           30.94152464092299        4.59746139023038       13.47582177297220
H           31.46674227914862        4.42777345781809       14.40886046688726
C           29.61478391372101        4.51825611756739       13.46256032379802
H           29.04261666035637        4.62933865377436       12.55822003932836
H           29.05431730864198        4.31139610240368       14.35922187517836
C           34.99199981660381        1.56275582355793       15.01729536154705
H           34.07157760283286        1.03198344171466       14.77323144134111
H           34.73976175101129        2.38364884209462       15.68932602143259
H           35.65201876012698        0.87942703990305       15.54606336012428
C           37.96900002834715        0.96930894038439       13.85700323986609
H           38.23533859955381        0.17742620066123       13.15624649052918
H           37.65011586124350        0.50849517797322       14.78863606959696
H           38.86451185365239        1.55878745281636       14.05519210621116
O           36.24303076316593        6.18756019175838       11.41146420895258
H           35.41382430219740        6.57603446419402       11.71087828541986
H           36.62119890736560        5.71397497503746       12.16034684726071
C           32.25660974668933        0.85628874477053        7.33122449589496
H           31.78946327075608        0.04177208748760        7.88471695063125
H           32.63779188759319        0.45569166746171        6.39197747148381
H           31.50174256708837        1.60410679960503        7.10974630373333
N           34.44676227627507        0.76656362689977        8.54225289905331
H           34.62087733823500       -0.20899059239220        8.36462955455114
C           33.34993254473461        1.47341324384561        8.12385751223735
C           35.24172683790287        1.61442679358006        9.23312133212122
H           36.17324416061979        1.33487927828145        9.68040372733549
N           34.71519124785281        2.81416371743375        9.27746891259182
C           33.53850258011602        2.74232025926640        8.59140122081252
H           32.91022287474791        3.60165487780226        8.48144526623083
