78
 energy: -115.995970991698 gnorm: 0.220809929812 xtb: 6.7.1 (edcfbbe)
Fe          35.34100000000000        4.28000000000000       10.14200000000000
N           37.24500000000000        4.02100000000000        9.49500000000000
N           35.01900000000000        5.58900000000000        8.61900000000000
N           33.46900000000000        4.67700000000000       10.87600000000000
N           35.71500000000000        3.11000000000000       11.75300000000000
C           38.18700000000000        3.18800000000000       10.06700000000000
C           39.36800000000000        3.15500000000000        9.21600000000000
C           39.13600000000000        3.96700000000000        8.16700000000000
C           37.80700000000000        4.52000000000000        8.32900000000000
C           35.88699999999999        5.88100000000000        7.58600000000000
C           35.23600000000000        6.79900000000000        6.67200000000000
C           34.00500000000000        7.05300000000000        7.15100000000000
C           33.85000000000000        6.28700000000000        8.37700000000000
C           32.57600000000000        5.58800000000000       10.36000000000000
C           31.45000000000000        5.70400000000000       11.27100000000000
C           31.68400000000000        4.88200000000000       12.31000000000000
C           32.95400000000000        4.22600000000000       12.07400000000000
C           34.85499999999999        2.83100000000000       12.78700000000000
C           35.54600000000000        2.06300000000000       13.79400000000000
C           36.79499999999999        1.87900000000000       13.35800000000000
C           36.91900000000000        2.52400000000000       12.06400000000000
C           38.04400000000000        2.53100000000000       11.26900000000000
H           38.90300000000000        1.96200000000000       11.62500000000000
C           37.17099999999999        5.38000000000000        7.45300000000000
H           37.73399999999999        5.69400000000000        6.57400000000000
C           32.72400000000000        6.28900000000000        9.17600000000000
H           31.88000000000000        6.89400000000000        8.84600000000000
C           33.55900000000000        3.28500000000000       12.88400000000000
H           32.94900000000000        2.85900000000000       13.68000000000000
C           40.05100000000000        4.27500000000000        6.97200000000000
H           41.00100000000000        3.70900000000000        7.07700000000000
H           40.28000000000000        5.36200000000000        6.94500000000000
H           39.55100000000000        3.96900000000000        6.02800000000000
C           40.63800000000000        2.31000000000000        9.44300000000000
H           40.40600000000000        1.46900000000000       10.13000000000000
H           41.43100000000000        2.94000000000000        9.90000000000000
H           40.99200000000000        1.89700000000000        8.47400000000000
C           35.90299999999999        7.31200000000000        5.39100000000000
H           36.46400000000000        6.48400000000000        4.90800000000000
H           36.61200000000000        8.13100000000000        5.63900000000000
H           35.12800000000000        7.68100000000000        4.68600000000000
C           32.91400000000000        7.97400000000000        6.60200000000000
H           31.85800000000000        7.69100000000000        6.71800000000000
C           33.17800000000000        9.12400000000000        5.97800000000000
H           34.21700000000000        9.45600000000000        5.83400000000000
H           32.36000000000000        9.75400000000000        5.60000000000000
C           30.24700000000000        6.63700000000000       11.02500000000000
H           29.46500000000000        6.09100000000000       10.45500000000000
H           30.57200000000000        7.52100000000000       10.43500000000000
H           29.82100000000000        6.96500000000000       11.99700000000000
C           30.86199999999999        4.61800000000000       13.58200000000000
H           31.26200000000000        3.89000000000000       14.30200000000000
C           29.69500000000000        5.18200000000000       13.92100000000000
H           29.22000000000000        5.92200000000000       13.26100000000000
H           29.19700000000000        4.91200000000000       14.86400000000000
C           34.93200000000000        1.57900000000000       15.11900000000000
H           34.06400000000000        0.92000000000000       14.90600000000000
H           34.58499999999999        2.45200000000000       15.71300000000000
H           35.68800000000000        1.00400000000000       15.69500000000000
C           37.95399999999999        1.21700000000000       14.12900000000000
H           37.95900000000000        0.12500000000000       13.92500000000000
H           37.82000000000000        1.37900000000000       15.22000000000000
H           38.92200000000000        1.65000000000000       13.79700000000000
O           36.11100000000000        5.90500000000000       11.34600000000000
H           35.34500000000000        6.36200000000000       11.69300000000000
H           36.96200000000000        6.11600000000000       11.49600000000000
C           32.44000000000000        0.11800000000000        7.54700000000000
H           32.62600000000000       -0.87800000000000        8.00200000000000
H           32.47500000000000        0.02100000000000        6.44100000000000
H           31.43800000000000        0.47800000000000        7.86500000000000
N           34.83300000000000        0.88000000000000        7.75600000000000
H           35.20400000000000        0.11500000000000        7.23000000000000
C           33.49400000000000        1.08200000000000        8.00500000000000
C           35.53200000000000        1.85100000000000        8.31900000000000
H           36.61600000000000        1.94300000000000        8.25900000000000
N           34.70200000000000        2.66100000000000        8.94600000000000
C           33.42200000000000        2.19900000000000        8.77400000000000
H           32.57500000000000        2.70900000000000        9.21600000000000
78
 energy: -116.032242128664 gnorm: 0.084678145560 xtb: 6.7.1 (edcfbbe)
Fe          35.34435438515789        4.28274581894076       10.13787588843256
N           37.24508888040526        4.01103668209680        9.48814226414644
N           35.00855772811121        5.58197375778470        8.61339652895597
N           33.48053917975889        4.69668051841252       10.89422436486602
N           35.71590249945027        3.10908173830916       11.74946527587281
C           38.18754448950045        3.19356347642637       10.05647471867411
C           39.37021100328667        3.14969296194376        9.21307972363069
C           39.13132406619984        3.97038589613110        8.15800402011082
C           37.79744674017147        4.51014632050220        8.33364064759872
C           35.87081987507990        5.87887327937037        7.59119184258692
C           35.23767798696531        6.80119042772258        6.66691770310150
C           33.99120923241068        7.05944335833125        7.14947334562407
C           33.85234564414109        6.27831748915083        8.37204209103337
C           32.57552632913776        5.58273341969501       10.37462772340531
C           31.43957739905427        5.70761634360367       11.27138951355485
C           31.66660385365298        4.86886001591314       12.32465481372433
C           32.94436885799857        4.22272829078143       12.06374872384750
C           34.85859190982968        2.82875956413820       12.77739354450272
C           35.54014160345436        2.05610683624918       13.79520740541044
C           36.81112940604707        1.88289914837197       13.36385985568658
C           36.91231117746121        2.52542056356521       12.06525226604965
C           38.04119163643215        2.53289084978718       11.26475415224605
H           38.89589559024425        1.96758311592635       11.62059815453414
C           37.15921874647450        5.37696123407848        7.46075807045676
H           37.72459815878229        5.69311660128520        6.58969609819426
C           32.72917634197911        6.27906210431629        9.18150948654342
H           31.89435483527632        6.88930319213324        8.85597285553950
C           33.55589571502029        3.28231342184225       12.87698058756090
H           32.96487961946559        2.88221407305850       13.69380885481425
C           40.03757424297105        4.27220415571844        6.98768977985848
H           40.97912232848888        3.72237163039151        7.07872847619435
H           40.26889087003141        5.34145080400250        6.94536712172084
H           39.55708295100708        3.98079983315534        6.04735090418332
C           40.61544180319641        2.31983380216175        9.44745427721436
H           40.40764578266158        1.48340016332643       10.12013779185834
H           41.41106234555622        2.92952445177673        9.89039356065115
H           40.98094807374599        1.91161480242399        8.49942534659218
C           35.89435336158789        7.30426785087929        5.40495937648770
H           36.45298755962739        6.49817341210725        4.91842549514159
H           36.59569540131713        8.11511926333662        5.63379092783635
H           35.14135643526362        7.67482428940563        4.70364310331908
C           32.94037121641764        7.96048701694808        6.60468239751209
H           31.89967647800929        7.66715941004912        6.73661407663012
C           33.18855302433558        9.10845985742760        5.98164996024807
H           34.20103895660216        9.46405696308249        5.84095372936757
H           32.38363493421217        9.73519453416451        5.61002654612049
C           30.26724688594573        6.62884250585688       11.01818543022467
H           29.48282032434046        6.09999333352697       10.46375367953799
H           30.57301748559775        7.50415813974132       10.44013528868029
H           29.84418710747224        6.97953242804035       11.96068938981412
C           30.86832362284983        4.62155950529869       13.55740987393616
H           31.28593391806907        3.90257235341750       14.26027127765756
C           29.70824261307943        5.17417665757727       13.90872744796665
H           29.20538695326783        5.89725440845543       13.28470769153364
H           29.22015059994195        4.91382022250212       14.84181242932297
C           34.93318297007013        1.58515982062212       15.09706684184647
H           34.07574093206770        0.93197774976036       14.90561389603615
H           34.59090685363157        2.43637369774739       15.69575758557548
H           35.66850416003203        1.02116590912287       15.67783620230097
C           37.94542612972040        1.22082527071753       14.11380920285331
H           37.96047626284253        0.14165711884504       13.92350379111906
H           37.82562831081102        1.37661561270619       15.19025141278828
H           38.90558039845833        1.64216431409003       13.80591879882038
O           36.08729947350184        5.91417686634351       11.34543770840005
H           35.34947709420707        6.39413373037547       11.71716392051376
H           36.98442471596935        6.14129088830523       11.51346219436252
C           32.44398207245383        0.11753792512357        7.54773543718197
H           32.61467052558262       -0.87017280021885        7.98991271246340
H           32.46561564317690        0.01820065818900        6.45717021175450
H           31.45806491290612        0.47215231978328        7.85539488452012
N           34.82195895148109        0.87040191828168        7.74686582348352
H           35.19672184344034        0.10408991602641        7.21500381904499
C           33.49144666645909        1.06987212258639        8.01215259926873
C           35.52073088378489        1.85526037236673        8.32755575771112
H           36.59139660991545        1.94732651162491        8.26773497911799
N           34.70839323392526        2.67191164198181        8.96075476967958
C           33.43833675180971        2.19947689781913        8.77602718057987
H           32.59680643720735        2.70784924315859        9.20774437026297
78
 energy: -116.042283214031 gnorm: 0.021396040307 xtb: 6.7.1 (edcfbbe)
Fe          35.34334930776355        4.28399213483560       10.13665546393691
N           37.23945269378940        4.00329458977626        9.48609664029916
N           34.99954086811802        5.56648037686201        8.60873165209683
N           33.48330554478888        4.69882754160782       10.89985668554498
N           35.71640777856254        3.10778101918042       11.74165482672158
C           38.18057435610356        3.19490103316914       10.04805629849514
C           39.36425700307824        3.14696946272759        9.21228392484234
C           39.11959053323532        3.97140601468877        8.15318480719819
C           37.78281580472283        4.49811668523403        8.33903394310562
C           35.85737796622634        5.86658286326882        7.59612537516453
C           35.24324012408832        6.79693778359816        6.67054217957864
C           33.98780288054296        7.05746437527311        7.15498498648092
C           33.85571225226552        6.26281723000879        8.37044700733531
C           32.58068394236618        5.58009139634849       10.38532825373458
C           31.43828963545762        5.70926549677241       11.26467732595443
C           31.65667100298121        4.85582045480896       12.32398544280801
C           32.94433384847353        4.22403824441417       12.05572464248350
C           34.86308999815679        2.83065917697306       12.76497200420112
C           35.53600797846968        2.05254975084029       13.78676597682352
C           36.81959840313048        1.88685083031518       13.36034523409364
C           36.90625775649220        2.52911733451690       12.06204283252029
C           38.03667314478995        2.53408509514540       11.25989283730388
H           38.88977776243956        1.97410108561502       11.61652493608423
C           37.14728429888461        5.36800732258999        7.46657230601863
H           37.71647226913457        5.69141426560759        6.60535054795525
C           32.73793254244936        6.27254594267837        9.18858775845318
H           31.91065511394131        6.88927147596176        8.86778159251563
C           33.56049972765976        3.29058928591779       12.87655688397153
H           32.98896087436003        2.91533098871459       13.71553992927911
C           40.01877346528298        4.27280167575456        7.00076811754577
H           40.95531091618890        3.72958537156153        7.09171802022484
H           40.24932340421562        5.33535757583900        6.95420039218055
H           39.54897215112972        3.98980379276891        6.05972079024684
C           40.59305158679002        2.33145843103936        9.45211425021348
H           40.39212127657856        1.49893955379835       10.11916206322351
H           41.38662771852887        2.93542707287445        9.89151607515135
H           40.96671441596214        1.92674883769223        8.51314783564510
C           35.88690151292375        7.29605340997451        5.42127310083276
H           36.44392281355660        6.49956414956423        4.93250899232520
H           36.58376970185150        8.10518093072729        5.64015357323368
H           35.13852335692300        7.66772174801074        4.72688155293823
C           32.96990297671209        7.94195987571336        6.62053368302809
H           31.94056090814885        7.63325542407029        6.76291318338710
C           33.20271589297855        9.09127701094438        5.99406545281192
H           34.19803171272996        9.46966538766308        5.84974495991098
H           32.40220552931028        9.70550519151490        5.61542970430326
C           30.28928511266365        6.62475124672399       11.01055442261888
H           29.49999818740856        6.10248538350353       10.46869800561082
H           30.59351785686822        7.48639492884340       10.42476631585810
H           29.87276299314703        6.99465095255651       11.94053545536640
C           30.88112498342071        4.61716676954016       13.52116252168571
H           31.32169912786385        3.90984554037959       14.21386706743667
C           29.72049725685169        5.15800943102170       13.88751959785203
H           29.18432775073697        5.87027730482479       13.29154176265638
H           29.25411410487293        4.90575770454428       14.82531188774511
C           34.93228074924247        1.59158443386745       15.07140292609138
H           34.07729353822379        0.94328622896727       14.88906425148901
H           34.59264451028398        2.43607492540670       15.66929666193490
H           35.65888544030694        1.03304978454512       15.65492374862157
C           37.93786777822290        1.22636069989672       14.09569797157225
H           37.95508570997959        0.15331881431986       13.90737466898024
H           37.82367191704056        1.37512097326139       15.16704243251993
H           38.89667489619421        1.64036453959965       13.79990768244779
O           36.06961137124552        5.94468847028917       11.33319379950199
H           35.37322821039785        6.44636088006703       11.76364621548111
H           36.97976905622780        6.16322983212851       11.53495078635379
C           32.44276072564096        0.12185312968491        7.55090784851995
H           32.60431800316204       -0.86501141087005        7.98220863512611
H           32.46250719911065        0.02551639317255        6.46710520710817
H           31.46443627722620        0.47551985283258        7.85266324461055
N           34.81483737499080        0.86476547232800        7.74392936715988
H           35.19171487779755        0.10103495956900        7.20563316558824
C           33.48918769778530        1.06380542212470        8.02206343199132
C           35.51369603567715        1.85622978782770        8.33665801046256
H           36.57670975335812        1.94695956228172        8.27607646780506
N           34.71413917071114        2.67552676425667        8.97590259901950
C           33.45020517692557        2.19839814602938        8.78477658543330
H           32.60910240413082        2.70500837951397        9.20846321314801
78
 energy: -116.045482241010 gnorm: 0.024668740681 xtb: 6.7.1 (edcfbbe)
Fe          35.34366435328958        4.28797748175678       10.13882185346523
N           37.23042106125179        3.99764716971164        9.48581573921097
N           34.99593210437815        5.54615571663428        8.60514008484614
N           33.48841852045010        4.69604172151130       10.89640131674890
N           35.71890881674545        3.11522579714600       11.73519184112950
C           38.17257845340534        3.19361057806131       10.04525128337141
C           39.35429407810299        3.14584326235426        9.21196074013426
C           39.10716499880452        3.96856937819796        8.15197155805710
C           37.77131320262606        4.48886138620801        8.34039864883240
C           35.85359628815020        5.85067109138140        7.59758161610732
C           35.25021667676989        6.78776861321477        6.67794991133858
C           33.99432367520575        7.04911666922162        7.16265888898614
C           33.85922427571995        6.24738753660054        8.37035469239129
C           32.58699666369787        5.57531735276936       10.38196197530061
C           31.44506845592475        5.70759930026354       11.25214510811094
C           31.65911172700882        4.85039918570975       12.31212136286611
C           32.94903609384288        4.22268069999659       12.04707359802369
C           34.86666771864060        2.83765075308616       12.75550750338407
C           35.53530189888428        2.05630858113123       13.77529411720499
C           36.82005742518863        1.89041225123964       13.35084744907221
C           36.90464447606478        2.53427975159325       12.05622883117175
C           38.03491515186583        2.53474459095637       11.25695294722802
H           38.88820808336093        1.97745869185637       11.61426125039972
C           37.14222180716295        5.35770786572298        7.46624783023539
H           37.71403907596721        5.68742415127507        6.61103996428944
C           32.74435757867500        6.26737298352984        9.18792542673460
H           31.92411466281358        6.89542985273345        8.87359930607309
C           33.56739375602829        3.30077464283378       12.87748639595030
H           33.01216618000056        2.94782599342705       13.73698518173518
C           40.00381447251424        4.27712843641955        7.00457022721025
H           40.94134479288375        3.73633027081223        7.09784143264115
H           40.22966470377841        5.34133056194954        6.96262560907735
H           39.53669596332264        3.99783932683417        6.06064785383573
C           40.58124869044524        2.33799987087401        9.45965123448842
H           40.37864420479801        1.50569393766588       10.12660220835078
H           41.36912301897702        2.94670542630594        9.90341573960339
H           40.96274291963618        1.93480074164167        8.52289559654999
C           35.88634354729083        7.28952216563323        5.43096373288261
H           36.44316240439240        6.49543504899455        4.93768723022884
H           36.58122983429220        8.10143682575087        5.64713323867801
H           35.13096841555860        7.66148151814066        4.74382272425849
C           32.98253888367960        7.92712066694431        6.62969178801279
H           31.95691230774484        7.61228867969299        6.78297973898318
C           33.20890161913483        9.07484511451287        5.99710653042485
H           34.19978846955294        9.47170382149977        5.86484304616812
H           32.40508215809102        9.68359641017690        5.62020620321094
C           30.30642699047433        6.62963859818253       10.99686461494128
H           29.50332042175026        6.10788017379009       10.47328830095268
H           30.61644030954491        7.47579404082799       10.38970576446119
H           29.90600999053062        7.02403544208662       11.92562071326328
C           30.89237004722858        4.61076984162885       13.50379888746106
H           31.34909989239188        3.91042626704211       14.19282454325653
C           29.72537704614434        5.13507515678875       13.87820891571545
H           29.15470950383474        5.82503379682216       13.28420169831335
H           29.27985462227275        4.87859670095207       14.82461297063730
C           34.92566607328180        1.59623767221889       15.05289293892221
H           34.06852206253251        0.95121545290618       14.86712845519507
H           34.58605202772900        2.44287110522799       15.64853379058447
H           35.64899573513345        1.03611422855426       15.63905826895687
C           37.93600343224105        1.22433493284735       14.07845837619809
H           37.95174165983016        0.15218838202132       13.88258296297428
H           37.82336365915117        1.36612369140789       15.15139375811099
H           38.89657300256866        1.63832032626919       13.78604290252646
O           36.05757097718510        6.00982599928784       11.29537389166780
H           35.39521865936094        6.48096774149625       11.82863340264539
H           36.96945365868395        6.17644407054433       11.57562598807610
C           32.43697193546665        0.13116146745453        7.55547630996907
H           32.59070470231027       -0.86095552587398        7.97886746774111
H           32.45898645417324        0.04182462756297        6.47083323796959
H           31.45937563147507        0.48818307766292        7.85621906157766
N           34.81154087293168        0.86333155813248        7.74976834167878
H           35.18679222890999        0.10381813083640        7.20415107839475
C           33.48726254023500        1.06477888367885        8.03419947524452
C           35.51305996331864        1.85274920002578        8.34722144327470
H           36.57562394868832        1.94086014499520        8.28436594796818
N           34.71887416896175        2.67181296639039        8.99219745791671
C           33.45484343936800        2.19657863484486        8.80147565310255
H           32.61263067617018        2.70244133941251        9.22351282329831
78
 energy: -116.046659633500 gnorm: 0.048280248501 xtb: 6.7.1 (edcfbbe)
Fe          35.34624150643868        4.29394851588072       10.13964976553275
N           37.22115359249137        3.99547189294102        9.48769727225590
N           34.99335895240913        5.51763727484679        8.59909673564710
N           33.49869868080176        4.69272093125943       10.88939668853522
N           35.72757267092613        3.13853706694193       11.73261925734454
C           38.16610843422099        3.19405827170863       10.04483242056436
C           39.34456754045272        3.14541729813889        9.21165240621949
C           39.09501160520576        3.96393854204757        8.15102682487400
C           37.76114594106930        4.48005406664630        8.34038544234225
C           35.85231224440270        5.83053244689196        7.59613270218943
C           35.25749029699328        6.77524892139553        6.68523702369983
C           34.00358272499405        7.03723017193310        7.17056551832312
C           33.86366024309012        6.22837134088363        8.36903924022568
C           32.59617536364289        5.57017499035099       10.37445469401969
C           31.45455223688695        5.70253293544112       11.23686963847297
C           31.66526990726393        4.84426980886581       12.29516345286842
C           32.95856933928155        4.22342605575820       12.03863510979856
C           34.87465440429511        2.85457364531257       12.74940116740412
C           35.53728515136262        2.06410722096102       13.76279689418377
C           36.81975385696085        1.89433290680060       13.33904897895688
C           36.90749959595946        2.54518217820646       12.05123945673997
C           38.03699390327297        2.53746028889209       11.25559164127102
H           38.88915271774787        1.97900449593569       11.61177399055751
C           37.13975064960442        5.34512856602421        7.46178301810170
H           37.71345387382197        5.68017393275338        6.61138568357555
C           32.75188103743498        6.26252340028606        9.18441698011392
H           31.93974842751572        6.90347987883824        8.87668680309707
C           33.57957119721971        3.31856906486371       12.88239426379326
H           33.04010052805218        2.98194808362408       13.75586400970309
C           39.98872826997355        4.28288659838588        7.00462415082228
H           40.92952034083539        3.74584454409205        7.09721824301673
H           40.20691658577638        5.35046192500171        6.97116286182326
H           39.52193231181198        4.00733589899631        6.05821360746051
C           40.57324439424812        2.34372200853303        9.46978035125476
H           40.36639644291496        1.51024545640416       10.13598561959012
H           41.35206186167316        2.95927798956506        9.92299312266562
H           40.96595786844131        1.94262457455643        8.53563714484444
C           35.88791091319246        7.28337605651843        5.43875266945554
H           36.44545073967632        6.49207568096472        4.93939662668413
H           36.58043894247425        8.09881947853624        5.65429140896294
H           35.12350639470365        7.65509188454851        4.75920913958757
C           32.99048165223681        7.91635175814774        6.64346080408983
H           31.96768414565983        7.59060656937062        6.79426711420224
C           33.21286741929916        9.06521561927154        6.01174790626078
H           34.20209209884552        9.46430895236069        5.87151454153593
H           32.40459265442729        9.66039832557323        5.62121430792386
C           30.32234434415307        6.63441447280446       10.98626499561411
H           29.49892625574879        6.11407738571816       10.48946186812189
H           30.63575971226222        7.46168043885037       10.35069803941085
H           29.94921792309384        7.05510945305184       11.91834049205238
C           30.90000382118486        4.59898036259030       13.48665213963246
H           31.37771742108480        3.92055658137191       14.18472282882558
C           29.72069234217878        5.09906705906090       13.85661636329332
H           29.12910116584491        5.77193941655430       13.26234178827494
H           29.29885764438582        4.84438578905079       14.81600693160322
C           34.91583902866536        1.60026877029076       15.03347443559064
H           34.05560613317769        0.96055464163429       14.83666009649184
H           34.57521497498027        2.44896499009972       15.62821599699318
H           35.63325989448843        1.03428263418560       15.62296302053681
C           37.93552150928810        1.21584290238954       14.05708575162426
H           37.94822170854668        0.14532261802565       13.84523003645150
H           37.82415186453758        1.34469594732750       15.13315325419724
H           38.89759887770322        1.63259184839075       13.76752311162561
O           36.04590640239797        6.10009555495642       11.24336075005397
H           35.41596613597260        6.50287829614707       11.88814082332345
H           36.94608640133683        6.18853368940411       11.65520635589270
C           32.42611071530471        0.14651809859775        7.56212752074847