78
 energy: -115.983532348154 gnorm: 0.259837578390 xtb: 6.7.1 (edcfbbe)
Fe          35.16699999999999        4.28800000000000       10.27500000000000
N           37.01900000000000        4.00800000000000        9.73800000000000
N           34.89500000000000        5.53700000000000        8.80100000000000
N           33.31200000000000        4.59800000000000       10.85800000000000
N           35.43900000000000        3.08800000000000       11.80400000000000
C           37.96600000000000        3.15000000000000       10.27400000000000
C           39.20699999999999        3.18100000000000        9.53600000000000
C           39.00300000000000        4.00000000000000        8.47500000000000
C           37.65400000000000        4.50800000000000        8.61900000000000
C           35.80500000000000        5.91200000000000        7.83400000000000
C           35.26800000000000        6.89200000000000        6.91900000000000
C           33.97599999999999        7.09200000000000        7.29100000000000
C           33.76600000000000        6.25700000000000        8.45300000000000
C           32.41200000000000        5.51600000000000       10.35800000000000
C           31.20900000000000        5.60100000000000       11.15800000000000
C           31.41900000000000        4.81100000000000       12.24600000000000
C           32.70200000000000        4.16400000000000       12.01500000000000
C           34.54500000000000        2.74800000000000       12.80200000000000
C           35.11899999999999        1.82900000000000       13.75800000000000
C           36.38900000000000        1.61500000000000       13.35500000000000
C           36.56600000000000        2.36000000000000       12.13100000000000
C           37.73000000000000        2.37400000000000       11.39100000000000
H           38.53399999999999        1.71400000000000       11.71700000000000
C           37.07500000000000        5.39200000000000        7.74500000000000
H           37.68000000000000        5.71400000000000        6.89700000000000
C           32.61200000000000        6.25200000000000        9.20500000000000
H           31.78900000000000        6.88000000000000        8.86300000000000
C           33.25500000000000        3.23100000000000       12.86400000000000
H           32.61600000000000        2.84000000000000       13.65500000000000
C           39.94499999999999        4.39400000000000        7.33900000000000
H           40.92500000000000        3.89000000000000        7.47800000000000
H           40.10199999999999        5.49400000000000        7.34600000000000
H           39.51200000000000        4.07800000000000        6.36600000000000
C           40.49700000000000        2.44900000000000        9.90800000000000
H           40.49900000000000        1.44100000000000        9.44100000000000
H           40.55900000000000        2.33500000000000       11.01100000000000
H           41.37400000000000        3.02100000000000        9.53500000000000
C           36.03700000000000        7.54400000000000        5.76800000000000
H           36.67700000000000        6.78300000000000        5.27200000000000
H           36.68400000000000        8.35700000000000        6.16200000000000
H           35.32200000000000        7.95400000000000        5.02400000000000
C           32.92300000000000        7.90600000000000        6.79100000000000
H           31.87600000000000        7.58100000000000        6.88300000000000
C           33.19500000000000        9.16900000000000        6.15500000000000
H           34.22900000000000        9.52700000000000        6.04500000000000
H           32.37200000000000        9.79000000000000        5.77200000000000
C           29.98400000000000        6.42100000000000       10.77900000000000
H           29.79800000000000        6.32700000000000        9.68800000000000
H           30.15800000000000        7.49100000000000       11.02400000000000
H           29.09500000000000        6.04500000000000       11.32900000000000
C           30.68900000000000        4.50800000000000       13.42900000000000
H           31.00000000000000        3.66400000000000       14.06200000000000
C           29.54200000000000        5.26900000000000       13.84300000000000
H           29.19200000000000        6.12200000000000       13.24400000000000
H           29.00100000000000        5.00700000000000       14.76400000000000
C           34.41200000000000        1.26600000000000       14.99200000000000
H           33.50900000000000        0.70100000000000       14.67700000000000
H           34.10199999999999        2.09800000000000       15.65900000000000
H           35.09500000000000        0.57900000000000       15.53500000000000
C           37.51400000000000        0.88100000000000       14.11600000000000
H           37.60999999999999       -0.15500000000000       13.72700000000000
H           37.26800000000000        0.83800000000000       15.19900000000000
H           38.47800000000000        1.41300000000000       13.96600000000000
O           35.65400000000000        5.86000000000000       11.60300000000000
H           34.82099999999999        6.25100000000000       11.86600000000000
H           36.46200000000000        6.11600000000000       11.87100000000000
C           32.37600000000000        0.16900000000000        7.50700000000000
H           32.61400000000000       -0.87000000000000        7.82000000000000
H           32.33800000000000        0.21100000000000        6.39800000000000
H           31.39100000000000        0.45600000000000        7.93200000000000
N           34.73900000000000        0.97800000000000        7.66400000000000
H           35.09500000000000        0.28800000000000        7.03500000000000
C           33.43200000000000        1.09600000000000        8.01100000000000
C           35.45500000000000        1.90800000000000        8.28200000000000
H           36.52999999999999        2.04200000000000        8.16600000000000
N           34.64600000000000        2.61100000000000        9.03500000000000
C           33.36500000000000        2.12100000000000        8.90800000000000
H           32.53600000000000        2.54300000000000        9.46100000000000
78
 energy: -116.033717279910 gnorm: 0.100849832075 xtb: 6.7.1 (edcfbbe)
Fe          35.16312039529837        4.26675609921722       10.26650381331674
N           37.03841077908878        3.99766104152190        9.72627563456882
N           34.89256665070884        5.54502501322352        8.78308716527210
N           33.30483190246660        4.62264970532816       10.88257787553401
N           35.44257762422610        3.06259721153285       11.81364692644318
C           37.97257615831305        3.15519760895865       10.28055511869652
C           39.21087333831420        3.17983176912998        9.53606940476938
C           39.00529351572243        4.00688569247137        8.47559857862943
C           37.65745421806083        4.50928775944549        8.61454831334373
C           35.80685073982244        5.91463210895619        7.82922919196022
C           35.27153061445875        6.89327807818843        6.91670558074390
C           33.97314019660335        7.10122476332085        7.29511399967568
C           33.76274448255808        6.25328180544301        8.45619173930644
C           32.39886613937179        5.50682192412035       10.35051882389468
C           31.20691966208404        5.60253323002467       11.15462849419139
C           31.40821396166104        4.79529887482439       12.24628464905221
C           32.70336992572207        4.16256795977329       12.02311407256088
C           34.54217063921578        2.73106966861676       12.79376570542939
C           35.12130299639961        1.82919919226589       13.76308766017138
C           36.40260328396823        1.62014895796989       13.36449378332826
C           36.57668349384064        2.36362959596322       12.13780825789126
C           37.74152340000088        2.37744098512867       11.39844437201302
H           38.53839894118325        1.71780232376787       11.71970205646510
C           37.08207000943918        5.39808906381051        7.73647522488233
H           37.68538009374687        5.72074330519276        6.89726377553048
C           32.60222132499018        6.24316384908017        9.19843982798950
H           31.79134513192788        6.88012172397909        8.86820113265523
C           33.25649844717258        3.22141358133873       12.86694524709808
H           32.63400737163423        2.84031494532359       13.66505331149145
C           39.93784414570298        4.38905764503320        7.35488122870042
H           40.90798645060460        3.89700619277682        7.47708588061050
H           40.09762137102670        5.47352362021373        7.34368988204868
H           39.51957732880719        4.08708131552408        6.38704583718003
C           40.47972479220076        2.45130268946570        9.90387472551766
H           40.49921338405165        1.45300351885624        9.44963210307365
H           40.55964897689149        2.33827976490571       10.98953663236039
H           41.35225459864365        3.00817281187807        9.54469220672062
C           36.03022656807945        7.52908565011721        5.77914362495845
H           36.66934259706152        6.79317368625734        5.27923675682485
H           36.66948178908300        8.33896795254405        6.15363613171927
H           35.33415743788726        7.94135704411972        5.04154650761257
C           32.93994128504730        7.94460736847548        6.76665494336659
H           31.90664810189800        7.61520983327130        6.87239541133864
C           33.18522890176446        9.13693001063047        6.16120081519107
H           34.19575735001037        9.51344299129934        6.06321089891721
H           32.38205813959868        9.76053653714524        5.78562607887385
C           29.99907839542759        6.41598418487700       10.77742099279622
H           29.80520286048723        6.33231047394945        9.70263378406641
H           30.15078035208183        7.47509583283828       11.02073568554134
H           29.11393493093441        6.05087169170056       11.30615268546028
C           30.64144886389532        4.52800056749743       13.42654958142101
H           30.96255472270811        3.70222810725164       14.05763215589628
C           29.56403823356648        5.24992742956933       13.83641354393899
H           29.21380137667232        6.10403135357541       13.27424026050639
H           29.02666775162367        4.99990237801757       14.74350200252471
C           34.41667678657647        1.27489479799600       14.97635730218583
H           33.52379733521362        0.71193684678874       14.67991923670907
H           34.10630578350866        2.08436722388549       15.64706297704872
H           35.08011641858117        0.59725000399557       15.52300149718888
C           37.50124956333747        0.88318271587954       14.10114405475735
H           37.60918593854581       -0.14226058613777       13.72896813348663
H           37.27246195177228        0.83986235365193       15.17128353867139
H           38.45614012261210        1.40245486571370       13.97019917828604
O           35.64147849625999        5.86837846512510       11.58753887111003
H           34.82612645223954        6.27138963589816       11.88481099079052
H           36.48834379696761        6.14017167449440       11.89132780144029
C           32.37615647902552        0.16519567432621        7.50742108445992
H           32.60184523121517       -0.86372050118908        7.81079044157973
H           32.32944781388930        0.20442660095895        6.41309181395835
H           31.40577348466056        0.44960226819323        7.92078041363544
N           34.73422900729747        0.96842756449268        7.65359821016978
H           35.09510166094729        0.27685731570380        7.02037562896833
C           33.42670918139331        1.08534512177385        8.01672896833335
C           35.44340080727073        1.91427595856038        8.28854220834380
H           36.50614854753264        2.04750316670290        8.17490613470072
N           34.64490771669992        2.62584633698721        9.04636042298700
C           33.37941043932143        2.12360673318441        8.90364299122905
H           32.55522084137569        2.54324727330660        9.44844800588882
78
 energy: -116.044566406855 gnorm: 0.038434318381 xtb: 6.7.1 (edcfbbe)
Fe          35.15945279973738        4.24839575376730       10.25884533859701
N           37.05574080133052        3.98761882532990        9.71530626041119
N           34.88868935237043        5.54303616531112        8.75925953643467
N           33.28927713423078        4.62528523064548       10.89385130097281
N           35.44525257835292        3.03503132201911       11.81729901260120
C           37.97790838210112        3.15821773357122       10.28297487201542
C           39.21607823533961        3.18041496048903        9.53651333252316
C           39.00951660941534        4.01327711623607        8.47824627675297
C           37.66089642905047        4.50948292615283        8.61106898532984
C           35.80691021136458        5.90968748957131        7.82076337389187
C           35.27000237834500        6.89036812157223        6.91362347622881
C           33.97198019421518        7.10109439677677        7.30155831289036
C           33.76207903887553        6.24620239915030        8.45849027401250
C           32.38912356408670        5.49542248770062       10.34642558993645
C           31.20236618594690        5.59323374650320       11.15050958693665
C           31.40203266681950        4.77608898977768       12.24031170870919
C           32.70279429887854        4.15662566893141       12.02760860858080
C           34.54128779165783        2.71397813113817       12.78361558680367
C           35.12496887506035        1.82497678006004       13.76276736427352
C           36.41378193254534        1.62372177413271       13.37154274510257
C           36.58573666427323        2.36468969756078       12.14156163363986
C           37.75470948684000        2.38277802032032       11.40582254609750
H           38.55307899458435        1.73343906050099       11.73140334325030
C           37.08935155683280        5.40257237115631        7.72891379269874
H           37.69646565245569        5.73459701057209        6.90139627605028
C           32.59628837555856        6.23413506540847        9.19484421486348
H           31.79245506055820        6.87580115203062        8.86981953051052
C           33.25887223528733        3.21490330714585       12.87290040814294
H           32.65195924169969        2.84952812772904       13.68630352423534
C           39.93572903153348        4.38557652671097        7.36961338353362
H           40.89863133311361        3.89679031464956        7.48682054823097
H           40.09500373714823        5.46282270353115        7.34820845289194
H           39.52016683352682        4.08974750843300        6.40635551810052
C           40.46773726975703        2.45250936796131        9.89995780940211
H           40.48997399955063        1.45821433714054        9.45332126335940
H           40.55311230709402        2.34210429394256       10.97744097529402
H           41.33786819715459        3.00056896438470        9.54546130054015
C           36.02032474116707        7.51527103500993        5.78651405092492
H           36.65991330496686        6.78954499499855        5.28922859067220
H           36.65533225702595        8.32393652810631        6.15212368798361
H           35.33239830402618        7.92589943531303        5.05240582538029
C           32.95520612692715        7.97202441169310        6.75482467961676
H           31.93241111016935        7.62921504986647        6.86423685749391
C           33.18219790959021        9.12960390402240        6.17287971933143
H           34.17717053769461        9.52347133479922        6.07149859999933
H           32.38775409232073        9.74050967521301        5.78068580859884
C           30.00886759764180        6.40635296034630       10.77605971356114
H           29.82182550036570        6.33595833459922        9.70633054364059
H           30.15226658533177        7.45848541852330       11.02453104078990
H           29.12344483005400        6.04651068588970       11.29013782898422
C           30.60864480825369        4.54202350225465       13.42201799505656
H           30.93248548313226        3.71416143924767       14.03929006364189
C           29.57211515298320        5.24529001956593       13.83377730288715
H           29.21478340729282        6.10757099226196       13.30371913450724
H           29.04036717999193        4.99593731753583       14.73501080455753
C           34.42238542618405        1.28191353364677       14.96226752945774
H           33.53400846005479        0.72343908805297       14.67030792707015
H           34.11092819918943        2.08377801081020       15.63079315275494
H           35.07547038228525        0.61035965050239       15.51316187320816
C           37.49251766982759        0.88518217009093       14.09038660554741
H           37.60106062850423       -0.13262119268370       13.71779678732054
H           37.27005395385217        0.83519705540168       15.15355399752161
H           38.44478485084940        1.39561457145576       13.96922755302494
O           35.64943955682716        5.90711857504764       11.55148094184256
H           34.85688469647975        6.30215449698011       11.93028251222923
H           36.49854860129422        6.15759198562026       11.92094722076057
C           32.37336119979201        0.16220367708613        7.51040313837739
H           32.58978208762283       -0.86359691364918        7.80478464803478
H           32.32395119531682        0.20215895770657        6.42355270020564
H           31.40947861828854        0.44583181483221        7.91560153570155
N           34.73137268204355        0.96405216224181        7.64937072380601
H           35.09744302015949        0.27406538956875        7.01315481539860
C           33.42160696951962        1.07813892752927        8.02484765976901
C           35.43183001380664        1.92309841807722        8.29368642315612
H           36.48668920953519        2.05709283142607        8.18174667833705
N           34.64100030877672        2.64087253430377        9.05358331615877
C           33.38795800210206        2.12668436238132        8.90142057219253
H           32.56265590206045        2.54496500630936        9.43664337665058
78
 energy: -116.047781236913 gnorm: 0.032678288479 xtb: 6.7.1 (edcfbbe)
Fe          35.15934988396062        4.24423885785960       10.25575790574574
N           37.06182118983535        3.98286588613698        9.70927577720608
N           34.88591179864152        5.53338225789520        8.74404713839462
N           33.28245066106422        4.61974007206139       10.89772221553563
N           35.44867036950344        3.02616765834995       11.81565267128227
C           37.98205155882385        3.16263428883807       10.28470120229270
C           39.22014348793564        3.18397879779593        9.53850852068971
C           39.01417523212507        4.01849957113149        8.48230377987645
C           37.66379178816425        4.51064070461125        8.60977911868923
C           35.80623496769196        5.90158909337708        7.81350957921315
C           35.26701175444826        6.88583447654615        6.91155096578335
C           33.97224109631885        7.09804624594529        7.30598077241426
C           33.76113135983966        6.23682991690509        8.45651255345283
C           32.38390546609386        5.48195459202722       10.34219872847676
C           31.19706983512426        5.57953185619238       11.14522186244721
C           31.39372931714678        4.75764741039011       12.23145515930061
C           32.69861776047557        4.14663622413814       12.02778846259591
C           34.54354290298070        2.70758645947657       12.77719240015940
C           35.12998959848445        1.82452086918849       13.75965627232657
C           36.42040920112552        1.62815593846782       13.37315390126619
C           36.59266002174124        2.36892489258788       12.14303571679194
C           37.76573694261074        2.39327434260188       11.41326693530205
H           38.57147003629382        1.75849219318985       11.74896480164526
C           37.09401581226373        5.40463581806946        7.72584724878298
H           37.70802793233226        5.75038101279700        6.90893163613883
C           32.59298615888103        6.22112354626885        9.19037852193034
H           31.79275562457640        6.86833960059102        8.86879502824494
C           33.26176532227867        3.21058130413146       12.87650527743035
H           32.66901107837387        2.85867676600343       13.70675934789204
C           39.94089619066234        4.38578825694516        7.37747767705614
H           40.90137199369963        3.89471163498599        7.49670357122450
H           40.10145159258452        5.46221107101884        7.35228642341279
H           39.52399870624728        4.08947942232715        6.41567999103913
C           40.46467632710218        2.44966463471676        9.89854262135088
H           40.47923654717911        1.45407921662783        9.45553462959872
H           40.55219401094089        2.34200635273089       10.97551481649089
H           41.33709375403478        2.99052818498256        9.54108784517912
C           36.01263424856179        7.50486539674824        5.78376391663284
H           36.65314331345691        6.77806048815626        5.29035520043457
H           36.64604421744848        8.31545659612061        6.14603469729256
H           35.32306733534853        7.91157505915004        5.05033550733458
C           32.96128090768344        7.97448918791161        6.75158524770823
H           31.94167488040296        7.62496132292987        6.85820092266830
C           33.18413754572487        9.13906951302624        6.16095784962649
H           34.17219616230827        9.55729151639044        6.08137108491282
H           32.38447795987930        9.74286291364322        5.76985223401493
C           30.01066311572432        6.39635527247884       10.76867095616182
H           29.83895550369665        6.34219938757275        9.69561877380676
H           30.15231889111225        7.44464301780804       11.03347412658124
H           29.11804503704170        6.03103970726171       11.26476851677929
C           30.58648410456528        4.53134495596502       13.40810570940197
H           30.90232033596075        3.69513052084880       14.01669517366652
C           29.56392292351613        5.25649867158995       13.84560333944086
H           29.21400581092324        6.14210618482833       13.34690107896998
H           29.03938487479920        4.99669600471828       14.74770657113393
C           34.42455041511990        1.28593808005314       14.95464991519803
H           33.53658100720072        0.72963703568274       14.65965175236665
H           34.11149833775782        2.08994630808356       15.61925070834182
H           35.07366308458273        0.61606592150565       15.51067766553360
C           37.49220300212802        0.87939429173334       14.08355353878597
H           37.59613477321849       -0.13438218379880       13.69932857554147
H           37.26917757775527        0.81851502461875       15.14542538670428
H           38.44710820400493        1.38579264752016       13.96977536764416
O           35.66941797063398        5.97436236073961       11.49687421431437
H           34.89206546501715        6.31164751792038       11.99294756502137
H           36.50973926145284        6.15812078439955       11.96040924244263
C           32.36871343569063        0.16136297716357        7.51448422578620
H           32.57954869179653       -0.86657853282904        7.80446862156132
H           32.31946002350433        0.20332032184548        6.42813734834495
H           31.40430527546275        0.44562221713727        7.91696885155026
N           34.72819763992091        0.96500419216843        7.65257847848004
H           35.09736193767954        0.27762748665855        7.01459978976039
C           33.41686568228198        1.07638200132812        8.03149308556031
C           35.42358927528512        1.93026459539110        8.29707267302087
H           36.47685234407324        2.06773455761799        8.18478027001409
N           34.63430055381556        2.64892051172085        9.05760458066963
C           33.38479596567937        2.12922776454217        8.90255493495160
H           32.55551562619683        2.54804897373821        9.43043122517810
78
 energy: -116.049580553500 gnorm: 0.024130880937 xtb: 6.7.1 (edcfbbe)
Fe          35.16063911992217        4.24437847872520       10.25445358913170
N           37.06572024450135        3.98118231727796        9.70529403492592
N           34.88272042162009        5.51989171180221        8.73034364960455
N           33.27736949338739        4.61093927080093       10.90024224538195
N           35.45474324714572        3.02833124231770       11.81693801437123
C           37.98652547234271        3.16812640143235       10.28630693318284
C           39.22567699508038        3.18993445831895        9.54176170901656
C           39.02062958854941        4.02480670942651        8.48699079356019
C           37.66769288553886        4.51362734278016        8.60974539123218
C           35.80496260842532        5.89250347796804        7.80634384552013
C           35.26400105191138        6.88271653342395        6.91005611439711
C           33.97293661607686        7.09746179056997        7.31059576498811
C           33.75998334753555        6.22677579685073        8.45315815069220
C           32.38004628242862        5.46775705543376       10.33877010860198
C           31.19029960929685        5.56319362934200       11.13976920342741
C           31.38546243244087        4.74262090751483       12.22522689276074
C           32.69268345068314        4.13595540564748       12.02856234165926
C           34.54837852048851        2.70851065690179       12.77578966083570
C           35.13588785451709        1.82511651802207       13.75713333192162
C           36.42649898291182        1.63261890192921       13.37417922469903
C           36.60000466364875        2.37584479322437       12.14570221800147
C           37.77694249108451        2.40734567097615       11.42198739584611
H           38.59222019439198        1.79055286687905       11.77066500013814
C           37.09820609388752        5.40726753410664        7.72484095273825
H           37.71972733656958        5.76842466175080        6.91904857894064
C           32.59110318813596        6.20689689614649        9.18645434356989
H           31.79304463592896        6.85816787204097        8.86647385375077
C           33.26588541577318        3.21053469448746       12.88311505264484
H           32.68618587413839        2.86832358860135       13.72716102808258
C           39.95061283500046        4.38813649536549        7.38323577011306
H           40.90982936504014        3.89326666964390        7.50709351659419
H           40.11436876802287        5.46517904545239        7.35639811353480
H           39.53288337396448        4.08962941354574        6.42125242834973
C           40.46552459251873        2.44504979504592        9.89789792342096
H           40.46483749292495        1.44623739414672        9.45857244603562
H           40.55657315376434        2.34039416742989       10.97628854954331
H           41.34299464156935        2.97499990948975        9.53272051546403
C           36.00440667205232        7.49707586926682        5.77658493697048
H           36.64459120958693        6.76535992791158        5.28707487480672
H           36.63779323660953        8.31122416589131        6.13362186636634
H           35.30910327458717        7.89820211440717        5.04364795254138
C           32.96731254011081        7.97728379256941        6.75411666262291
H           31.94813819898813        7.62190116842619        6.84381429752034
C           33.18869991013251        9.15377189219645        6.16587848930569
H           34.17299034389773        9.58099675494909        6.08632483250699
H           32.38172005450644        9.73918228351418        5.75706268002749
C           30.00643016476302        6.38328214040898       10.76484035059887
H           29.84970079598121        6.34911799473475        9.68667653308838
H           30.14845938745765        7.42762359693135       11.05047762844625
H           29.10919794767447        6.00877223452150       11.24942705083240
C           30.56886234093266        4.52170327537920       13.39566675294037
H           30.85223232674102        3.65887479542900       13.98574635079955
C           29.56070421637187        5.27149676813626       13.85167227616954
H           29.22140415401206        6.17296210153937       13.37164771555270
H           29.03848630799378        4.99773452120846       14.75328057591002
C           34.42504706414013        1.28720613420865       14.94929786884212
H           33.53639767809037        0.73318010256123       14.64810050726609
H           34.11027171469146        2.09550978134274       15.61016071297308
H           35.07088715292855        0.61679914085952       15.51042529758485
C           37.49462631919326        0.86765066166261       14.07624831113740
H           37.59102101622859       -0.14096736143841       13.67199360109516
H           37.26881213516949        0.78882141759959       15.13789945889713
H           38.45467618340245        1.36971371885184       13.97188037313851
O           35.69097522930605        6.01029889337549       11.49118138010524
H           34.93872796284025        6.34888510475373       11.99204320322954
H           36.51284587782241        6.16801354621958       11.99337539059809
C           32.36129717532820        0.16417585774154        7.51924048948041