78
 energy: -116.058025150748 gnorm: 0.000137837706 xtb: 6.7.1 (edcfbbe)
Fe          35.22442080476184        4.36113077001725       10.26692280802070
N           37.09367956404743        4.02123602804000        9.67201173428572
N           34.96011440874344        5.64144238518466        8.75809441245701
N           33.35449896564572        4.74057469319726       10.91921746999919
N           35.49721413160626        3.11579008940171       11.82210988438758
C           37.99499307770070        3.17759976147014       10.23709097934874
C           39.24765659061337        3.20410660473666        9.51208812675370
C           39.07993847263363        4.08874316869060        8.49434767287831
C           37.72492199456325        4.58519367208442        8.60879612617130
C           35.87190085245450        5.97945070631723        7.80757405907054
C           35.31486521578695        6.92335604457164        6.87222520279116
C           34.02842294895247        7.15474638634668        7.28027724788933
C           33.83014311902393        6.33240110940805        8.45938755827114
C           32.43487624787591        5.55047411300083       10.32346415603478
C           31.19884042192378        5.55044806275320       11.06078980540584
C           31.38669043326812        4.71323961466911       12.12988957826902
C           32.73934193533425        4.20802909962161       12.00816677011773
C           34.59553840262117        2.80446952296476       12.79339987475272
C           35.15060451172058        1.83906284201553       13.71526321491181
C           36.40681297626428        1.56540643240528       13.27029774186544
C           36.60470409558367        2.37265964779649       12.08781630688340
C           37.77508519972714        2.39411228385950       11.35408921428773
H           38.58189022224221        1.75834597235043       11.68502284263019
C           37.16751178648494        5.49653810439698        7.73495584047128
H           37.79373925483443        5.86665765968593        6.93741227748563
C           32.65343057172878        6.30031469318500        9.18122548939547
H           31.84020054677403        6.91947711593391        8.83504990177893
C           33.31668156491578        3.31995544486521       12.89841229514578
H           32.71730494835346        2.98795928039445       13.73217655045332
C           40.04547166438228        4.51378810624377        7.44147773269978
H           41.00272198817780        4.01465649611128        7.57019172941868
H           40.21094198183940        5.59013096468533        7.48808650270523
H           39.66444112855890        4.27318153615884        6.44832402852933
C           40.44665668602162        2.39668169648352        9.87477832570227
H           40.21120837930112        1.33222484966998        9.86138665020762
H           40.79206340066509        2.65368653355370       10.87630673693518
H           41.26015676133355        2.57626482866794        9.17617096342609
C           36.01604572549277        7.45896530487203        5.67272292562312
H           36.63621109392910        6.69145414002769        5.21161229284870
H           36.66169916756636        8.29613105807180        5.94248406880841
H           35.29034757318411        7.80721471652620        4.94038348045957
C           33.01944908925843        8.00391086265697        6.68691133442336
H           31.99877763810993        7.64868278908504        6.77254456152994
C           33.24809969069914        9.15832366288792        6.06910695237411
H           34.23353188701381        9.58405938964263        5.99718319152793
H           32.44657585329973        9.73427072162837        5.63687644916694
C           29.96277985055724        6.27771524584447       10.66147174631165
H           29.83254094187287        6.24994035820833        9.58071969429346
H           30.00919811792615        7.32395080526368       10.96858466471607
H           29.09303007067899        5.82067709573579       11.12901552443889
C           30.46049865343193        4.34533413307116       13.17778170335348
H           30.55766878691087        3.33393551159399       13.55570870597159
C           29.53299792852900        5.14025777944958       13.70161512543467
H           29.42201543445481        6.16744496684833       13.40102687412216
H           28.86571124830818        4.79449847927094       14.47363174031982
C           34.42642477515681        1.29230820481054       14.89764110878242
H           33.52725127883652        0.76037545968955       14.58508434618782
H           34.12609442272547        2.09615269170048       15.57030961710823
H           35.05695458264470        0.60098043791837       15.45121495709251
C           37.42830668185757        0.64006228944328       13.83666932440228
H           37.70759901278473       -0.11648436689905       13.10320206650456
H           37.04629280859397        0.13547560102358       14.72074785867417
H           38.32868002651213        1.18775129367914       14.11627437038952
O           35.89237957481934        6.05085793761617       11.66752000946334
H           35.04928356340863        6.48991132023447       11.82399645162864
H           36.09599549528613        5.53843608815936       12.45758228584432
C           32.57741663721664       -0.14049997445003        8.31629482445198
H           33.17089014999910       -1.02330948736295        8.07835346512671
H           31.84762189217506        0.00444234256027        7.51975882491808
H           32.04647327352859       -0.31821571129076        9.24624689925417
N           34.23423796072007        1.52097289655523        7.44107422699439
H           34.30654122269177        1.11725629847105        6.52159851648813
C           33.44513439207442        1.05569961461913        8.46014482793936
C           34.88901078730211        2.61331655494212        7.89545478001863
H           35.57909010914588        3.18685634987873        7.31126223233789
N           34.56247647694760        2.86743821800489        9.13954996569380
C           33.66548480368965        1.90713737849397        9.50453700273141
H           33.24149606418904        1.89277522055359       10.48680319040739
