72
 energy: -105.979918706648 gnorm: 0.000086817780 xtb: 6.7.1 (edcfbbe)
Fe           6.30551838411345      -18.21476397976505      -20.54623775653906
N            6.19372880159370      -17.50776429699767      -18.68615124165650
N            6.62997664888457      -20.05685135157197      -19.83648648026650
N            6.47765764370243      -18.91402416557128      -22.43139371229056
N            6.07405360772905      -16.35957553996028      -21.26884370137238
C            5.96848944933813      -16.22263375588046      -18.31363563953341
C            5.93190637311100      -16.10583409692835      -16.87124944145004
C            6.15000365839657      -17.35475726146059      -16.38246437318718
C            6.31391601633149      -18.21681786722941      -17.53324856376750
C            6.71177348027277      -20.42136781206456      -18.52867634138199
C            6.98313574079542      -21.82946783452773      -18.40740382902410
C            7.09570358783848      -22.31324719239382      -19.68212758588206
C            6.85426830084840      -21.18527578393112      -20.55984227915687
C            6.61296649166014      -20.21883960464667      -22.80502169099577
C            6.59350605081486      -20.34388435195864      -24.23835433133653
C            6.44903321991968      -19.07411401706764      -24.73375460259921
C            6.37607305616096      -18.19954315074246      -23.58218879003496
C            6.04275244789157      -15.98627205512128      -22.57634171208815
C            5.81416455283477      -14.56318735042938      -22.69513285556578
C            5.69288556985900      -14.08889412212769      -21.42668443225379
C            5.85434328048721      -15.22731379278205      -20.55004565128582
C            5.79999343189061      -15.15333229929214      -19.17237059561901
H            5.61850891945976      -14.18500522427870      -18.73283537196751
C            6.55511274656983      -19.57237845205123      -17.44691946261521
H            6.63613435776202      -20.00453952741157      -16.46161411688241
C            6.78385231932585      -21.28173790897636      -21.93614331580570
H            6.87371871442074      -22.26741829110681      -22.36405489686094
C            6.18572580203191      -16.83235302602772      -23.65853643610738
H            6.11282661280613      -16.39391674513598      -24.64123962910043
C            6.22127347600975      -17.81937104705719      -14.96888147416241
H            6.06457850158867      -16.99174478584037      -14.28171660749156
H            7.19691161507980      -18.25836310804438      -14.76032902262636
H            5.46083850158164      -18.57615672235344      -14.77394988808254
C            5.69955761723866      -14.83017368895619      -16.13785334569354
H            4.74025088140631      -14.39506231866553      -16.41887631407603
H            6.48067949523437      -14.10681632046552      -16.37222787024562
H            5.69878104796090      -14.99669368117535      -15.06357439593023
C            7.15697646571817      -22.55912582517483      -17.12113151426243
H            6.28002235037126      -22.43488479541569      -16.48490131615110
H            8.02278881022268      -22.17727550242273      -16.57952972805675
H            7.30944989304603      -23.62014230418172      -17.30176964296638
C            7.40964795639457      -23.67269846905009      -20.07389968682642
H            6.94968435241582      -24.44667512587571      -19.46882145361779
C            8.22651614777975      -24.02360633409435      -21.06000178090305
H            8.75244134246165      -23.29458160932643      -21.65311170924673
H            8.42020044684823      -25.05792121167567      -21.29080305502715
C            6.77978899244444      -21.61482633921658      -24.98982611966494
H            5.83919728425751      -22.16280078239090      -25.06466621963292
H            7.50306954787333      -22.25763825075747      -24.49062931132407
H            7.13576862531224      -21.40435311774830      -25.99627162397490
C            6.39837042783372      -18.62866361519781      -26.10898136181936
H            6.83726921374905      -17.65668359787282      -26.30263569239655
C            5.85989359386338      -19.30542835868833      -27.11763996518901
H            5.36775471394358      -20.25149313395863      -26.97499864284165
H            5.86852483266278      -18.91852185863394      -28.12299769990650
C            5.73237657433262      -13.83183098886087      -23.99021583107449
H            4.90915834947315      -14.21529082925264      -24.59316899719015
H            6.65415739928818      -13.95333333200176      -24.55972395682068
H            5.56984495404457      -12.76985864030972      -23.82449611176272
C            5.44479270181802      -12.69723242233318      -20.95717253044450
H            4.51501953243552      -12.64578130442098      -20.39054746310475
H            5.37114928401544      -12.01277150393855      -21.79846828777776
H            6.25476621995339      -12.36054889978930      -20.30974720870481
O            8.51855412307403      -17.84627410780525      -20.63553881634175
H            8.76215103336526      -18.43460698501222      -21.35946207690771
H            8.53843224950261      -16.94679033104325      -20.98239299747343
C            3.37343503840567      -19.12004238970102      -19.05771753699830
H            2.39243502452472      -19.56968137878661      -19.17675289953662
H            3.30359380195389      -18.22359667673398      -18.45055264025782
H            4.07556885401392      -19.81392606281582      -18.60845869679973
S            3.99283308164273      -18.59412377850230      -20.69448894954638
H            4.04276637799252      -19.82949760703864      -21.20607072052195
