72
 energy: -105.895924841696 gnorm: 0.253557092722 xtb: 6.7.1 (edcfbbe)
Fe          -0.51500000000000      -15.16900000000000       18.66100000000000
N            1.24200000000000      -15.82900000000000       19.40900000000000
N            0.43000000000000      -14.42600000000000       16.99800000000000
N           -2.28000000000000      -14.35700000000000       17.96900000000000
N           -1.48100000000000      -15.78600000000000       20.38600000000000
C            1.44600000000000      -16.51700000000000       20.58600000000000
C            2.85000000000000      -16.87300000000000       20.68400000000000
C            3.46200000000000      -16.38500000000000       19.59500000000000
C            2.47400000000000      -15.70900000000000       18.79000000000000
C            1.77600000000000      -14.51600000000000       16.74200000000000
C            2.01900000000000      -13.95300000000000       15.43700000000000
C            0.84100000000000      -13.54000000000000       14.93900000000000
C           -0.18000000000000      -13.81200000000000       15.92700000000000
C           -2.51000000000000      -13.84400000000000       16.71900000000000
C           -3.93700000000000      -13.59500000000000       16.57400000000000
C           -4.53400000000000      -13.93200000000000       17.74200000000000
C           -3.50500000000000      -14.41200000000000       18.62300000000000
C           -2.80200000000000      -15.48000000000000       20.70800000000000
C           -3.07100000000000      -15.95000000000000       22.04799999999999
C           -1.77000000000000      -16.55600000000000       22.53800000000000
C           -0.83500000000000      -16.40700000000000       21.45100000000000
C            0.46900000000000      -16.82300000000000       21.50300000000000
H            0.75700000000000      -17.45200000000000       22.34500000000000
C            2.72300000000000      -15.07800000000000       17.56900000000000
H            3.76100000000000      -15.02600000000000       17.24100000000000
C           -1.52700000000000      -13.57700000000000       15.77100000000000
H           -1.85100000000000      -13.14500000000000       14.82400000000000
C           -3.72400000000000      -14.87400000000000       19.90400000000000
H           -4.72600000000000      -14.74300000000000       20.31200000000000
C            4.95100000000000      -16.50300000000000       19.25000000000000
H            5.43900000000000      -17.21500000000000       19.95000000000000
H            5.43900000000000      -15.51000000000000       19.34800000000000
H            5.06700000000000      -16.88200000000000       18.21200000000000
C            3.48400000000000      -17.67900000000000       21.83900000000000
H            3.44700000000000      -18.76300000000000       21.59900000000000
H            2.91800000000000      -17.49800000000000       22.77800000000000
H            4.54500000000000      -17.37600000000000       21.97000000000000
C            3.41800000000000      -13.89400000000000       14.78700000000000
H            3.59100000000000      -14.81800000000000       14.19600000000000
H            4.19600000000000      -13.82000000000000       15.57700000000000
H            3.48000000000000      -13.01600000000000       14.10900000000000
C            0.51600000000000      -12.84400000000000       13.60500000000000
H           -0.47300000000000      -12.38000000000000       13.48200000000000
C            1.35400000000000      -12.75400000000000       12.56000000000000
H            2.36000000000000      -13.19500000000000       12.61200000000000
H            1.04500000000000      -12.23800000000000       11.63900000000000
C           -4.60500000000000      -13.05600000000000       15.28100000000000
H           -4.90200000000000      -13.90900000000000       14.63400000000000
H           -3.88700000000000      -12.41500000000000       14.72600000000000
H           -5.51200000000000      -12.47000000000000       15.54300000000000
C           -6.02500000000000      -13.88300000000000       18.15900000000000
H           -6.28100000000000      -13.83100000000000       19.22700000000000
C           -7.03600000000000      -13.90000000000000       17.29100000000000
H           -6.84200000000000      -13.95100000000000       16.20900000000000
H           -8.07700000000000      -13.86300000000000       17.64500000000000
C           -4.41300000000000      -15.86600000000000       22.82200000000000
H           -5.19800000000000      -16.41900000000000       22.26400000000000
H           -4.72200000000000      -14.80400000000000       22.92300000000000
H           -4.29600000000000      -16.32400000000000       23.82700000000000
C           -1.47800000000000      -17.20500000000000       23.90700000000000
H           -1.52300000000000      -18.31100000000000       23.81000000000000
H           -2.23800000000000      -16.87700000000000       24.64800000000000
H           -0.46200000000000      -16.91500000000000       24.25100000000000
O           -0.19100000000000      -13.27700000000000       19.56400000000000
H           -0.86400000000000      -12.69600000000000       19.20900000000000
H            0.43700000000000      -13.05600000000000       20.15300000000000
C            0.19600000000000      -18.38900000000000       17.87100000000000
H            0.12200000000000      -19.27900000000000       17.21000000000000
H            0.01200000000000      -18.72100000000000       18.91500000000000
H            1.23000000000000      -17.98900000000000       17.79500000000000
S           -1.00600000000000      -17.11400000000000       17.39700000000000
H           -0.28300000000000      -16.64100000000000       16.39200000000000
72
 energy: -105.949147972660 gnorm: 0.103557592447 xtb: 6.7.1 (edcfbbe)
Fe          -0.52465368371840      -15.16533061356960       18.65800420860856
N            1.24045202298792      -15.82886205737384       19.40131732543153
N            0.42172709249077      -14.42923327778449       16.99877183979502
N           -2.29196232192491      -14.37043659614727       17.97154069639410
N           -1.46948486193281      -15.76851945465826       20.38336899236616
C            1.44055003255495      -16.52201379770687       20.56915777139172
C            2.84558071579546      -16.87903275701487       20.69010350500979
C            3.46960174080884      -16.38119418800122       19.59407412166762
C            2.46499024545943      -15.71333310934713       18.79139631639887
C            1.76146203379068      -14.51207716411104       16.73531432829314
C            2.02825565116544      -13.94533527550525       15.42792791526270
C            0.83499113770780      -13.52162960508094       14.91972668214177
C           -0.17658451788097      -13.82382294546547       15.92476625066848
C           -2.52446057444165      -13.85101535083400       16.72965181115327
C           -3.94794741672008      -13.59142230844757       16.56796177368412
C           -4.55196638302768      -13.92989462177734       17.74801489669422
C           -3.50334764008843      -14.41712879471637       18.62264238700769
C           -2.77205718134086      -15.49855210116128       20.73190591133848
C           -3.03401344143795      -15.97232570376946       22.07283385257219
C           -1.81420601098425      -16.54757475855408       22.52893247346046
C           -0.87186605234647      -16.39971682430973       21.44597878701858
C            0.45301172549302      -16.81943369109991       21.49291350873617
H            0.74815836276261      -17.42877911187074       22.34224644387058
C            2.70885400887227      -15.08129071257135       17.57375434123963
H            3.74320203020823      -15.03777201285904       17.24768101841061
C           -1.53389502143362      -13.58579412620993       15.78366867797912
H           -1.85423208266125      -13.15129111198804       14.84322006677101
C           -3.70734951447266      -14.88332361555308       19.91238584981114
H           -4.70758964288744      -14.75936885586826       20.31442933270767
C            4.93591236784099      -16.49973714203929       19.25078786135933
H            5.42806614708243      -17.20010997251412       19.93359939639267
H            5.43025781734374      -15.52535382557219       19.34009748799475
H            5.06517473047878      -16.87070700323503       18.22812478625523
C            3.46968859042801      -17.66870802334202       21.82448094912311
H            3.44321698388928      -18.74268515773014       21.60102688540811
H            2.92854681445412      -17.49847570014638       22.75999203477349
H            4.51621123445621      -17.37776312371977       21.96783172154105
C            3.40482071757879      -13.89380003142881       14.79927881987342
H            3.58619720492446      -14.80087462884335       14.20827642048553
H            4.18114104047382      -13.82122431279961       15.56648752421834
H            3.48962645396390      -13.02539902575274       14.14052704911205
C            0.53120984032087      -12.85349337502687       13.62049261362665
H           -0.45367468555897      -12.39984018117221       13.51449667911492
C            1.34947828171650      -12.76056050524227       12.57303178737378
H            2.33726205139242      -13.19764027919861       12.58597637876608
H            1.04747946132053      -12.24811979697183       11.66445116158625
C           -4.59180760062658      -13.06084009656858       15.29927804208855
H           -4.89085979088653      -13.89401025693614       14.65010725094968
H           -3.89701759520345      -12.42610086784961       14.74050442201043
H           -5.48459956814779      -12.47526810234934       15.54222323546655
C           -5.99838850186845      -13.87713363917367       18.13913701439536
H           -6.23646689941177      -13.83232414325294       19.20244321243111
C           -7.01924507951302      -13.89776637124092       17.28788892250994
H           -6.85841459255044      -13.96321167097303       16.22043150162762
H           -8.04820307235732      -13.86368045589089       17.63720886452047
C           -4.36759362303315      -15.87357994123056       22.80616238597926
H           -5.16208712660818      -16.40936351036602       22.26768601312593
H           -4.69611376125515      -14.83042223827021       22.91543961286903
H           -4.28922290036560      -16.31435569433489       23.80494818085040
C           -1.49976772036775      -17.18733324392342       23.87175527633034
H           -1.52880574153074      -18.28406191892816       23.80165444799936
H           -2.22732429345847      -16.87958823693010       24.62951908311159
H           -0.49788174339640      -16.91058941300986       24.22828047812405
O           -0.20233327218563      -13.27704073523121       19.55650510252069
H           -0.86233098401457      -12.67279054716613       19.21925664687070
H            0.45604547717214      -13.02750201899793       20.17876010587856
C            0.21086471157149      -18.40221547623980       17.87068118156685
H            0.11683155865179      -19.27123501559415       17.21061640686992
H            0.01077049024576      -18.70936712045151       18.90117897190007
H            1.22202053413582      -17.99262913356791       17.80326578595485
S           -0.99761003749165      -17.12571429534954       17.40949133016873
H           -0.29129437240828      -16.65387922808178       16.38392588099078
72
 energy: -105.964846342452 gnorm: 0.038891783944 xtb: 6.7.1 (edcfbbe)
Fe          -0.53434075909475      -15.15656689350625       18.66091142428399
N            1.23333558365318      -15.83260380993938       19.39199711607101
N            0.41043151053955      -14.43726355472188       16.99972054139205
N           -2.29957799933747      -14.38696488755838       17.97651176486761
N           -1.46031305233510      -15.75548065378300       20.37917683779980
C            1.42971477400041      -16.52417357462487       20.55196579099194
C            2.83252646390317      -16.88271283273503       20.68858437508705
C            3.46613166501507      -16.37822542154602       19.59069215251634
C            2.45035990875045      -15.71770604201654       18.79044934253964
C            1.74461235914760      -14.51288289052799       16.73342244595727
C            2.03018812745696      -13.94443443471349       15.43016181882168
C            0.82757047718740      -13.51708947342337       14.91263430673709
C           -0.17684348297222      -13.83535007156495       15.92792909598146
C           -2.53134725136725      -13.86461343041854       16.74020405967054
C           -3.94729310702503      -13.59447190207869       16.56660139725790
C           -4.55816718333200      -13.93563620008608       17.75223701230343
C           -3.49705083660671      -14.42729795503226       18.62304909052039
C           -2.74751817964572      -15.50679138353365       20.74004644715013
C           -3.00133541913529      -15.99209884595253       22.08432692257854
C           -1.84706358188921      -16.53971537817915       22.51559128472329
C           -0.89065272850955      -16.38966885803452       21.43626786283475
C            0.44017606346899      -16.80987819273552       21.48276050008923
H            0.73973994511559      -17.39777468471296       22.34114212149036
C            2.69174933416276      -15.08691778878679       17.57692153791418
H            3.72262058941840      -15.05353502640162       17.25072603187068
C           -1.53931738847699      -13.59712633030851       15.79780283066968
H           -1.86004544985108      -13.15802482410848       14.86414206524049
C           -3.69115817653354      -14.89375987864504       19.91667672911971
H           -4.68937007996459      -14.78331801481952       20.31764119048302
C            4.91635315500186      -16.49282628577521       19.24981478620689
H            5.41120034692245      -17.18707858899199       19.92381912603041
H            5.41544637040386      -15.52758236638795       19.33152826604530
H            5.05231537461537      -16.85857036921675       18.23402750266117
C            3.44897652441201      -17.65718083972800       21.80889722990727
H            3.42900661043846      -18.72701706932590       21.59552996762946
H            2.92207585673754      -17.49160965411989       22.74400198790545
H            4.48829141991181      -17.36949331303456       21.95505455936869
C            3.38946513100794      -13.88920457484374       14.81766944950635
H            3.57522973861982      -14.78474001159898       14.22134170384215
H            4.16439857671412      -13.82637872856358       15.57622497383046
H            3.48832480277463      -13.02334989296900       14.17000390914972
C            0.54203292157559      -12.86919064192948       13.64887419487883
H           -0.43947061591253      -12.41727061225013       13.56223185313251
C            1.34382678015115      -12.77369853543649       12.59015353756445
H            2.32335271741497      -13.20926399250308       12.56248439163173
H            1.04012402356214      -12.25701148508868       11.69426352018868
C           -4.57497874526957      -13.06390995182419       15.32133989468512
H           -4.87726924049545      -13.88555723681660       14.66935013123939
H           -3.88838822070715      -12.43460515447648       14.76149623608398
H           -5.46006742056009      -12.47672893245795       15.55514209838033
C           -5.96065030804072      -13.87828031859530       18.11967030081254
H           -6.17914167177982      -13.83046770236535       19.18123455244387
C           -6.99619259012881      -13.90028241559317       17.28374144020865
H           -6.87069978638051      -13.98007044139871       16.22110436614757
H           -8.01428271859407      -13.85929047444592       17.63747074160874
C           -4.32050886778233      -15.88316302560743       22.79210009834238
H           -5.10952373212468      -16.41023806462564       22.25099495349321
H           -4.64564343878206      -14.84538813831474       22.89473264981254
H           -4.26350838020853      -16.31378380070386       23.78918816134323
C           -1.52406270424392      -17.17167582276976       23.83758114806871
H           -1.54261831488644      -18.26225101970353       23.77200663252887
H           -2.23719067302965      -16.87340950817089       24.60210649985128
H           -0.52953862480408      -16.88969726836031       24.18709386590956
O           -0.20663173907184      -13.26776418726949       19.55964410939177
H           -0.84674046637481      -12.62566932894012       19.24821150392872
H            0.45780192703778      -12.99214158784445       20.19070471147042
C            0.22400996511283      -18.41309963731135       17.87342281548650
H            0.11430514542865      -19.26515884766139       17.20963516143663
H            0.01161889740806      -18.70626154534530       18.89503753717483
H            1.22180907467212      -17.99866179852085       17.81166378140972
S           -0.99362947580924      -17.13193174972314       17.42428443246247
H           -0.31198975067998      -16.67896184489560       16.36582711983622
72
 energy: -105.969309855498 gnorm: 0.020790861324 xtb: 6.7.1 (edcfbbe)
Fe          -0.53632499870493      -15.14492404300410       18.66631867295731
N            1.22395925051634      -15.83324778350286       19.38567897437230
N            0.40393191150957      -14.44288513789841       17.00547336999566
N           -2.29468776022851      -14.40012450138408       17.97916030162293
N           -1.45236392435906      -15.74529247043743       20.37455482592237
C            1.42222766389190      -16.52405749207277       20.54098761218836
C            2.82068633595475      -16.88127707036599       20.68012865172582
C            3.45548160190687      -16.37692467472502       19.58436181981743
C            2.43889278907719      -15.72136314809861       18.78586048366789
C            1.73592876108570      -14.51905387408181       16.73836707320706
C            2.02742427869185      -13.94878215774202       15.44325270513096
C            0.82554779297893      -13.52380488891350       14.92250615293065
C           -0.17875246867718      -13.84422144404671       15.93367992527497
C           -2.52473912458478      -13.87869521941999       16.74351734077895
C           -3.93350333340875      -13.60499280432092       16.56616765354743
C           -4.54715533648120      -13.94784284785218       17.74789113144298
C           -3.48940204672553      -14.43879403413653       18.61999185173747
C           -2.74035414634176      -15.50358162680660       20.72822580765524
C           -2.99848916770229      -15.98983093236217       22.07115761748748
C           -1.83825060457535      -16.54562850441155       22.50477789161374
C           -0.88254800146057      -16.38645292767597       21.42534932161355
C            0.44047736544368      -16.80512777933268       21.47646810063040
H            0.74228634836339      -17.37393949234265       22.34550098650311
C            2.68258539080277      -15.09527632529547       17.57581936018270
H            3.71121512519575      -15.07165017312540       17.24646601221595
C           -1.53875977059351      -13.60815538671312       15.80262548370144
H           -1.86382517336647      -13.16500659641504       14.87351799495088
C           -3.68682328753039      -14.90243467128253       19.91088618440410
H           -4.68496685327263      -14.80718560602535       20.31345355679143
C            4.90258209558039      -16.48404953489087       19.24205669162892
H            5.40017345903178      -17.17626527186307       19.91613530891942
H            5.39770639417679      -15.51619926520350       19.32084935174390
H            5.03728120683359      -16.84852891235113       18.22536271689636
C            3.43073407606257      -17.65110760161513       21.80165963560512
H            3.40921514759629      -18.72150839405044       21.59076456785726
H            2.90297457859964      -17.48106459315741       22.73573384616338
H            4.46919986601416      -17.36019438689918       21.94528737323206
C            3.38774048966472      -13.88219076611475       14.84272735914085
H            3.57347287270167      -14.76647582850294       14.22847286073171
H            4.15683269177868      -13.83786062982855       15.60909169562558
H            3.49529200148655      -13.00046220811383       14.21658786134928
C            0.54071915767907      -12.87579694185970       13.66693345319790
H           -0.43812667703861      -12.41560349645849       13.60018509569525
C            1.32711358738342      -12.78445606019475       12.59474264897619
H            2.29537735815675      -13.24833972315216       12.52798613601275
H            1.01206494703096      -12.25422534580432       11.71187119818189
C           -4.55721651740705      -13.06066269700112       15.33040217905061
H           -4.86654257160730      -13.87727930761380       14.67515464828439
H           -3.86479012762361      -12.43305063659793       14.77566947721902
H           -5.43687134945796      -12.46867222348996       15.57324988979951
C           -5.94063336897371      -13.87988578867834       18.11203404274146
H           -6.14449259995266      -13.82529332721674       19.17529078863797
C           -6.98247058669013      -13.90225041899776       17.28330336150245
H           -6.87442911627819      -14.01020471085035       16.21886519080847
H           -7.99474776121400      -13.85158861912293       17.64789832976946
C           -4.30616042455473      -15.88343555797781       22.77874183528031
H           -5.08409527717859      -16.41387918762601       22.22929332993425
H           -4.61567541906385      -14.84249565712287       22.87509971076432
H           -4.24278897351893      -16.31432336019660       23.77455807227510
C           -1.52902640754643      -17.17245574003157       23.82246763539184
H           -1.54782171908351      -18.26063071298744       23.74818199839982
H           -2.25096432456183      -16.87176427657322       24.57698143617645
H           -0.53916131338993      -16.87642152246011       24.16635035239892
O           -0.20738064470926      -13.24278496007266       19.57495158892529
H           -0.82909414884694      -12.57280970633224       19.27805886600252
H            0.46063603682599      -12.95767786796566       20.20074826900231
C            0.23102927270352      -18.42025515908299       17.87906908297794
H            0.11426641801430      -19.26579048097682       17.20812401503909
H            0.01723404883329      -18.71490690306387       18.89957580286251
H            1.22846392340023      -18.00385882838322       17.81802199687772
S           -0.99492293431163      -17.13765819293717       17.44433229164692
H           -0.34739598395156      -16.71708158278891       16.34598114320317
72
 energy: -105.972181010786 gnorm: 0.015589068433 xtb: 6.7.1 (edcfbbe)
Fe          -0.53683209173791      -15.14299146771910       18.66552776595995
N            1.21257788430318      -15.82845210713770       19.38077956435469
N            0.39777907834169      -14.44874955406146       17.01655254650668
N           -2.28221999858398      -14.41723909437886       17.98415762141836
N           -1.43922872835501      -15.73422525824580       20.36117048559235
C            1.41490266357168      -16.51814183921316       20.53221569695672
C            2.80761511445524      -16.87810169723530       20.67068614096941
C            3.44257595998434      -16.37647213263255       19.57636958567755
C            2.42707756221115      -15.72318187153847       18.78140129188548
C            1.72849032941997      -14.52376101257231       16.74740255445522
C            2.02269232800074      -13.95616698307850       15.45912559816780
C            0.82215569966708      -13.53648202870931       14.93604691294091
C           -0.17994077463770      -13.85444132311831       15.94272324978373
C           -2.51182263005939      -13.89449069860347       16.74881850083093
C           -3.91337644699953      -13.62023224508437       16.56663469421905
C           -4.53084039628867      -13.96597708809212       17.74274678593802
C           -3.47788100459803      -14.45474959721027       18.61649371666288
C           -2.72820082956596      -15.49996639476958       20.71066665231962
C           -2.99022136864767      -15.99108519403959       22.04894225557685
C           -1.82718186583642      -16.54701035426540       22.48597269549012
C           -0.87059417103590      -16.37790883461343       21.41066922466192
C            0.44311439309699      -16.79385216440688       21.47468108163000
H            0.74409510502063      -17.34721419704426       22.35159781983333
C            2.67606834400195      -15.10463887448491       17.57396879988570
H            3.70173703767975      -15.09590295362518       17.23858115521710
C           -1.53569154388467      -13.62107661008496       15.80678505516365
H           -1.86788356990187      -13.17910177459090       14.88042176219409
C           -3.68263520321794      -14.91607865580305       19.90336335402033
H           -4.68083669243072      -14.84081393118618       20.30846184154001
C            4.88744021274587      -16.47325405505510       19.22864822500363
H            5.39249366895261      -17.16100035851976       19.90273322861303
H            5.37338937068160      -15.49934504741276       19.30357331471214
H            5.01893919969138      -16.83699238624696       18.21019795865637
C            3.40968589550812      -17.64564878440782       21.79610199539330
H            3.38093790603138      -18.71723097839912       21.58972592637469
H            2.87844604293270      -17.46650503115060       22.72753135046445
H            4.44915437260160      -17.35623455583199       21.93822290619707
C            3.38244635908269      -13.86993081339362       14.86335483667341
H            3.57467977350694      -14.73926474337586       14.22916652859191
H            4.14703653983772      -13.84226564516058       15.63759067984887
H            3.47972191865233      -12.97365352890867       14.25400487252181
C            0.53546351929431      -12.88392202485568       13.68588405673416
H           -0.43067415250144      -12.39253425472430       13.64203290758414
C            1.30804969301635      -12.81220150271891       12.60277848170315
H            2.27374255699082      -13.27585456569556       12.52440404640093
H            0.98728609048876      -12.26085557066335       11.73368320051370
C           -4.53451677179475      -13.05531233995936       15.33959720880636
H           -4.85469209270339      -13.86037466800735       14.67428422756553
H           -3.83530469261330      -12.42672315594246       14.79269411817723
H           -5.40776419308980      -12.45860921803736       15.59757182422769
C           -5.92201244826112      -13.88829812457132       18.10779507460177
H           -6.11358477134456      -13.80663221209649       19.17180010431448
C           -6.96739740489610      -13.91896080535488       17.28450741401472
H           -6.87275142209025      -14.03822358587448       16.21990592819606
H           -7.97422609948178      -13.83768833919586       17.65991102444433
C           -4.29268436428928      -15.88341552178088       22.75685948136047
H           -5.06777614617191      -16.41504871387933       22.20691359597338
H           -4.59344851499865      -14.84055717737369       22.85007443462887
H           -4.22614504185967      -16.31320656557625       23.75316533164071
C           -1.53168227787781      -17.17454796903407       23.80192307011994
H           -1.54563502632797      -18.26183669633404       23.72360771509876
H           -2.26752166911745      -16.87753632363974       24.54545297977747
H           -0.54907348094962      -16.86889017437707       24.15458053921365
O           -0.21393091873312      -13.21479691200960       19.59851313059012
H           -0.79886903645269      -12.50311862992703       19.31393025369799
H            0.46524135122441      -12.91190257126006       20.20539960404438
C            0.23646162367970      -18.42993515836562       17.88839657858656
H            0.12022673476249      -19.26765374037406       17.20796952962460
H            0.02673540225995      -18.73463412814922       18.90722491783253
H            1.23262948229033      -18.00720000333219       17.82726009625636
S           -1.00723537137809      -17.15392980517729       17.47012455461173
H           -0.40377600127302      -16.76776767630384       16.32893833675545
72
 energy: -105.973172081889 gnorm: 0.014122770409 xtb: 6.7.1 (edcfbbe)
Fe          -0.53413780044047      -15.13791369561878       18.66944809053899
N            1.20724845443914      -15.82490564631146       19.37932548899926
N            0.39466687672666      -14.46018818374817       17.02191765454843
N           -2.27355256240424      -14.43288450151346       17.98397147415844
N           -1.43182526573287      -15.73183424676914       20.35021990001486
C            1.41343496010430      -16.51311740443597       20.53089473843858
C            2.80371708432700      -16.87630438734479       20.66742282707886
C            3.43748008032601      -16.37924676924981       19.57166486947102
C            2.42293538309295      -15.72674547530724       18.77839638914326
C            1.72614535504607      -14.53099851192258       16.75123654145598
C            2.02109457393144      -13.95920955085746       15.46769818711423
C            0.82184475590771      -13.54098310972922       14.94467890865330
C           -0.17946461135685      -13.86521500402021       15.94577460067060
C           -2.50344242300351      -13.90755711642880       16.74847472226315
C           -3.90238906909987      -13.63014159796447       16.56519696808321
C           -4.52213110612464      -13.97819126588532       17.73773726271097
C           -3.47329757459560      -14.47130247207825       18.61019568983532
C           -2.72276525017285      -15.50396687768395       20.69811376220589
C           -2.98546243548985      -15.99426723846663       22.03467374916639