72
 energy: -105.980474254327 gnorm: 0.000126069899 xtb: 6.7.1 (edcfbbe)
Fe          -0.51487290769358      -15.16636244074147       18.75066300184247
N            1.23039187067253      -15.80675501590246       19.46182478221343
N            0.40071560651216      -14.56120571575690       17.05781722934324
N           -2.26057015025709      -14.43805345494068       18.05076900934834
N           -1.41645836870040      -15.69680420422985       20.44150838497904
C            1.44565644637465      -16.41566372748561       20.65408838770695
C            2.84651627758941      -16.74057051797698       20.81902702531639
C            3.47460594299965      -16.29900289650776       19.69803967615747
C            2.44647012592768      -15.71919970127539       18.86035408699033
C            1.73011864006176      -14.65180031869272       16.76985773673603
C            2.00352272810202      -14.14508077267085       15.45183543213351
C            0.79870529664841      -13.74696717981890       14.93295565405379
C           -0.18564958099006      -14.00321755688596       15.96369807993901
C           -2.48968841980368      -13.90389671360800       16.81684932577324
C           -3.87500461676890      -13.54474443274185       16.66548124999223
C           -4.48989754702222      -13.87774596762587       17.84398635554771
C           -3.45789469438187      -14.43696711400738       18.69150750694213
C           -2.72572160212983      -15.53106095721185       20.76007303135773
C           -3.00714624585686      -16.07776575233639       22.07111369424867
C           -1.83427201899322      -16.58596162283022       22.53030741452614
C           -0.85162634485256      -16.33456586542359       21.49716829635765
C            0.47909139301112      -16.68468267951299       21.60356704737789
H            0.79282018730341      -17.18594025546347       22.50592645547710
C            2.69202376330742      -15.18155999623177       17.61335814714003
H            3.71126053787826      -15.19124679649917       17.25999741552291
C           -1.53173406338866      -13.71784859732564       15.83553505537070
H           -1.86288355194538      -13.30676329925081       14.89492720844753
C           -3.68271177004143      -14.94125291534071       19.95859633446656
H           -4.68959519291427      -14.89248653786543       20.34231929058425
C            4.91763728772706      -16.36432676550586       19.33341394233916
H            5.49367919267283      -16.84098279234151       20.12243872003322
H            5.31764307475408      -15.36278519730795       19.17459494115053
H            5.05722597944184      -16.93451268396865       18.41444500666380
C            3.41507516024429      -17.41903731593029       22.01698840636392
H            2.94176191549721      -18.38921513350265       22.16924575792903
H            3.24861418772741      -16.81751678748708       22.91064655345221
H            4.48506701370114      -17.57377085226326       21.90268983894805
C            3.35641654734884      -14.03255773277102       14.84192673305704
H            3.66844602305043      -14.98313222911938       14.40583597565639
H            4.09382422181676      -13.74732241815133       15.59070109607822
H            3.34905596807712      -13.28066078506012       14.05548166789434
C            0.51005449729681      -13.15208576132408       13.64649765531983
H           -0.29456922742700      -12.42602421958846       13.63486032054463
C            1.13990001630455      -13.43373168389168       12.51094812073057
H            1.91330977784718      -14.17967267029754       12.45390081026865
H            0.88200383273071      -12.94224905935054       11.58775734002796
C           -4.46100787392161      -12.87378220719813       15.47314228925658
H           -4.69192127180373      -13.60035677455600       14.69247782326953
H           -3.76651895154379      -12.14416319712737       15.05909504829973
H           -5.38051322544655      -12.36147559016070       15.74848193970693
C           -5.87220159793597      -13.70823929604143       18.23537300972456
H           -6.03766074788899      -13.48832780683320       19.28370553500906
C           -6.91932843429533      -13.80953363539960       17.42393412819126
H           -6.81665646864902      -14.07438741290114       16.38613457479692
H           -7.92443821048398      -13.65846726120886       17.78087855210114
C           -4.34782414066573      -16.05487564580845       22.71980692612716
H           -5.07653386989758      -16.58890930689233       22.10979683634263
H           -4.69637687192408      -15.02938683851900       22.84405053007430
H           -4.31081968621320      -16.52454273144398       23.69943808954178
C           -1.53878612390301      -17.26795517366041       23.82110999037933
H           -1.15350063392848      -18.27208192724514       23.64369336176581
H           -2.43561142493310      -17.34778387468133       24.43022785574380
H           -0.78921059081414      -16.71184619125844       24.38435712229053
O           -0.15115498305773      -13.10368207437253       19.55257388880750
H           -1.05224566303016      -12.76555565104094       19.60718794338016
H            0.26434723963328      -12.68333917156677       18.79091900258657
C            0.49276319642956      -18.03196215434849       17.21643455332031
H            0.25448782237393      -18.82138505257013       16.51023989654962
H            0.95370478268791      -18.45023978060493       18.10511362319069
H            1.15132523151470      -17.29205984299900       16.77485959338843
S           -1.05566497007073      -17.22868485869703       17.76074031161410
H           -1.37496974168420      -16.75421944881056       16.55170237216386
