87
 energy: -124.641761925210 gnorm: 0.250345840829 xtb: 6.7.1 (edcfbbe)
Fe          31.49500000000000        8.72900000000000       36.71500000000000
N           32.08000000000000       10.57500000000000       37.23599999999999
N           31.15200000000000        9.40900000000000       34.93200000000000
N           31.02900000000000        6.82000000000000       36.30700000000000
N           31.96100000000000        7.99200000000000       38.64500000000000
C           32.62800000000000       10.91800000000000       38.44900000000000
C           33.01200000000000       12.30200000000000       38.40600000000000
C           32.67500000000000       12.78400000000000       37.20900000000000
C           32.07100000000000       11.71700000000000       36.45900000000000
C           31.17400000000000       10.70100000000000       34.48100000000000
C           30.80100000000000       10.72200000000000       33.10400000000000
C           30.53500000000000        9.46900000000000       32.73900000000000
C           30.74600000000000        8.62700000000000       33.89100000000000
C           30.62700000000000        6.45900000000000       35.03700000000000
C           30.31500000000000        5.05100000000000       35.02000000000000
C           30.47100000000000        4.58900000000000       36.27200000000000
C           30.93000000000000        5.70400000000000       37.07500000000000
C           31.66200000000000        6.72600000000000       39.12500000000000
C           31.91200000000000        6.66100000000000       40.53899999999999
C           32.40400000000000        8.05300000000000       40.91400000000000
C           32.40200000000000        8.80200000000000       39.67600000000000
C           32.79900000000000       10.10300000000000       39.55000000000000
H           33.30400000000000       10.54400000000000       40.40900000000000
C           31.56300000000000       11.80500000000000       35.20000000000000
H           31.46100000000000       12.79000000000000       34.74399999999999
C           30.57700000000000        7.26000000000000       33.93300000000000
H           30.38200000000000        6.76500000000000       32.98200000000000
C           31.22000000000000        5.65900000000000       38.39600000000000
H           31.09200000000000        4.70800000000000       38.91299999999999
C           32.85700000000000       14.21700000000000       36.69300000000000
H           33.62800000000000       14.73500000000000       37.30200000000000
H           31.89800000000000       14.77100000000000       36.77900000000000
H           33.18900000000000       14.19500000000000       35.63300000000000
C           33.69500000000000       13.04200000000000       39.56700000000000
H           34.77900000000000       12.80000000000000       39.57400000000000
H           33.24800000000000       12.72000000000000       40.53200000000000
H           33.57100000000000       14.13800000000000       39.43800000000000
C           30.72400000000000       12.03000000000000       32.32100000000000
H           31.74900000000000       12.43000000000000       32.16600000000000
H           30.12900000000000       12.77400000000000       32.89200000000000
H           30.25500000000000       11.84700000000000       31.33100000000000
C           30.11600000000000        8.94600000000000       31.36199999999999
H           29.26200000000000        8.26900000000000       31.22200000000000
C           30.85200000000000        9.35700000000000       30.29799999999999
H           31.70700000000000       10.03500000000000       30.43900000000000
H           30.60300000000000        9.01700000000000       29.28200000000000
C           29.81700000000000        4.30600000000000       33.76000000000000
H           30.68100000000000        4.06900000000000       33.10300000000000
H           29.10500000000000        4.94900000000000       33.20000000000000
H           29.32000000000000        3.35800000000000       34.05700000000000
C           30.30100000000000        3.14900000000000       36.83700000000000
H           29.93500000000000        2.99400000000000       37.86299999999999
C           30.59600000000000        2.06200000000000       36.09000000000000
H           30.96500000000000        2.17600000000000       35.06000000000000
H           30.47100000000000        1.05000000000000       36.50300000000000
C           31.69000000000000        5.42700000000000       41.44899999999999
H           32.31900000000000        4.58400000000000       41.09100000000000
H           30.62300000000000        5.12100000000000       41.41200000000000
H           31.97900000000000        5.67400000000000       42.49300000000000
C           32.81500000000000        8.55400000000000       42.30300000000000
H           33.92300000000000        8.54400000000000       42.38799999999999
H           32.38800000000000        7.88900000000000       43.08400000000000
H           32.45100000000000        9.59300000000000       42.45000000000000
C           26.02000000000000        9.55700000000000       36.97100000000000
H           25.73300000000000       10.62900000000000       36.91800000000000
H           25.42500000000000        9.06400000000000       37.76899999999999
H           25.81000000000000        9.07900000000000       35.99000000000000
N           28.04200000000000        9.95600000000000       38.43500000000000
H           27.52800000000000       10.41500000000000       39.16000000000000
C           27.48200000000000        9.44500000000000       37.28700000000000
C           29.34200000000000        9.74500000000000       38.42300000000000
H           30.02200000000000       10.04000000000000       39.22100000000000
N           29.65800000000000        9.12800000000000       37.29799999999999
C           28.50900000000000        8.93000000000000       36.57400000000000
H           28.53100000000000        8.43600000000000       35.61100000000000
C           34.81900000000000        9.58000000000000       33.88900000000000
H           35.41599999999999       10.48600000000000       33.64900000000000
H           33.86900000000000        9.61800000000000       33.31400000000000
H           35.40100000000000        8.68200000000000       33.59000000000000
C           34.51700000000000        9.53000000000000       35.39700000000000
H           33.94299999999999       10.44300000000000       35.65900000000000
H           35.48500000000000        9.55900000000000       35.93800000000000
S           33.58700000000000        8.08100000000000       35.94600000000000
C           34.56600000000000        7.54400000000000       37.34800000000000
H           34.62500000000000        8.33500000000000       38.12600000000000
H           35.60100000000000        7.30400000000000       37.02400000000000
H           34.11200000000000        6.64100000000000       37.81000000000000
87
 energy: -124.697862862708 gnorm: 0.103594862560 xtb: 6.7.1 (edcfbbe)
Fe          31.52613757070791        8.71094814877944       36.73063275874448
N           32.08493568403262       10.56874302773849       37.24617982082130
N           31.13302324759346        9.40041758141980       34.93730574161317
N           30.99641053528355        6.82057457743574       36.29434052697723
N           31.93156913662414        7.99824243527781       38.64941264155044
C           32.63861836951679       10.91147165562446       38.44943527630620
C           33.02070509254174       12.30677605512090       38.42556672606634
C           32.67056064295893       12.79883651229966       37.21629405649574
C           32.06690758907599       11.71215275442183       36.48402126248908
C           31.16405633759259       10.68798136856954       34.48166003606966
C           30.78910529911405       10.73152887790282       33.09477303402516
C           30.52524175397584        9.45683625273401       32.71745391002082
C           30.74155406624175        8.62800328225031       33.88619671048886
C           30.63176781215746        6.44109408444122       35.03223567640148
C           30.30732154902586        5.03072890165176       35.01200053577865
C           30.47422146218295        4.56349439538941       36.27858599012623
C           30.91732916371160        5.70425081994646       37.06925607701827
C           31.66595365075164        6.75144252591501       39.15072187200962
C           31.92808239184167        6.70272880806993       40.56277053070335
C           32.39467889180342        8.00615485217151       40.91143335981303
C           32.39064424452999        8.76724746529465       39.68394145251931
C           32.79764716375500       10.08854446281191       39.55382072824458
H           33.28731085295751       10.53601257563197       40.41239326050714
C           31.55931047273184       11.79482892083462       35.20870510795007
H           31.47997404523713       12.77304795866384       34.74587405287384
C           30.57719500243831        7.25551159112803       33.92260253515644
H           30.36607026107592        6.77093603524302       32.97761354486353
C           31.22104631488006        5.66728459953873       38.40879931564297
H           31.09849597384292        4.71975149468189       38.92104067390182
C           32.85596269331280       14.20489511368099       36.69694010640557
H           33.61481387476018       14.72723617213103       37.28823111327782
H           31.91426399139637       14.76186205062991       36.77205750548795
H           33.17959834679021       14.19477431181238       35.65086064890729
C           33.69266335150338       13.03637466583252       39.56216882035579
H           34.76411190142954       12.80356802516536       39.57706430556362
H           33.25647503386929       12.73166645418569       40.51845507684544
H           33.57208823584713       14.11742185722286       39.44505250468760
C           30.72162649364260       12.01954367012100       32.31860740701845
H           31.73051044600292       12.42356992300805       32.16621992783902
H           30.13633331333270       12.76052144538190       32.87484592562473
H           30.25863950057344       11.85165998341708       31.34224611720451
C           30.14131758930275        8.96287349966708       31.36552085919040
H           29.29405699861629        8.28807068325568       31.24785759790683
C           30.84443193891021        9.35687163775269       30.30470373615232
H           31.69443947560929       10.01806265144526       30.42655800852388
H           30.60397892796602        9.02244803898557       29.30034131912634
C           29.82113399332682        4.30860052244594       33.77399324062181
H           30.66701948368880        4.07374028802112       33.11605098383009
H           29.11701516892601        4.93513401795339       33.21542745238980
H           29.32433271420650        3.37540722687027       34.05404655375511
C           30.30783021992328        3.16838055301164       36.80939611945374
H           29.94875196890829        3.03367985233882       37.83103991539748
C           30.59182494396233        2.08244227728702       36.09021686020637
H           30.96788469383127        2.16763690509085       35.07839206150304
H           30.47176093594010        1.08100313407696       36.49679481613768
C           31.70367962470087        5.47248779309338       41.43390135288876
H           32.31044739568269        4.62139764614593       41.09179243973075
H           30.65320751095053        5.14808414856175       41.40801390031540
H           31.97480137218916        5.67823198709044       42.47402992187188
C           32.80531740666407        8.53009717353015       42.27212555155381
H           33.89964486568145        8.53836206829058       42.37919189057765
H           32.39442241684061        7.89848667522480       43.06665757670424
H           32.45318792343978        9.55837741329447       42.43476812821824
C           26.02259309258636        9.55944168621310       36.97498087071306
H           25.72798307889640       10.61407087129454       36.91841852220852
H           25.42548722612690        9.07135466123192       37.75373037347411
H           25.81390653548475        9.08633095507191       36.01159198620368
N           28.02533638653513        9.95705790886218       38.43503924880815
H           27.51145976602771       10.41700913935860       39.16593947723325
C           27.47653561765141        9.45122751291228       37.28485404205015
C           29.34565854915354        9.74055442382491       38.40948384129840
H           30.01952298332938       10.03025741565320       39.19858553050624
N           29.67759233324180        9.12550345011223       37.29300308297234
C           28.52264967343312        8.93426124704870       36.58160667794260
H           28.54059688917214        8.44178132682333       35.62680022323099
C           34.81550830454900        9.57310705029008       33.89405708548340
H           35.40238074765853       10.46743647913620       33.65394459136728
H           33.88252553508064        9.60947011291124       33.32320984277769
H           35.38757098997834        8.69133944247617       33.58910766191759
C           34.53489600351795        9.54659168648290       35.39647880874763
H           33.95232838211323       10.43520969333023       35.66534532588970
H           35.48320041775349        9.56126466948856       35.94448080844149
S           33.60531047228766        8.07528055371613       35.92971227096897
C           34.58322329961917        7.55074980624929       37.35070527430317
H           34.62128423881855        8.33183770513619       38.11745258426951
H           35.59835425306174        7.30124086352205       37.02406302539484
H           34.11464589401256        6.66207945184275       37.78777188334482
87
 energy: -124.712199305276 gnorm: 0.035029991998 xtb: 6.7.1 (edcfbbe)
Fe          31.53111624168284        8.69307406247652       36.74923921432759
N           32.10022267920188       10.55443348524340       37.25851605678614
N           31.12071703930347        9.38754794519793       34.93944194697922
N           30.97914272193679        6.81959855966972       36.27757860455917
N           31.91282701257010        8.00562910174772       38.64577622552004
C           32.65184968645066       10.90034831565371       38.45413948393688
C           33.02893811551935       12.30223251606689       38.44282545774597
C           32.66463737989434       12.79814459381437       37.22770822107212
C           32.06777576851767       11.69536091573502       36.50796599339994
C           31.15582483870203       10.67166312360734       34.48877013166517
C           30.78594200364815       10.73454380383156       33.09544946805688
C           30.52695986128586        9.44854663340796       32.70727991262579
C           30.73349221825421        8.62548020279875       33.88476756026856
C           30.62803029785912        6.42993754755494       35.02665829076382
C           30.30932862584200        5.01886529219909       35.00331399200527
C           30.48342222112353        4.55392024124145       36.28083681611245
C           30.90560776910455        5.71192537823691       37.06346980893907
C           31.65823391547634        6.77354027452218       39.15684579038619
C           31.94070269238978        6.73863537196932       40.57289279263097
C           32.38661691413529        7.96869325283113       40.90406437980334
C           32.37823278553459        8.74872653296612       39.68390105464135
C           32.79329711538858       10.07590304100564       39.56161168581772
H           33.26323046210743       10.52447933613472       40.42627711080745
C           31.56007067506169       11.77476980645561       35.22338977010909
H           31.50875894571657       12.74748491657566       34.75334549597419
C           30.56298240991261        7.25199201247337       33.91269771855038
H           30.33811079527083        6.77672291009419       32.96989275846543
C           31.21264730033807        5.68289198427756       38.41263375935962
H           31.10288620465616        4.73738865994846       38.92374869900911
C           32.84871594293110       14.18587379053073       36.70464458666486
H           33.60248951430859       14.71427853390430       37.28326398167354
H           31.91719585150705       14.74959262959414       36.76652805282283
H           33.16858238164357       14.17723941373631       35.66517590172279
C           33.69172276855475       13.02871880471852       39.56184028786394
H           34.75795876164506       12.80276907031676       39.58450187597546
H           33.26232771310492       12.73846931515321       40.51705047201035
H           33.57253783073525       14.10235829605869       39.44650717772002
C           30.71689787016914       12.00540458106134       32.31879241188939
H           31.71691517739929       12.41240760946588       32.16467005149330
H           30.13585437043448       12.74923224830173       32.86233490396923
H           30.25792450055064       11.84291891096118       31.34843729257686
C           30.16679119206457        8.97783734687028       31.37891975105876
H           29.32686013620575        8.29714336818866       31.28757403746529
C           30.84286073523676        9.35748325730136       30.30486954879960
H           31.69236262544784       10.01115985365059       30.40128830409934
H           30.59639335568302        9.02764530348277       29.31004389142260
C           29.82551634484130        4.30578240032871       33.78849793622818
H           30.65974967580181        4.07196439773926       33.12642405132852
H           29.12472443832507        4.92653591247159       33.23313261862280
H           29.32698566483505        3.37994975900561       34.05957590540343
C           30.32051689901960        3.20304785405604       36.78588047615640
H           29.96446390201195        3.09261439338573       37.80561728663682
C           30.59343560139759        2.10557499428342       36.08841677771217
H           30.97792885424391        2.15869625796753       35.08561480993492
H           30.46271797604714        1.11455115696144       36.49449337566264
C           31.72002418196889        5.52217992492737       41.42384643314193
H           32.31954130935323        4.67739664990141       41.07560299266409
H           30.67574626453209        5.20022985201521       41.39177094048409
H           31.98185914769829        5.70770832911996       42.46255126155384
C           32.79661970262413        8.50249017720119       42.24423604838272
H           33.88414048829535        8.52133658010709       42.35070519294065
H           32.39452235632604        7.88731403689762       43.04609443198935
H           32.44192150545713        9.52340463206608       42.39749510293414
C           26.02404200664684        9.56004578190146       36.97563832053032
H           25.72323196030688       10.60532752399421       36.91872451881240
H           25.42766768551529        9.07399263975650       37.74574866080098
H           25.81764495082329        9.08750336383559       36.02200296948014
N           28.01085341692843        9.96054018456662       38.43881924655517
H           27.49820895408639       10.42044924005828       39.17301189608535
C           27.47238713001555        9.45734881984266       37.28430551903829
C           29.34256157948963        9.73977482152377       38.40527631453471
H           30.01556604947088       10.02695591643669       39.18583842662552
N           29.68167889081531        9.12527035994623       37.29866866658426
C           28.52990904491356        8.93986455539079       36.59059454137095
H           28.54522386537170        8.44844950071981       35.63995631086358
C           34.81570091751929        9.57057272205626       33.90009008782777
H           35.39521435299893       10.45708293392107       33.64844726190449
H           33.88373813605917        9.59828533231020       33.34392441523330
H           35.37562927983213        8.69112432805651       33.59672196363807
C           34.55164083880857        9.56029444414420       35.39756258375849
H           33.96330303767709       10.43168765951752       35.67431947801163
H           35.48896049438417        9.56204285453229       35.94863283086185
S           33.61466276811435        8.07251320501011       35.92239369056537
C           34.60345031693056        7.55518117387183       37.35222717286523
H           34.62248999029405        8.33701716949668       38.10485415657698
H           35.60665348087404        7.30142310429586       37.02318352004236
H           34.11717111483884        6.67646290534593       37.76662107610898
87
 energy: -124.715222193364 gnorm: 0.012767064339 xtb: 6.7.1 (edcfbbe)
Fe          31.53162007062825        8.68749314736255       36.75474237555175
N           32.10571044783570       10.54437718527770       37.27483901232952
N           31.10968272596433        9.37859163969117       34.94185454237424
N           30.96020227423042        6.82898276007813       36.26539809134260
N           31.89431933787585        8.01787270601747       38.64380430354745
C           32.65839276717097       10.89620669365392       38.46593653136672
C           33.03099092139720       12.29649138257553       38.45498695603711
C           32.66041874203415       12.78705962552340       37.23993774987198
C           32.06947529297478       11.68043030765578       36.52278559447711
C           31.15255760608606       10.66285320186798       34.49813975663522
C           30.78971074954865       10.73362098931921       33.10339992346432
C           30.53625293115587        9.44950098710583       32.70843471189391
C           30.72493849240101        8.62282872292804       33.88340867848706
C           30.61596391263850        6.43294552026817       35.01483398409441
C           30.31167937032550        5.02244260701416       34.99173966126909
C           30.48908272623747        4.56544391979265       36.27054424561040
C           30.89317969618688        5.72550201906258       37.05331239161766
C           31.63889043776566        6.78251214919585       39.14472221514566
C           31.93061036314124        6.73908561733310       40.56054440043213
C           32.38819545046228        7.97567335314553       40.89854803818065
C           32.37183011598874        8.75683428154830       39.68034838832871
C           32.79271728137466       10.07609665466425       39.57307103672878
H           33.24380700006062       10.52160615187412       40.44915675355673
C           31.56629663249338       11.75854398085072       35.23672529328953
H           31.53983615831455       12.72867649713952       34.76060124917189
C           30.54506341693975        7.25244967607632       33.90072985844032
H           30.30247566375095        6.78331499454814       32.95813982033557
C           31.19728066260548        5.69591774095148       38.40230125709729
H           31.09596551859501        4.75051932472941       38.91496161965501
C           32.83885399088469       14.17006581136039       36.70866391966013
H           33.59160349874032       14.70472041222143       37.28379749610008
H           31.90554380976035       14.73262819628321       36.76283965532868
H           33.15905681394778       14.15077052137236       35.66886405391808
C           33.69486523314271       13.02520211309429       39.57188633111323
H           34.76155178274680       12.79818145177039       39.59855649362692
H           33.26517863074606       12.74274727959575       40.53045936996341
H           33.57685519970000       14.09876796535533       39.45030618193174
C           30.71408946618026       11.99793188188280       32.31967341482745
H           31.71228191788677       12.40778025482158       32.15939877872608
H           30.12848191439608       12.74401397975371       32.85611558748979
H           30.25413228912954       11.82354300120446       31.35066178659048
C           30.18323451245291        8.97898671201230       31.38197178781376
H           29.35296196066981        8.28501406827015       31.30817245318804
C           30.83921282384191        9.36092553334314       30.29329897298118
H           31.69185416208170       10.01555429173452       30.36886139665635
H           30.57752584768466        9.02365264179097       29.30520390976104
C           29.82527436015138        4.29668504478722       33.78788039508952
H           30.65643194737290        4.05831190765107       33.12296994597944
H           29.11987783848049        4.91429033438092       33.23418674378372
H           29.32863978899259        3.37237303975586       34.07043945408886
C           30.32928816315358        3.22275057012584       36.77961402998030
H           29.97786640532724        3.13153543659203       37.80200762570762
C           30.59334604720249        2.11622394104094       36.09073015051836
H           30.99572578525215        2.15314458574169       35.09232998214869
H           30.44966640706554        1.13270489502729       36.50689857841926
C           31.72503096445531        5.53652356721366       41.41795035341898
H           32.33325866804769        4.70392586273765       41.06232819876600
H           30.68007781371536        5.22429783863330       41.38598970434094
H           31.99317144081318        5.73739984099613       42.45144412453420
C           32.80101990728703        8.49560043617488       42.23516052223295
H           33.88819775574253        8.51212366183572       42.32862275849476
H           32.40062540863457        7.87246718950991       43.03119562169814
H           32.43599254404236        9.51170913109559       42.38140106520103
C           26.02554468265963        9.55823532564727       36.97552381467347
H           25.71680052340900       10.60180014305257       36.91687989892387
H           25.42862078231947        9.07011376600394       37.74471033824244
H           25.82231273329485        9.08253709954504       36.02230165107037
N           28.00764942764122        9.96490931654002       38.44294471437869
H           27.49267581678511       10.42308058141811       39.17688994414420
C           27.47420776767667        9.46113179647031       37.28604062046473
C           29.34070599125755        9.74351369113281       38.41115163201697
H           30.01443540143125       10.03149479860524       39.19034190953010
N           29.68351464481432        9.12877964123451       37.30666118147654
C           28.53427197406056        8.94384069931770       36.59639962160484
H           28.55038587152855        8.45195889337285       35.64636739823038
C           34.81478481849386        9.56711925394105       33.90567918419102
H           35.39042480486678       10.45051285770240       33.63390657258391
H           33.87249546446145        9.58630253368704       33.36495870636447
H           35.36803686568393        8.68218336315821       33.60354594929708
C           34.56928450516172        9.56880217491925       35.40498616390966
H           33.98155281330034       10.43780622172917       35.68967400778739
H           35.50833208951372        9.56315442862904       35.95395987379693
S           33.62830633997930        8.07561475078802       35.91903958692794
C           34.62245326154522        7.55988171114184       37.34806756047599
H           34.63493734245746        8.34592194527436       38.09647609035449
H           35.62585212871550        7.30512718228763       37.01959962814424
H           34.12849208302944        6.68275058798404       37.75506466699849
87
 energy: -124.716720176430 gnorm: 0.008652394138 xtb: 6.7.1 (edcfbbe)
Fe          31.52181749394918        8.68719212250818       36.76178833642140
N           32.11518784432313       10.53427285392371       37.29285209330762
N           31.10177390116399        9.36935411168639       34.94150396122565
N           30.94716323852620        6.84296637097848       36.24848460028915
N           31.89015643970151        8.03142768043062       38.62971381222984
C           32.66579290723337       10.89499343628750       38.48072701446393
C           33.03351461544983       12.29312281488355       38.46840406891018
C           32.65801271874204       12.77618980973489       37.25235151035238
C           32.07565158385067       11.66460069603301       36.53710702793248
C           31.15565759026079       10.65422638666847       34.50532784759205
C           30.80160490528765       10.73397223913984       33.10929451563975
C           30.55030143027457        9.45278604173545       32.70604996224852
C           30.71854013736475        8.62094703345400       33.87842262546324
C           30.60267348955978        6.43905626498095       34.99975516826755
C           30.31513575686692        5.02832235544773       34.97879190545449
C           30.49763467342099        4.58028763823235       36.25973309169897
C           30.88655295224678        5.74334692234591       37.03872507943764
C           31.62646756708532        6.79629948293243       39.12628113136189
C           31.92351260139258        6.74462676035073       40.54157660197822
C           32.38677360169487        7.97943412304785       40.88296459518401
C           32.36718229161388        8.76497876783295       39.67005833262384
C           32.79017695428835       10.07848333726056       39.58844958488917
H           33.22374887462466       10.51607637124788       40.47669508317373
C           31.57999219822497       11.74099938036544       35.24878197834214
H           31.57329415827618       12.70832946400568       34.76930343945369
C           30.52155738314166        7.25464846552006       33.88495564512205
H           30.26195914616651        6.79130325945195       32.94393403217649
C           31.18437520372375        5.71391410446083       38.38809450504625
H           31.08228218012069        4.77125387006802       38.90488280218405
C           32.82649196613740       14.15473078062216       36.71103443202482
H           33.57370208729553       14.70003224694617       37.28412701575473