78
 energy: -115.988582612089 gnorm: 0.229188475406 xtb: 6.7.1 (edcfbbe)
Fe         -12.55600000000000       -6.17900000000000       18.16100000000000
N          -14.18600000000000       -4.99700000000000       18.49500000000000
N          -11.68700000000000       -4.62500000000000       17.08500000000000
N          -10.93000000000000       -7.38400000000000       17.71600000000000
N          -13.40400000000000       -7.64900000000000       19.07800000000000
C          -15.33300000000000       -5.39200000000000       19.18500000000000
C          -16.21600000000000       -4.28700000000000       19.27000000000000
C          -15.65400000000000       -3.26500000000000       18.59300000000000
C          -14.37900000000000       -3.71500000000000       18.07500000000000
C          -12.23700000000000       -3.39400000000000       16.86700000000000
C          -11.35000000000000       -2.61300000000000       16.06300000000000
C          -10.24100000000000       -3.38900000000000       15.77900000000000
C          -10.51300000000000       -4.69600000000000       16.39900000000000
C           -9.86600000000000       -7.02300000000000       16.88300000000000
C           -9.10500000000000       -8.15100000000000       16.57700000000000
C           -9.71400000000000       -9.22100000000000       17.27000000000000
C          -10.85800000000000       -8.70400000000000       17.98100000000000
C          -12.96100000000000       -8.96500000000000       19.15300000000000
C          -13.90700000000000       -9.82600000000000       19.86300000000000
C          -14.96900000000000       -9.04500000000000       20.12700000000000
C          -14.66400000000000       -7.71700000000000       19.59500000000000
C          -15.54500000000000       -6.63500000000000       19.73200000000000
H          -16.45700000000000       -6.78900000000000       20.30900000000000
C          -13.49300000000000       -2.93800000000000       17.34000000000000
H          -13.78200000000000       -1.91200000000000       17.11200000000000
C           -9.63100000000000       -5.78800000000000       16.34100000000000
H           -8.68400000000000       -5.64000000000000       15.82300000000000
C          -11.73600000000000       -9.43400000000000       18.70300000000000
H          -11.46300000000000      -10.46000000000000       18.94800000000000
C          -16.18500000000000       -1.88000000000000       18.40500000000000
H          -17.16300000000000       -1.78400000000000       18.92299999999999
H          -16.33000000000000       -1.67700000000000       17.32200000000000
H          -15.47400000000000       -1.14400000000000       18.83800000000000
C          -17.54200000000000       -4.31100000000000       20.05300000000000
H          -17.33700000000000       -4.16000000000000       21.13400000000000
H          -18.04200000000000       -5.29300000000000       19.91500000000000
H          -18.20400000000000       -3.49400000000000       19.69500000000000
C          -11.59900000000000       -1.19500000000000       15.68500000000000
H          -12.19200000000000       -0.69700000000000       16.48200000000000
H          -12.17000000000000       -1.15500000000000       14.73300000000000
H          -10.63100000000000       -0.66200000000000       15.57000000000000
C           -9.08600000000000       -3.05900000000000       14.92300000000000
H           -8.12800000000000       -3.56500000000000       15.11200000000000
C           -9.11100000000000       -2.19900000000000       13.94100000000000
H          -10.03700000000000       -1.65700000000000       13.69700000000000
H           -8.20700000000000       -2.00500000000000       13.34500000000000
C           -7.79800000000000       -8.24500000000000       15.71300000000000
H           -7.42300000000000       -7.22200000000000       15.49500000000000
H           -8.01800000000000       -8.76000000000000       14.75400000000000
H           -7.01700000000000       -8.80300000000000       16.27300000000000
C           -9.35600000000000      -10.68900000000000       17.31700000000000
H           -9.87900000000000      -11.33800000000000       18.03400000000000
C           -8.45000000000000      -11.26000000000000       16.55100000000000
H           -7.89000000000000      -10.66800000000000       15.81200000000000
H           -8.24100000000000      -12.33600000000000       16.64000000000000
C          -13.73300000000000      -11.28500000000000       20.18000000000000
H          -12.82900000000000      -11.42200000000000       20.81100000000000
H          -13.60600000000000      -11.86100000000000       19.23900000000000
H          -14.62000000000000      -11.65700000000000       20.73600000000000
C          -16.26200000000000       -9.50700000000000       20.76200000000000
H          -16.12900000000000       -9.58200000000000       21.86200000000000
H          -16.54000000000000      -10.50600000000000       20.36400000000000
H          -17.06900000000000       -8.77400000000000       20.54600000000000
O          -13.41900000000000       -7.06100000000000       16.38500000000000
H          -12.71500000000000       -7.56000000000000       15.96900000000000
H          -14.25400000000000       -6.98400000000000       16.09000000000000
C           -9.35800000000000       -5.17300000000000       22.85100000000000
H           -9.79500000000000       -5.53300000000000       23.80700000000000
H           -8.98800000000000       -4.13500000000000       22.99300000000000
H           -8.51700000000000       -5.84000000000000       22.56600000000000
N          -11.59800000000000       -4.46000000000000       21.85600000000000
H          -11.84100000000000       -3.86000000000000       22.61900000000000
C          -10.41600000000000       -5.19500000000000       21.77200000000000
C          -12.33500000000000       -4.68600000000000       20.77199999999999
H          -13.32800000000000       -4.27400000000000       20.59900000000000
N          -11.64000000000000       -5.49200000000000       19.96200000000000
C          -10.44700000000000       -5.82900000000000       20.57500000000000
H           -9.73500000000000       -6.49000000000000       20.09700000000000
78
 energy: -116.032065255694 gnorm: 0.082255553720 xtb: 6.7.1 (edcfbbe)
Fe         -12.54632354700267       -6.18226839376932       18.17138110967561
N          -14.19146717066731       -5.02284306521082       18.47537130846904
N          -11.70077195394470       -4.64658670767372       17.07604582141447
N          -10.94114957820874       -7.37142125118027       17.68878356951046
N          -13.41900708582616       -7.67803615102361       19.06941302868841
C          -15.31437983499567       -5.38858457649374       19.18909334652133
C          -16.22079181772720       -4.28241231624503       19.27532058761571
C          -15.65251553623947       -3.25604215372795       18.59238838326831
C          -14.37469306927511       -3.72961801085221       18.08725915662119
C          -12.23625109057159       -3.40867716012676       16.87459208713976
C          -11.34707979222842       -2.61609282357466       16.06752232447286
C          -10.25132507798640       -3.39628088614152       15.77502112346824
C          -10.50471771418541       -4.68181470610935       16.42656477449312
C           -9.87572576971795       -7.03278942393281       16.87821421112994
C           -9.08625342947902       -8.18339920778163       16.59472699161004
C           -9.68711440410426       -9.24108398861146       17.27139901611868
C          -10.83757707907200       -8.69353807872461       17.95832883662370
C          -12.94210782450186       -8.96557375824689       19.18172986888478
C          -13.90282135465201       -9.82149972269034       19.85769921613898
C          -14.97899134249414       -9.04269390172393       20.12185020885989
C          -14.66341741569768       -7.71446911066028       19.62251800722557
C          -15.52935026015748       -6.63429200982135       19.74047403081291
H          -16.44848426423590       -6.78705726685889       20.29388087800742
C          -13.47978879181343       -2.96438018061333       17.35093944677759
H          -13.77263757050723       -1.94564019156928       17.11531513350862
C           -9.64152309590977       -5.77262283227365       16.35310079991955
H           -8.71019486721698       -5.63170158345348       15.81682517227322
C          -11.72720669518310       -9.42816225830319       18.71363208658676
H          -11.47387743092938      -10.45737927173687       18.93534728126672
C          -16.18524294685502       -1.87690012191604       18.40284927099850
H          -17.14893371591304       -1.77184641882107       18.91064550939195
H          -16.32617030073042       -1.66559590873018       17.33711617727556
H          -15.48922679391562       -1.14278302827616       18.82354665680172
C          -17.52631225758311       -4.30734885097452       20.04128352631963
H          -17.33856754562394       -4.16275606418243       21.11229424588783
H          -18.03241352790256       -5.26885991285239       19.91160841557696
H          -18.19387198230528       -3.51125025499940       19.69964326883816
C          -11.59668308186128       -1.19641280799831       15.69000268769831
H          -12.18193946565025       -0.69275214279078       16.46650471746207
H          -12.16021919203805       -1.14304704850553       14.74956329180759
H          -10.64908180393393       -0.66220485046706       15.56779745938777
C           -9.09941625225847       -3.06645432061686       14.93802053867905
H           -8.15791469233470       -3.58069565497361       15.13483755727095
C           -9.11468938137578       -2.19257598956482       13.94082611880169
H          -10.01947128622153       -1.66247654629066       13.67421874124992
H           -8.22602402638933       -1.99938869984815       13.34959933179127
C           -7.82524626036425       -8.23941363888639       15.73549417422569
H           -7.44367458486182       -7.23901806173491       15.50750601340364
H           -8.02370879795537       -8.74503096991599       14.78272873531891
H           -7.04017622795568       -8.78610502407946       16.26823641462907
C           -9.34410996775152      -10.67009430252216       17.31339740844719
H           -9.88184021067296      -11.29518411354492       18.02600705953926
C           -8.44031459364201      -11.26248820302116       16.54480183004517
H           -7.88639699358166      -10.70501415607437       15.80581266963723
H           -8.23782177874920      -12.32365360331328       16.63287254129354
C          -13.72541536970347      -11.27269205838164       20.17435419650309
H          -12.83915862435595      -11.42468632668692       20.80093392583449
H          -13.60353200086861      -11.85670029846314       19.25515223787058
H          -14.59663355119179      -11.65036702108365       20.71932613670126
C          -16.25879205914777       -9.49463291754556       20.76066637308886
H          -16.13667043116432       -9.57834664617558       21.84733431235125
H          -16.54159953965425      -10.47933043395844       20.37271393409348
H          -17.06777134659219       -8.79009262348772       20.55340339006628
O          -13.39952060921520       -7.04648065011950       16.37577710096803
H          -12.72519915141331       -7.57163530211815       15.94554202205759
H          -14.28362012315485       -6.99013188997185       16.06087121156075
C           -9.36749025640457       -5.16887283792574       22.84787915380016
H           -9.78552859591053       -5.52524943993900       23.79641128561882
H           -8.98784780938836       -4.15201222859465       22.99554375320568
H           -8.53782644240699       -5.82223509091146       22.56688549551849
N          -11.58337633002272       -4.46652519309068       21.87385139837810
H          -11.83210076747159       -3.86429713050711       22.63950832796617
C          -10.41016353146760       -5.18463059643136       21.77597659335026
C          -12.31167595182758       -4.69213359723670       20.76971198137021
H          -13.29209271193883       -4.28161091478986       20.59690143474882
N          -11.65847640479926       -5.50474990617618       19.95984193739778
C          -10.46952037219984       -5.81763793183285       20.57068381310036
H           -9.76397548674250       -6.47563728054069       20.09677781556795
78
 energy: -116.043523938955 gnorm: 0.024674956578 xtb: 6.7.1 (edcfbbe)
Fe         -12.53744976841944       -6.18288555035280       18.16531446399363
N          -14.18515024223114       -5.03823654983487       18.47976352957339
N          -11.69965816549308       -4.65642182634611       17.09265203129563
N          -10.95049899051433       -7.36482556519052       17.66993280943602
N          -13.41787117841387       -7.69422726560708       19.08284036394594
C          -15.29466672172414       -5.38822915251926       19.19060724609700
C          -16.21570101211044       -4.28033422714819       19.28069141614471
C          -15.64238935796432       -3.25190067685220       18.59546356050624
C          -14.36829793269936       -3.74453575763636       18.09867989854458
C          -12.23568632715420       -3.42224220575184       16.88789173949937
C          -11.35120546405030       -2.61858360825641       16.07667805360890
C          -10.26353402320719       -3.40097309599194       15.78108978244574
C          -10.50453599682901       -4.67608297462599       16.44484650681834
C           -9.88813610245799       -7.03675676566086       16.87513278114301
C           -9.07572787406804       -8.19671514140851       16.60931393565807
C           -9.66904012882519       -9.24825535388560       17.27463585136059
C          -10.82783111725987       -8.68677154571123       17.94352705721525
C          -12.92939977030331       -8.96285731314069       19.20171249766778
C          -13.89197370253138       -9.81533127107195       19.86503548563536
C          -14.97794265250809       -9.04065530062512       20.12823454613970
C          -14.65779463851708       -7.71499661919486       19.64384216990892
C          -15.51716788510515       -6.63705011979170       19.73983529810040
H          -16.44185982896938       -6.78597638033336       20.27760188444011
C          -13.47078933788947       -2.99076971770805       17.35896696268989
H          -13.76619986647149       -1.97809773983507       17.11951671618750
C           -9.65689945187067       -5.76590640856828       16.35670148270659
H           -8.73858292480119       -5.62892881973114       15.80347707398839
C          -11.72353998682279       -9.42132552228580       18.71288053370224
H          -11.48389403981605      -10.45349387680673       18.91712618437684
C          -16.17673153253003       -1.87490340782114       18.39798492122880
H          -17.13455092358947       -1.76499129332541       18.89865554211490
H          -16.31515026002640       -1.65914395414586       17.34028184065263
H          -15.49109050550996       -1.13644034061717       18.80975382467072
C          -17.50861014161780       -4.30550430901302       20.02885816462451
H          -17.33207361812672       -4.16642244470967       21.09650709088966
H          -18.01845468103987       -5.25652599779878       19.89712496021432
H          -18.17463138056218       -3.51630661671190       19.69229626671867
C          -11.60006792462651       -1.19847081003151       15.69692823513628
H          -12.17896175682287       -0.69079182368036       16.46418831199684
H          -12.15746098283383       -1.13872812002876       14.76100641441848
H          -10.65869709752740       -0.66997661072864       15.56898233961912
C           -9.11876366840963       -3.07597996801775       14.95460896129334
H           -8.19300566065222       -3.59977826846674       15.16481421306148
C           -9.12185425527649       -2.20132578437528       13.94783805730842
H          -10.01003302819930       -1.67420414623278       13.65582038855150
H           -8.23559303233030       -2.00270832223840       13.37023859626197
C           -7.84765508226097       -8.23006044214949       15.76226040729670
H           -7.47998016652243       -7.23323565985643       15.53630670818439
H           -8.04371029563187       -8.72968565811804       14.81239955067181
H           -7.05549553927813       -8.77368971466539       16.27506678539742
C           -9.32694923359019      -10.64655726466810       17.31144027678820
H           -9.87442695650221      -11.24931831790863       18.02611318928852
C           -8.43177543667359      -11.26379694770308       16.54066609548284
H           -7.87441971820584      -10.74195052023685       15.79088615041315
H           -8.24303551952397      -12.31864567555027       16.63300690206706
C          -13.71489813577446      -11.26402290314717       20.17109112751039
H          -12.83489707859563      -11.42171128897257       20.79208549232240
H          -13.59558640259029      -11.84672011165564       19.25861754532659
H          -14.57981124874601      -11.64378696323008       20.70850707741063
C          -16.25510754926442       -9.48411372724644       20.76065069065157
H          -16.14016057881800       -9.56793037016437       21.84136508387932
H          -16.54179592800437      -10.46223282256236       20.37860538812100
H          -17.06417707299102       -8.79193521272253       20.55528194025890
O          -13.38241225209084       -6.98845061106600       16.32314614605679
H          -12.76813574267963       -7.60416249824505       15.90297631436489
H          -14.30152297306565       -7.01751102247575       16.03847257965876
C           -9.37236701106404       -5.16831794736036       22.83647501229198
H           -9.78478987336291       -5.52058494123329       23.78082052781300
H           -8.98833319032047       -4.16127911639807       22.99018463994844
H           -8.54850795866166       -5.81529588277129       22.55778223326864
N          -11.57445883462165       -4.47186047131760       21.88537275289401
H          -11.82441169837542       -3.87044614339208       22.65387399799121
C          -10.40894050094135       -5.18183674904143       21.77206340341915
C          -12.30306458038150       -4.69807891172503       20.77252007354122
H          -13.27143589797225       -4.27880027106231       20.60055510030240
N          -11.67798838144229       -5.50821039827085       19.95527780406512
C          -10.49471461605656       -5.81693700619061       20.56334820576244
H           -9.79087960728100       -6.47026585907700       20.09090080595955
78
 energy: -116.045031286077 gnorm: 0.063675114567 xtb: 6.7.1 (edcfbbe)
Fe         -12.53477166416490       -6.17887629692285       18.15309868205662
N          -14.18058070672648       -5.04515810027548       18.48020328309979
N          -11.69910409582613       -4.65879506751494       17.11050167577895
N          -10.95888884556695       -7.36267107638001       17.66550670636697
N          -13.41956797976840       -7.70133346002457       19.08026613755889
C          -15.28256784172136       -5.38925435450098       19.19290621727685
C          -16.20742009489247       -4.28000227317975       19.28233040770748
C          -15.63211877399248       -3.25143304573946       18.59782570101104
C          -14.36244119015372       -3.75013676452189       18.10620051503816
C          -12.23558159343985       -3.42697555719638       16.90323258472767
C          -11.35946375092106       -2.62006693633417       16.08579421361850
C          -10.27585398450225       -3.40380971900685       15.78828139765552
C          -10.50889795511019       -4.67452741541040       16.45771238587098
C           -9.89665943944872       -7.03237288479025       16.87981101892110
C           -9.07405626252779       -8.19088021595423       16.62045342242249
C           -9.66315786384435       -9.24418345314812       17.28002255792871
C          -10.82864679918389       -8.68439675150914       17.94151180198200
C          -12.92532925171047       -8.96148017399085       19.20984000012182
C          -13.88465782262884       -9.81324251072614       19.87328818977225
C          -14.97352772157047       -9.04039877001265       20.13654036151998
C          -14.65474084246432       -7.71657104349882       19.65253011027838
C          -15.51077739669455       -6.63791771064979       19.74205331618708
H          -16.44132803196893       -6.78490577954434       20.26842656971762
C          -13.46613007066364       -2.99870372138429       17.36974658429819
H          -13.76561833500639       -1.99085895199095       17.12380276227782
C           -9.66693101221067       -5.76297248081316       16.35943321930179
H           -8.76095576805111       -5.62934977029775       15.78579575928967
C          -11.72367419944907       -9.41952856027928       18.71006839054234
H          -11.49202027771502      -10.45597986343406       18.89957180336172
C          -16.16323188981066       -1.87368145222761       18.39190641019075
H          -17.12253843741025       -1.75874659257778       18.88760562535554
H          -16.29708828625316       -1.66026830122433       17.33328493325996
H          -15.48013397135766       -1.13081544126485       18.79981220843336
C          -17.49939106751173       -4.30512967000353       20.02054614183926
H          -17.33022017767122       -4.17230127070882       21.09001880345802
H          -18.01180499950890       -5.25307841908170       19.87960335480715
H          -18.15995343933028       -3.51231289793559       19.68277210476939
C          -11.60575421574395       -1.20002791494446       15.70586192060931
H          -12.17953110315726       -0.68716812609280       16.47263161896714
H          -12.16334469800742       -1.13775146654638       14.77124635128243
H          -10.66173840023391       -0.67802955012811       15.57268015502866
C           -9.13123804194353       -3.08344438939570       14.96935742609367
H           -8.21485279722036       -3.61417624486008       15.19662169427943
C           -9.12205928460864       -2.21283017806190       13.95854853205496
H          -10.00582108272714       -1.69268386240810       13.63860944454614
H           -8.23017004132613       -2.01648308367125       13.39038262869616
C           -7.85342597044371       -8.21183179528075       15.77744536499579
H           -7.49696955240930       -7.21045776743443       15.55952383691428
H           -8.05224150711689       -8.70785145899804       14.82651404824651
H           -7.05697344968902       -8.75724860648704       16.28129686302528
C           -9.31223383395517      -10.63554451819683       17.31410609738682
H           -9.85697612500836      -11.22575716535841       18.03899744387115
C           -8.42632292117226      -11.26860515804398       16.54222238558244
H           -7.86703184674886      -10.77326721189235       15.77352084611791
H           -8.24930956962234      -12.32410565564725       16.64478468233010
C          -13.70272735751405      -11.26167013811488       20.17097995738802
H          -12.82088395332199      -11.42092962862441       20.78795728816380
H          -13.58296096662209      -11.83823759172273       19.25508940398025
H          -14.56601412897431      -11.64593230745906       20.70562415855209
C          -16.25229102219525       -9.47662615375952       20.76688132087311
H          -16.14273574205692       -9.55557754866228       21.84806764566555
H          -16.54243606233666      -10.45432468323989       20.38787068732641
H          -17.05984798758282       -8.78440624631568       20.55597345483614
O          -13.35998670504582       -6.88073030506475       16.22799153817205
H          -12.82877352492967       -7.66389434089826       15.88658433807508
H          -14.32655606364912       -7.07058099222331       16.03767754868624
C           -9.37131048515353       -5.17476977190249       22.82133049450823
H           -9.78265037547186       -5.52541168552247       23.76647198524623
H           -8.98611672225492       -4.16842016404989       22.97641549237122
H           -8.54836760411458       -5.82056367366417       22.54054857456128
N          -11.57177523076183       -4.47464160997287       21.88865640747439
H          -11.81774861340610       -3.87737308224359       22.66189402693091
C          -10.41040739369515       -5.18649445388227       21.76218109805161
C          -12.30742554428927       -4.69612695494225       20.77733355565251
H          -13.26936960145554       -4.26364364651149       20.60966631410816
N          -11.69672205892001       -5.50983934573942       19.95450192239877
C          -10.51139943503101       -5.82125160375143       20.55294968297668
H           -9.81066713930376       -6.47517316422907       20.07869640617012
78
 energy: -116.047713313181 gnorm: 0.018096590143 xtb: 6.7.1 (edcfbbe)
Fe         -12.53767252054636       -6.17832079960828       18.14211691780275
N          -14.17769301839836       -5.04836378454935       18.48032319119504
N          -11.70037267951292       -4.66047236516200       17.12391888682686
N          -10.96603854225404       -7.36372423467550       17.66579471094262
N          -13.42151017525306       -7.70471163723718       19.07770456297621
C          -15.27705346861612       -5.39147085563840       19.19495689903943
C          -16.20056853129310       -4.28086194571414       19.28332260023221
C          -15.62501985140256       -3.25293347418185       18.59995944755262
C          -14.35932180191504       -3.75283661787596       18.10981685284095
C          -12.23693847834901       -3.42987945847189       16.91384062662483
C          -11.36755158703071       -2.62258899679066       16.09212426989868
C          -10.28589100034842       -3.40713713471480       15.79326411950797
C          -10.51529007099982       -4.67663155462095       16.46452800691476
C           -9.90315234200694       -7.02833958817991       16.88406292744205
C           -9.07630436143106       -8.18194098157938       16.62746202605645
C           -9.66260065986925       -9.23842825388690       17.28483339361729
C          -10.83304758428942       -8.68518491888029       17.94361075170284
C          -12.92503353647475       -8.96224813789427       19.21381216383516
C          -13.87996037733982       -9.81345793012544       19.88279752943468
C          -14.96889795680326       -9.04126788916547       20.14651202382360
C          -14.65375510269759       -7.71900463112888       19.65718283047356
C          -15.50883096187244       -6.63889534474624       19.74493443753310
H          -16.44236068716200       -6.78386701067383       20.26648011538811
C          -13.46555282806206       -3.00047707524451       17.37675464213294
H          -13.76734291507085       -1.99524768282514       17.12650430588674
C           -9.67436147830469       -5.76386664222488       16.35940267770634
H           -8.77703776619553       -5.63159403345143       15.77121541400138
C          -11.72513611979915       -9.42100126723667       18.70768587634498
H          -11.49642531535876      -10.46004003944185       18.88884666940825
C          -16.15199990043805       -1.87376232290455       18.38687574251428
H          -17.11427135520993       -1.75389443071646       18.87918686611798
H          -16.28185740442025       -1.66451487175817       17.32513581371827
H          -15.46834803526450       -1.12788666573689       18.79285110013413
C          -17.49549938584102       -4.30535413006381       20.01636849286595
H          -17.33033512465623       -4.17774986998065       21.08834483240995
H          -18.00981058762516       -5.25259005182721       19.86618569010044
H          -18.15028482142038       -3.50657819051805       19.67621085200341
C          -11.61126317633278       -1.20276518838677       15.71203902154944
H          -12.18100961250993       -0.68524281963145       16.48084355628960
H          -12.17123229643930       -1.13943781889920       14.77784962430308
H          -10.66320411858997       -0.68556398397059       15.57450432150426
C           -9.13962658147114       -3.09051173644542       14.97774883375670
H           -8.22745891075729       -3.62320747841402       15.22005333922028
C           -9.12216237672746       -2.22570036942794       13.96461609607899
H          -10.00460036388966       -1.70877657411962       13.62722302136498
H           -8.22308059974935       -2.03025413821545       13.40459178322738
C           -7.85338610850403       -8.19750540210557       15.78600379433919
H           -7.50447669871494       -7.19064813243746       15.57603090088464
H           -8.05598613841564       -8.69071912399473       14.83318110181573
H           -7.05539328544065       -8.74532962622993       16.28720840386030
C           -9.30141574744821      -10.63084206431969       17.31875351409963
H           -9.83950972521682      -11.21462464623104       18.05428595791002
C           -8.42353324785823      -11.27221528811721       16.54531605614964
H           -7.86355779085596      -10.79317485145724       15.76173121861143
H           -8.25272404572633      -12.32957775401057       16.65836612337761
C          -13.69241380268751      -11.26219956430435       20.17437519653872
H          -12.80676497181438      -11.42079933114511       20.78844596175323
H          -13.57139059946610      -11.83256526829738       19.25302281127892
H          -14.55524173199239      -11.65103410378876       20.70850126858327
C          -16.25026843709816       -9.47215276496191       20.77615601098350
H          -16.14421167340083       -9.54511711124574       21.85932915379454
H          -16.54265571398109      -10.45141193148149       20.39936023554303
H          -17.05591444166308       -8.77648008308818       20.55856754950699
O          -13.38958075087078       -6.93253362035972       16.23614571573922
H          -12.83938064260872       -7.59811364208255       15.82555546205102
H          -14.31620916924593       -7.04777166997428       15.99394416252792
C           -9.36811143195937       -5.18025816228522       22.80710278360245