78
 energy: -116.058077277945 gnorm: 0.000031800711 xtb: 6.7.1 (edcfbbe)
Fe         -12.66817631647558       -6.19554814875519       18.03619449920474
N          -14.23978101870946       -5.04661531405753       18.45755443455932
N          -11.78769733494259       -4.67649970598775       17.09157964370629
N          -11.11682981734026       -7.39311606844516       17.56483341165931
N          -13.57197408510220       -7.75125527894775       18.94095278208378
C          -15.37075370023637       -5.40682287871587       19.11841665532751
C          -16.28240967230701       -4.28754916251573       19.22405788274542
C          -15.66955545890029       -3.23956705611534       18.61352233243581
C          -14.39356803904777       -3.73440494915658       18.14163919305649
C          -12.26346877973778       -3.40947882761956       16.97108525890312
C          -11.34468615135920       -2.58275374806516       16.22912109057389
C          -10.29052293719870       -3.38760176515947       15.89037090217688
C          -10.58926654564773       -4.69188149389581       16.45350619327731
C          -10.00081085053482       -7.04142551633336       16.86604517127508
C           -9.09718275253313       -8.15551154810645       16.74954894922584
C           -9.68987884976065       -9.20252346946085       17.40635061679873
C          -10.94705752752005       -8.69440034366653       17.91728359793893
C          -13.07088022352674       -9.00576715919313       19.10864333415286
C          -13.99450814647435       -9.82842302946535       19.85610456948983
C          -15.06569162201053       -9.03896393535887       20.14147004659200
C          -14.78145934184226       -7.74509910760620       19.56502299051740
C          -15.63361630158065       -6.65899256968528       19.64290824647703
H          -16.57292795113713       -6.79893582486916       20.15597590459623
C          -13.47718577640187       -2.96031563594890       17.46044489845549
H          -13.73782803451369       -1.92918904086050       17.27698777959648
C           -9.75774354081827       -5.78799353115828       16.33019420686915
H           -8.84206888114990       -5.65878963592540       15.77369351390573
C          -11.85512640297077       -9.45585576916641       18.62977431803186
H          -11.59545237817297      -10.48373700503413       18.83067302889297
C          -16.15207457739488       -1.84254600720328       18.42391744555206
H          -17.13662213049626       -1.70925479618215       18.86564078095672
H          -16.21676759072744       -1.60218197733411       17.36269871065243
H          -15.46761458498750       -1.13336280965530       18.89014567963670
C          -17.61748657731751       -4.34938196790114       19.88414509439306
H          -17.51656932810195       -4.62630030928662       20.93414699208123
H          -18.25028003445773       -5.09241209635843       19.39843773957328
H          -18.11937323524814       -3.38644919154410       19.83167332066180
C          -11.52023394806995       -1.12779650810148       15.96737766744685
H          -11.96456759658937       -0.63224447642078       16.82928991703999
H          -12.17395921125529       -0.96373748064294       15.10928870851104
H          -10.55688227424298       -0.66693405931215       15.75824598664387
C           -9.08736695509094       -3.06030620201477       15.15788351021985
H           -8.19224604865398       -3.58972979837321       15.46433795883167
C           -9.00571334430306       -2.18724606025865       14.15901152735633
H           -9.86881523961053       -1.66907273681537       13.77958418209345
H           -8.07016041109834       -1.98167387373839       13.66559190225565
C           -7.75905904278498       -8.11018778849150       16.09828315202180
H           -7.26387745053469       -7.16135539286768       16.29952902143024
H           -7.84810492186774       -8.22034367736829       15.01615941775003
H           -7.13301362436551       -8.91628784792667       16.47537306794022
C           -9.20285136513121      -10.54946439004073       17.60629263786674
H           -9.47812548391920      -11.01183173455316       18.54727822950958
C           -8.47180360866018      -11.24163881179826       16.73859756443965
H           -8.20964770310377      -10.85180237754745       15.77050305382804
H           -8.13059044746118      -12.23953184468010       16.95912745479550
C          -13.75342387613874      -11.25605565508614       20.20913626292204
H          -12.85453893646409      -11.35339524339914       20.81849973677097
H          -13.61740010494049      -11.85668175983210       19.30938779552543
H          -14.59194273717142      -11.66341612392877       20.76867773011217
C          -16.31206821598205       -9.37101353769165       20.88843663473560
H          -16.41743128221080       -8.73110913175672       21.76508448463462
H          -16.30001830560685      -10.40620158999628       21.22043191833677
H          -17.18833877885072       -9.22369146245871       20.25668940651670
O          -13.64031861944024       -6.93411664083843       16.09524020201978
H          -12.89274689034789       -7.38227660011542       15.68483497572159
H          -14.21692213228517       -7.61676756553037       16.45536403770164
C           -9.01808218603918       -4.74941262839907       21.99289477351623
H           -8.76736166393690       -5.49930882190259       22.74309007532642
H           -9.15062768914311       -3.79281068218220       22.49817747384669
H           -8.18974870398313       -4.66339503615453       21.29676591938572
N          -11.45558417462396       -5.31301792799770       21.87950193564135
H          -11.62931908531449       -5.21003636606696       22.86580714053384
C          -10.24892578352961       -5.13188745508718       21.25585480555620
C          -12.35911758146367       -5.65383394174794       20.93302519405023
H          -13.39085813308052       -5.85767967268042       21.13277446784362
N          -11.79813005647790       -5.69953025130209       19.74903735610512
C          -10.48582160700157       -5.37652207709724       19.93361578616209
H           -9.80435828249961       -5.34274809300177       19.10915571104264
