78
 energy: -115.953758675605 gnorm: 0.329152940577 xtb: 6.7.1 (edcfbbe)
Fe         -11.52500000000000       -2.57400000000000       -1.33200000000000
N          -12.07500000000000       -0.82400000000000       -2.24700000000000
N           -9.73400000000000       -2.55100000000000       -2.39000000000000
N          -10.85900000000000       -4.15500000000000       -0.22500000000000
N          -13.19400000000000       -2.46700000000000       -0.11500000000000
C          -13.23600000000000       -0.17000000000000       -2.07100000000000
C          -13.26700000000000        0.95300000000000       -2.87400000000000
C          -12.04500000000000        1.00700000000000       -3.54700000000000
C          -11.40700000000000       -0.17200000000000       -3.21300000000000
C           -9.39400000000000       -1.69100000000000       -3.34800000000000
C           -8.24300000000000       -2.11900000000000       -4.01700000000000
C           -7.94500000000000       -3.36500000000000       -3.47200000000000
C           -8.84200000000000       -3.53900000000000       -2.41900000000000
C           -9.74600000000000       -4.86700000000000       -0.45300000000000
C           -9.55600000000000       -5.85700000000000        0.50700000000000
C          -10.67400000000000       -5.75900000000000        1.34800000000000
C          -11.46700000000000       -4.74900000000000        0.82300000000000
C          -13.54100000000000       -3.32500000000000        0.84800000000000
C          -14.84300000000000       -3.11900000000000        1.27900000000000
C          -15.32800000000000       -2.07000000000000        0.50600000000000
C          -14.24100000000000       -1.64200000000000       -0.27400000000000
C          -14.27600000000000       -0.59100000000000       -1.20000000000000
H          -15.20900000000000       -0.03200000000000       -1.25900000000000
C          -10.14900000000000       -0.55200000000000       -3.69800000000000
H           -9.69900000000000        0.11300000000000       -4.43500000000000
C           -8.85100000000000       -4.60300000000000       -1.51400000000000
H           -8.05400000000000       -5.33400000000000       -1.64500000000000
C          -12.70700000000000       -4.33500000000000        1.32000000000000
H          -13.06900000000000       -4.87500000000000        2.19400000000000
C          -11.61800000000000        2.02200000000000       -4.60100000000000
H          -12.36100000000000        2.84700000000000       -4.64400000000000
H          -11.56700000000000        1.53100000000000       -5.59600000000000
H          -10.62500000000000        2.44400000000000       -4.33500000000000
C          -14.34200000000000        2.05000000000000       -2.81100000000000
H          -14.73300000000000        2.12700000000000       -1.77400000000000
H          -15.18000000000000        1.79400000000000       -3.49400000000000
H          -13.89900000000000        3.02600000000000       -3.10300000000000
C           -7.58300000000000       -1.36000000000000       -5.15400000000000
H           -7.60200000000000       -0.27100000000000       -4.93300000000000
H           -8.13600000000000       -1.54500000000000       -6.10000000000000
H           -6.52700000000000       -1.68800000000000       -5.26100000000000
C           -6.84100000000000       -4.19100000000000       -3.74500000000000
H           -6.38000000000000       -4.74400000000000       -2.91400000000000
C           -6.25300000000000       -4.37700000000000       -5.04600000000000
H           -6.66300000000000       -3.85500000000000       -5.92400000000000
H           -5.38700000000000       -5.04300000000000       -5.17700000000000
C           -8.35900000000000       -6.81700000000000        0.59000000000000
H           -7.42500000000000       -6.26700000000000        0.34800000000000
H           -8.49000000000000       -7.64400000000000       -0.14000000000000
H           -8.27800000000000       -7.22800000000000        1.61900000000000
C          -10.94100000000000       -6.43000000000000        2.55600000000000
H          -11.42900000000000       -5.86800000000000        3.36600000000000
C          -10.62700000000000       -7.82000000000000        2.83800000000000
H          -10.13900000000000       -8.44700000000000        2.07800000000000
H          -10.87400000000000       -8.26100000000000        3.81500000000000
C          -15.63200000000000       -3.99600000000000        2.23300000000000
H          -15.20900000000000       -3.90500000000000        3.25600000000000
H          -15.56600000000000       -5.05700000000000        1.90900000000000
H          -16.69400000000000       -3.67000000000000        2.25200000000000
C          -16.72000000000000       -1.41900000000000        0.60600000000000
H          -17.08700000000000       -1.48700000000000        1.65300000000000
H          -17.43200000000000       -1.95100000000000       -0.06000000000000
H          -16.65600000000000       -0.34900000000000        0.31500000000000
O          -10.56000000000000       -1.35300000000000       -0.14100000000000
H          -10.73800000000000       -0.47100000000000       -0.46700000000000
H          -10.05700000000000       -1.56200000000000        0.56200000000000
C          -14.73200000000000       -6.55000000000000       -3.75400000000000
H          -14.23300000000000       -7.48700000000000       -4.08100000000000
H          -15.42500000000000       -6.21200000000000       -4.55400000000000
H          -15.30000000000000       -6.75100000000000       -2.82000000000000
N          -12.81800000000000       -5.01900000000000       -4.44300000000000
H          -12.76800000000000       -5.35600000000000       -5.38300000000000
C          -13.69300000000000       -5.49000000000000       -3.50000000000000
C          -12.06200000000000       -4.06400000000000       -3.92300000000000
H          -11.29500000000000       -3.51500000000000       -4.46800000000000
N          -12.40700000000000       -3.91000000000000       -2.65600000000000
C          -13.43300000000000       -4.78000000000000       -2.37200000000000
H          -13.88500000000000       -4.81300000000000       -1.38900000000000
78
 energy: -116.024518581429 gnorm: 0.130295133625 xtb: 6.7.1 (edcfbbe)
Fe         -11.52514810955187       -2.58742469942666       -1.32902775313635
N          -12.08671376690843       -0.86168907395385       -2.25798724947625
N           -9.76776994753908       -2.56274404747573       -2.39396381991724
N          -10.86640464797064       -4.15529939001928       -0.24372087492396
N          -13.18153171015176       -2.46582907033784       -0.12977758796257
C          -13.24519186687431       -0.18219742749878       -2.06405887230386
C          -13.26800863463572        0.98314093775715       -2.86787584206811
C          -12.07264375114092        1.01427711770503       -3.56423830178181
C          -11.38858936762415       -0.17052656010720       -3.19611720266020
C           -9.41350687228701       -1.68415746134766       -3.35453486788781
C           -8.24437171525948       -2.12094797867374       -4.03547640227403
C           -7.91790905667942       -3.35039162922663       -3.47960037057319
C           -8.85419600426814       -3.55330640039947       -2.41613761707811
C           -9.73274341324957       -4.85953428003379       -0.46564705932540
C           -9.55334806609513       -5.87493677666375        0.50825371677300
C          -10.65565478644009       -5.78149844965779        1.35557868935260
C          -11.45990830562873       -4.72585749135905        0.83547608629976
C          -13.53102040004279       -3.33738614035555        0.84016119238954
C          -14.86612020672710       -3.11902104764730        1.27162098876057
C          -15.33771952886947       -2.06002154900988        0.52497968067739
C          -14.24741620914185       -1.64863925959149       -0.30593725100377
C          -14.27773806186068       -0.59061020639988       -1.20761972551916
H          -15.20058348858792       -0.02604211330675       -1.25824378176104
C          -10.14292137898338       -0.54348169759603       -3.69231596621155
H           -9.70496237579597        0.10925418621681       -4.43773523530845
C           -8.84484491435839       -4.61204769309368       -1.51850868969713
H           -8.04898530243234       -5.33520354221986       -1.64270823580166
C          -12.70066890324884       -4.33789584980771        1.33045994889537
H          -13.07138185320304       -4.88498537788270        2.18955920592851
C          -11.62693483962339        2.01833167030890       -4.59331069398946
H          -12.34926918290170        2.83845267734016       -4.64792741539982
H          -11.56522511854203        1.54202910694432       -5.57987788265369
H          -10.64260143500493        2.43461818139999       -4.34083241153445
C          -14.33603784702797        2.04792980880314       -2.81327286156431
H          -14.72707799044629        2.12930576263230       -1.79266111012460
H          -15.16726592907167        1.80130629565758       -3.48556921146700
H          -13.91235824779661        3.01448263011871       -3.10245828926713
C           -7.58264785696443       -1.36580236223215       -5.14927575033567
H           -7.60061896047242       -0.28930043812903       -4.93851155085187
H           -8.11993377533082       -1.54137387767647       -6.09050107595572
H           -6.54093290411425       -1.68447894483753       -5.26192055762115
C           -6.80991224174743       -4.19485830820768       -3.78070215303492
H           -6.37871356790003       -4.75116887732188       -2.94716527510916
C           -6.26014282999862       -4.36948996481725       -5.01515681310712
H           -6.66241263690480       -3.87190658855278       -5.89209101774798
H           -5.40884914126032       -5.02624972366788       -5.16172773696470
C           -8.37003861806954       -6.80785124020206        0.59260223395298
H           -7.44215742062486       -6.27444650998818        0.35209594402343
H           -8.48845375062874       -7.63115964777531       -0.12393394678303
H           -8.28275769879004       -7.22129474881804        1.60303036992973
C          -10.92901717612095       -6.47910848504534        2.57069313608140
H          -11.42541620004614       -5.90482902840579        3.35682521762096
C          -10.62884700240677       -7.78479794181862        2.83429845677097
H          -10.15974117166258       -8.41993919690604        2.09023714809750
H          -10.86962654210652       -8.23452532589996        3.79239717463972
C          -15.63028686859117       -3.98655072665921        2.23063035721299
H          -15.21560798576969       -3.90779741343851        3.24382602845351
H          -15.57146994583092       -5.03711899290895        1.91719977697367
H          -16.68008396009544       -3.67925258020899        2.25528827465869
C          -16.70705920425368       -1.42377025496010        0.60980235779508
H          -17.08308985460463       -1.48434078068021        1.63720165735926
H          -17.41706978083952       -1.94027879292867       -0.04956149926078
H          -16.65913746320810       -0.36895341685718        0.31942355486195
O          -10.57170258343278       -1.33608816208964       -0.12763610817688
H          -10.72093783200340       -0.44552596641249       -0.44688049978856
H          -10.02527030857325       -1.54551473319574        0.60606898275183
C          -14.72439715366393       -6.54841759740540       -3.75761194058286
H          -14.24327489187391       -7.47968974787355       -4.07970592013525
H          -15.41832656516692       -6.22231324149350       -4.54218931171228
H          -15.28769622058677       -6.74426115850257       -2.83965541769759
N          -12.82903819677546       -5.02984661296640       -4.45098657126188
H          -12.77426023405513       -5.36726343037274       -5.39544850174102
C          -13.69904310605848       -5.49268740019013       -3.50099014136511
C          -12.06996905523095       -4.06521684975694       -3.91090740867977
H          -11.30789893802605       -3.52314562081184       -4.44818662311099
N          -12.41189899877266       -3.88887684248781       -2.65189633912494
C          -13.42311452454387       -4.77033848827582       -2.37703234720200
H          -13.87137359692320       -4.80762314101358       -1.40089309023714
78
 energy: -116.042040559256 gnorm: 0.045011335515 xtb: 6.7.1 (edcfbbe)
Fe         -11.52228109568693       -2.59174713308289       -1.32506043084327
N          -12.10075343244824       -0.89597725295984       -2.27312041491731
N           -9.80910275943305       -2.58745104445057       -2.41124544769499
N          -10.86878331459653       -4.14947243495964       -0.25910118241817
N          -13.17989550360502       -2.48447728197486       -0.16155666864374
C          -13.25446341078830       -0.20158762304174       -2.06580715645637
C          -13.26595028250736        0.99942252187757       -2.86063294016763
C          -12.09587560126459        1.01301985068073       -3.56922954542386
C          -11.38330505952514       -0.17852939231002       -3.18764853016820
C           -9.44247060326387       -1.69165709542905       -3.36630863210803
C           -8.25115834929932       -2.12730076212904       -4.04296039324920
C           -7.90396691428093       -3.33464143541336       -3.47796844210951
C           -8.87359318048276       -3.57016243825552       -2.42150054386094
C           -9.72707358604547       -4.85375274669358       -0.48264664273713
C           -9.55581206055227       -5.88064996172934        0.50861758173858
C          -10.63825973385790       -5.78363775558839        1.35555143804467
C          -11.45203333555896       -4.70278057443444        0.83840271700143
C          -13.52309064969976       -3.35468339909215        0.82241996628257
C          -14.87768831482533       -3.12027088339228        1.25840693731253
C          -15.33840458520166       -2.05849150833022        0.53374300146207
C          -14.25130753873749       -1.66526414746013       -0.34055324446804
C          -14.28090934869822       -0.59620503672826       -1.21887758718456
H          -15.19085706061933       -0.01361485420770       -1.25040995331586
C          -10.14894729246470       -0.54499139668652       -3.69545217609947
H           -9.71424753973409        0.10627296887668       -4.43929801225451
C           -8.84155886858982       -4.62498614854152       -1.52842984551631
H           -8.03566082401430       -5.33526770025581       -1.63854330137145
C          -12.69557761210763       -4.34330873038088        1.33320447047679
H          -13.07241701094421       -4.89832544781161        2.18104071808008
C          -11.63660919126321        2.01054572971876       -4.58099067859479
H          -12.34268889444817        2.83349120256680       -4.64792335024627
H          -11.56501795935337        1.54574185001549       -5.56507564406395
H          -10.65610955227905        2.41776741176081       -4.33231602799526
C          -14.32968674867297        2.04350885190000       -2.81488921147625
H          -14.72572408602265        2.13192944581278       -1.80541172051177
H          -15.15598370298968        1.80044136066712       -3.48302159683154
H          -13.92466600213852        3.00875049059574       -3.10728179355228
C           -7.58403466602942       -1.37310574956979       -5.14094281166813
H           -7.60026165682335       -0.30323651626722       -4.93793822897149
H           -8.10378878312341       -1.54040436431761       -6.08619478953702
H           -6.54998123747830       -1.68698206609592       -5.25474896079610
C           -6.79312292716394       -4.19702886587227       -3.79952611388191
H           -6.38101775218951       -4.75176126265269       -2.96213369716471
C           -6.26573819506580       -4.36567329763967       -4.99511317478093
H           -6.65886107221532       -3.88168149402175       -5.87292716229538
H           -5.42194398929901       -5.01637883857848       -5.15441398611070
C           -8.38398218648307       -6.79822103097446        0.59446002635788
H           -7.46035135602807       -6.27307521543359        0.35388814833838
H           -8.49106696278701       -7.62409572636626       -0.11114763532064
H           -8.29253869249882       -7.21129262712765        1.59568229764771
C          -10.92350533625437       -6.50710261838016        2.57416367972209
H          -11.42435214645140       -5.92286742254634        3.34262620408516
C          -10.63458266131675       -7.76400831821038        2.82538753928144
H          -10.17151375240572       -8.40640991073569        2.09592738224285
H          -10.86162282682579       -8.21881629668008        3.77607604963976
C          -15.62533792025843       -3.97458423570124        2.22779826535611
H          -15.21113430135393       -3.90026120754621        3.23338875281660
H          -15.57271709094072       -5.02027475887807        1.92298910756241
H          -16.67055179727520       -3.68122838103355        2.26141507445860
C          -16.68963902007308       -1.42736116188436        0.61183207969643
H          -17.07646465540182       -1.48390556298845        1.62734596708385
H          -17.39708190663179       -1.93569829073669       -0.04588814570833
H          -16.65340038034399       -0.38081253065462        0.32050285591452
O          -10.59532747466150       -1.30885082373677       -0.07068817823539
H          -10.66768531091250       -0.40511214464069       -0.39672240966116
H           -9.98572109401792       -1.51026752580206        0.64053271068775
C          -14.71611001625941       -6.54569244228682       -3.75729102880433
H          -14.24400495800847       -7.47286636014756       -4.07870938779190
H          -15.41028423203571       -6.22825574766030       -4.53484601811360
H          -15.27797902738449       -6.73903826727932       -2.84942055954858
N          -12.83710096711931       -5.03409149708767       -4.45528246946118
H          -12.77770126842007       -5.37281476912134       -5.40177835156892
C          -13.70265838348810       -5.49002985922423       -3.49759227686385
C          -12.07976954950206       -4.06081798093356       -3.90154181858184
H          -11.31920663737669       -3.52576106299636       -4.43192173926109
N          -12.41262086616457       -3.87174735738059       -2.64721000097684
C          -13.41764772373447       -4.75563761910500       -2.38013069975608
H          -13.86265821219583       -4.80040629083749       -1.40803221214960
78
 energy: -116.047401282015 gnorm: 0.040435724739 xtb: 6.7.1 (edcfbbe)
Fe         -11.51868843075917       -2.58273288039421       -1.31748124042143
N          -12.11353736986850       -0.91364499957112       -2.28458314975987
N           -9.83597845913507       -2.60615894222903       -2.42582452684556
N          -10.86830721846843       -4.14401008605764       -0.26928519163757
N          -13.18766157468832       -2.50795973950021       -0.19318155803569
C          -13.26256701281783       -0.21457448296835       -2.07076025951433
C          -13.26923630982453        1.00119755626170       -2.85705566392301
C          -12.10919949575964        1.00682760509214       -3.57001723744331
C          -11.39388250195574       -0.19192870758740       -3.19288753978287
C           -9.46846801488455       -1.70769077748471       -3.38149369550208
C           -8.26397354611189       -2.13676182749724       -4.04886897070771
C           -7.90560352152157       -3.33058195211038       -3.47535492027132
C           -8.88982223538507       -3.58177146487211       -2.42990710520186
C           -9.72731246445213       -4.85176370409369       -0.49411013861926
C           -9.55847423205932       -5.87812086775775        0.50630622484297
C          -10.63117666198189       -5.77385970240823        1.35268137978973
C          -11.44891932396794       -4.69147440256243        0.83131754068845
C          -13.52500869441315       -3.37333477735316        0.79849343356424
C          -14.88127269039873       -3.12802220337601        1.24350290041584
C          -15.33771248122480       -2.06547885412376        0.52714934725050
C          -14.25637827876886       -1.68389665323781       -0.36575739152674
C          -14.28761825749231       -0.60372603082098       -1.22742642765199
H          -15.18573096267783       -0.00128552880356       -1.23728255884404
C          -10.16489600364059       -0.55641604816504       -3.70777042623295
H           -9.72852221962984        0.09757144905325       -4.44741717051347
C           -8.84093896975486       -4.63357230708679       -1.53649934979624
H           -8.02374726598088       -5.33307133777923       -1.63549816085564
C          -12.69653239692399       -4.35091328152474        1.32320756870904
H          -13.07420846397829       -4.91196418645844        2.16599992543555
C          -11.64048284551247        2.00477950173019       -4.57226757458369
H          -12.33862494368576        2.83360357925915       -4.64348840723557
H          -11.56382187109119        1.54437442170421       -5.55707752594569
H          -10.65951880324381        2.40134929403665       -4.31460328125614
C          -14.33376349017958        2.04059341189377       -2.81771236338840
H          -14.73277438321241        2.13706889402647       -1.81116682441149
H          -15.15675444873757        1.79086481507140       -3.48623859157579
H          -13.93644374057646        3.00650795482971       -3.11822226171049
C           -7.58496614610559       -1.37885007245327       -5.13520232822729
H           -7.60195966329617       -0.31043776957524       -4.93099486311770
H           -8.08899920086630       -1.54220121347929       -6.08923559302324
H           -6.55081706211468       -1.69362160624793       -5.23748243749681
C           -6.78778945611240       -4.19338779964156       -3.79294293346773
H           -6.38267489490804       -4.75038673212978       -2.95580326300526
C           -6.26048490699056       -4.36536147509836       -4.99634344931191
H           -6.65628635791529       -3.88787543337529       -5.87458063112663
H           -5.42198468682191       -5.02032208912038       -5.15882682375586
C           -8.38996693149850       -6.79274115786633        0.59629036763671
H           -7.46831236815187       -6.26767432369351        0.35387392863946
H           -8.49468510253616       -7.62350076189377       -0.10257814969641
H           -8.30112928727549       -7.19990277574406        1.59913802385829
C          -10.92246458906521       -6.50232923101964        2.57230688820272
H          -11.43127880555932       -5.92011470809315        3.33366250953515
C          -10.62633929668767       -7.76964933414259        2.82291360958112
H          -10.17488519865724       -8.41489737821092        2.09060432610896
H          -10.85940879885424       -8.22806533509087        3.76904599050479
C          -15.61955789750037       -3.96727614209220        2.22990209006713
H          -15.19450620135048       -3.88489990623271        3.22906631125094
H          -15.57359960989907       -5.01464622721852        1.93391584272906
H          -16.66408946412106       -3.67456231068879        2.27348135572288
C          -16.68040865735630       -1.42754212726042        0.60894992579183
H          -17.07000006909211       -1.48420501015327        1.62260369580006
H          -17.38645060289221       -1.93238433026756       -0.05135722224077
H          -16.64181036939236       -0.38209983275209        0.31865866011519
O          -10.64075922248696       -1.27603883400310        0.02207651692233
H          -10.58117767736917       -0.36753695063509       -0.35222227361917
H           -9.92845305185391       -1.47976548865598        0.66234408616725
C          -14.70812750247636       -6.54115425814218       -3.75354134281533
H          -14.23373907295537       -7.46608155198519       -4.07548263322708
H          -15.40371083589249       -6.22956584429437       -4.53121991923121
H          -15.27037396002948       -6.73652763093437       -2.84798869287673
N          -12.84006086177217       -5.02655712022327       -4.45460820639870
H          -12.77893800986254       -5.36813918092024       -5.40069428306256
C          -13.70218810508513       -5.48078332401092       -3.49241051129354
C          -12.08504334194095       -4.04947400790410       -3.89829351689776
H          -11.32300928929254       -3.51775364194087       -4.42592546963695
N          -12.41413201080493       -3.85510064835099       -2.64520089060755
C          -13.41586405956865       -4.74141972581986       -2.37846372264382
H          -13.85900778882354       -4.79118944577234       -1.40685377935618
78
 energy: -116.050286548897 gnorm: 0.034806342689 xtb: 6.7.1 (edcfbbe)
Fe         -11.51866758819363       -2.57802140091036       -1.31785974058394
N          -12.11877863928965       -0.92096326663065       -2.28458883145575
N           -9.84760255565028       -2.61281886549452       -2.42650635482494
N          -10.86469332490917       -4.13744666279758       -0.27458892096397
N          -13.19282428976473       -2.53001611222166       -0.22155798079942
C          -13.26487409507349       -0.22218358118563       -2.06928840178265
C          -13.27270880297199        0.99800036440374       -2.85300925417784
C          -12.11799765988250        0.99933272793732       -3.56869839776030
C          -11.40553975557079       -0.20526789320557       -3.19741916227770
C           -9.48846587494430       -1.72236140205157       -3.39337446270876
C           -8.27939917488297       -2.14792219965923       -4.05617341831141
C           -7.91432971297881       -3.33206431464328       -3.47432717620022
C           -8.89869365543602       -3.58599105194607       -2.43209452554474
C           -9.72637307120353       -4.84948613593184       -0.50035862897928
C           -9.56046617793312       -5.87615311139165        0.50266837703946
C          -10.62911078898936       -5.76655927871478        1.34794069550047
C          -11.44628214016882       -4.68466878864169        0.82258528930277
C          -13.52717699803066       -3.39190913843688        0.77333778952397
C          -14.88051832732393       -3.13868359121281        1.22770450202586
C          -15.33392564744410       -2.07528436009330        0.51543074096156
C          -14.25700060841408       -1.70042652707027       -0.38370017068792
C          -14.29092994279399       -0.60895461324461       -1.22939591606138
H          -15.17982494538368        0.00673877142395       -1.22247913007903
C          -10.18226757061203       -0.57075107219050       -3.72248641324703
H           -9.74806294452802        0.08122270821326       -4.46537901547465
C           -8.83718072748488       -4.63720059117159       -1.53931899279537
H           -8.01562059517889       -5.33139202582757       -1.63571982862192
C          -12.69929801737747       -4.36117386462099        1.30856659024520
H          -13.07675010559709       -4.92774325131949        2.14721357830219
C          -11.63917882119452        1.99851066489019       -4.56451528749992
H          -12.33182134519023        2.83330787758678       -4.63672666859789
H          -11.55820559854849        1.54126711235068       -5.55119650646019
H          -10.65728803932370        2.38553599448076       -4.29338371852475
C          -14.34245928259918        2.03431803485498       -2.82191580731462
H          -14.74260883738508        2.14249431292582       -1.81596799261340
H          -15.16367867626270        1.77131994808427       -3.48947304652626
H          -13.95014870023966        3.00013269489776       -3.13536453551489
C           -7.58689973229748       -1.38524236289788       -5.13160781619827
H           -7.60439016590592       -0.31707078687013       -4.92207567755918
H           -8.07523070476886       -1.54441403634866       -6.09561329239220
H           -6.55079399982971       -1.70407527250411       -5.21626008768399
C           -6.79389806511927       -4.19546019150744       -3.78537883015451
H           -6.38188257144672       -4.74591388749386       -2.94932448122689
C           -6.26480206472160       -4.37142389951756       -4.99531706929882
H           -6.65800629618593       -3.88886415962329       -5.87175556481831
H           -5.42240107967620       -5.02309271464845       -5.15300025716232
C           -8.39136361888717       -6.79003814046954        0.59757188404123
H           -7.47029032699507       -6.26381510630852        0.35312619959277
H           -8.49583253885803       -7.62650159500033       -0.09534563600265
H           -8.30733639126374       -7.18875392629603        1.60550888207937
C          -10.92757860767527       -6.49741725955132        2.56406104821213
H          -11.43585942617032       -5.92142939686069        3.32721977413005
C          -10.63100977530417       -7.77299002738033        2.81054460079518
H          -10.16775443055550       -8.41065709836514        2.07994324160075
H          -10.85957704683431       -8.22788346707196        3.75966531226887
C          -15.60965610698801       -3.96147850656856        2.23509247398266
H          -15.16794370031457       -3.86352219370607        3.22667343014997
H          -15.57256466285779       -5.01401808622313        1.95305053149547
H          -16.65342530251358       -3.66283453581977        2.29082926826938
C          -16.67198706229212       -1.42683931390267        0.60185798981666
H          -17.06232120289682       -1.48669529034620        1.61597599116805
H          -17.37973740765687       -1.92470313475638       -0.06328528005780
H          -16.62481087486001       -0.37934909017875        0.31758559049766
O          -10.64549444479006       -1.24181617850894        0.08270534352905
H          -10.55425343565027       -0.34482916370655       -0.27572078820362
H           -9.88620608643665       -1.43895923142473        0.67480660722794
C          -14.70182658901006       -6.53683146229917       -3.74881580954478