72
 energy: -105.893083615458 gnorm: 0.285697894656 xtb: 6.7.1 (edcfbbe)
Fe          36.71899999999999       13.08400000000000       86.94600000000000
N           34.82099999999999       13.14300000000000       87.42400000000001
N           37.12400000000000       12.42700000000000       88.74400000000000
N           38.61199999999999       13.07000000000000       86.47799999999999
N           36.33200000000000       13.89700000000000       85.22400000000000
C           33.75200000000000       13.59500000000000       86.65899999999999
C           32.47300000000000       13.49400000000000       87.38199999999999
C           32.79300000000000       13.04600000000000       88.61600000000000
C           34.24000000000000       12.82200000000000       88.63199999999999
C           36.27799999999999       12.21800000000000       89.79399999999998
C           36.96600000000000       11.63000000000000       90.93200000000000
C           38.26100000000000       11.50700000000000       90.58400000000000
C           38.34100000000000       11.97900000000000       89.22699999999999
C           39.65000000000000       12.51700000000000       87.19399999999999
C           40.91900000000000       12.59800000000000       86.48000000000000
C           40.65600000000000       13.26100000000000       85.33300000000000
C           39.22800000000000       13.54200000000000       85.34199999999998
C           37.21300000000000       14.25200000000000       84.22499999999999
C           36.53700000000000       14.81800000000000       83.07700000000000
C           35.23300000000000       14.80300000000000       83.36699999999999
C           35.10000000000000       14.27800000000000       84.71999999999998
C           33.88700000000000       14.18600000000000       85.41200000000001
H           32.99600000000000       14.60300000000000       84.94300000000000
C           34.92400000000000       12.43500000000000       89.73800000000000
H           34.35299999999999       12.28500000000000       90.65400000000000
C           39.51400000000000       12.00400000000000       88.48399999999999
H           40.40700000000000       11.58600000000000       88.94999999999999
C           38.57100000000000       14.12100000000000       84.30300000000000
H           39.16700000000000       14.50700000000000       83.47600000000000
C           31.80600000000000       12.83700000000000       89.75699999999999
H           31.54600000000000       11.75900000000000       89.83000000000000
H           30.88000000000000       13.41900000000000       89.56300000000000
H           32.26500000000000       13.16200000000000       90.71500000000000
C           31.05800000000000       13.68000000000000       86.86799999999999
H           31.07200000000000       13.74400000000000       85.75900000000000
H           30.63000000000000       14.62000000000000       87.27800000000001
H           30.43200000000000       12.81400000000000       87.17100000000001
C           36.32599999999999       11.23600000000000       92.26899999999999
H           35.97500000000000       10.18300000000000       92.21599999999999
H           35.45700000000000       11.89600000000000       92.47799999999999
H           37.07500000000000       11.32600000000000       93.08499999999998
C           39.35500000000000       11.13000000000000       91.35799999999999
H           40.26900000000000       11.71900000000000       91.21200000000000
C           39.49099999999999       10.07600000000000       92.33700000000000
H           38.64100000000000        9.41700000000000       92.56999999999999
H           40.44599999999999        9.92000000000000       92.86099999999999
C           42.22900000000000       12.03200000000000       86.97599999999998
H           42.08200000000000       10.97600000000000       87.28799999999998
H           42.58500000000000       12.62000000000000       87.84899999999999
H           42.98399999999999       12.06500000000000       86.16200000000001
C           41.54299999999999       13.72400000000000       84.35700000000000
H           41.57200000000000       14.80500000000000       84.15800000000000
C           42.44400000000000       12.91100000000000       83.56699999999999
H           42.47700000000000       11.82000000000000       83.70399999999999
H           43.10500000000000       13.37500000000000       82.82100000000000
C           37.14099999999999       15.32900000000000       81.76599999999999
H           38.07000000000000       14.76300000000000       81.54000000000001
H           37.39099999999999       16.40700000000000       81.86299999999999
H           36.41700000000000       15.18000000000000       80.93600000000001
C           34.11799999999999       15.19200000000000       82.39300000000000
H           34.15200000000000       14.52600000000000       81.50500000000000
H           34.25899999999999       16.24300000000000       82.06100000000001
H           33.13000000000000       15.08000000000000       82.88900000000000
O           36.73000000000000       15.02000000000000       87.72900000000000
H           35.83300000000000       15.19400000000000       88.01400000000000
H           37.41900000000000       15.57800000000000       87.79099999999998
C           35.17200000000000       10.34100000000000       86.06399999999998
H           35.21500000000000        9.24200000000000       85.90999999999998
H           34.66499999999999       10.79100000000000       85.18399999999998
H           34.56300000000000       10.53600000000000       86.97299999999998
S           36.84199999999999       11.04900000000000       86.26000000000001
H           37.05800000000000       10.50800000000000       87.45000000000000
72
 energy: -105.949457816624 gnorm: 0.108082245855 xtb: 6.7.1 (edcfbbe)
Fe          36.72195045655507       13.09004931548851       86.94769166591533
N           34.79364133298389       13.14877512383674       87.42478368899243
N           37.13570888421183       12.41618433011417       88.76389267917537
N           38.63973402997488       13.08337670520132       86.48803653412307
N           36.31839749709273       13.90313825855468       85.19853451914786
C           33.74608053672582       13.59624087256469       86.65267245457417
C           32.47972451183526       13.48439369926998       87.37176162120582
C           32.79187375749028       13.04540065832994       88.61652376756845
C           34.22835871962791       12.83865249757516       88.63654711002245
C           36.27623890975759       12.20210258639967       89.80249147975934
C           36.95264763064834       11.62596962356179       90.94120260195365
C           38.26537982046012       11.49708025862665       90.58900435847910
C           38.35552476534394       11.99016354993183       89.22870691041484
C           39.65550123849171       12.51195751026986       87.20494992070579
C           40.91451676602297       12.58256597843683       86.49066122267837
C           40.66069455086932       13.25377720575164       85.33332615327372
C           39.23666582021738       13.54533320000280       85.34901182190778
C           37.20804428407420       14.26262220310386       84.21921958932489
C           36.53384289460161       14.81852371460577       83.06990563645493
C           35.21393300892606       14.80348322580900       83.36523798037901
C           35.08858259934927       14.26848368161795       84.70934535679838
C           33.88831283904693       14.16953304903189       85.40287973319219
H           33.00262274186572       14.58744436298899       84.94000912812656
C           34.91706641107386       12.43295205002315       89.74990669362116
H           34.34850233759432       12.27413190811743       90.65634970393057
C           39.52076595940251       12.00122008231966       88.48518811192376
H           40.40737241620655       11.58861126418570       88.94960689387845
C           38.57427598955881       14.12782854126367       84.29904126610026
H           39.16758466436119       14.49854369269271       83.47194990419791
C           31.82234453945872       12.83260384447980       89.74896554976063
H           31.55249468278035       11.77242285566319       89.83324488101179
H           30.90617284483181       13.40535301447440       89.56761396326154
H           32.25588101700642       13.15584163770941       90.70142351776903
C           31.08019280314277       13.68648358756958       86.85908880534706
H           31.06925468487895       13.74744916931161       85.76733844181430
H           30.63879142309131       14.60509339246058       87.26706409617984
H           30.45140976616254       12.83947840444042       87.16238669676639
C           36.32493727878864       11.24352153301245       92.25605481661783
H           35.97795830531741       10.20329434899588       92.21628786973187
H           35.46889877362516       11.88698879185766       92.48045838517366
H           37.06218809132955       11.32690161884896       93.06311654478917
C           39.38038483780961       11.10030407181312       91.38154340025639
H           40.28185775115811       11.69083972495144       91.22046265066527
C           39.47938076999597       10.11110958726319       92.31274506788760
H           38.65485265882882        9.44500097015899       92.54465000513825
H           40.41430527778520        9.94074041218950       92.83686654901310
C           42.21837894595153       12.03152790057374       86.97794261799858
H           42.08908897197857       10.98850930581012       87.28710190462664
H           42.58219288340765       12.60772242294391       87.83746339931452
H           42.96820804000502       12.07118436465562       86.18044592890725
C           41.57164933492646       13.70512151576582       84.32432492232844
H           41.58068001498043       14.77968469278481       84.13117195169312
C           42.42226526812657       12.93482822608750       83.59568488902087
H           42.45780616662161       11.85646000546011       83.71256347719380
H           43.07883625454262       13.37493759550021       82.85273569566444
C           37.14422814951841       15.31658876884251       81.78272797552020
H           38.06141190139801       14.77011486966315       81.54229870203076
H           37.38602242680229       16.38397286378742       81.86283051623708
H           36.43426685609079       15.18344638038704       80.95875597563806
C           34.11542818829884       15.19104092585952       82.40980249533857
H           34.14960257674429       14.53930164923957       81.52723704155942
H           34.25070994937229       16.22507375526251       82.07209200789670
H           33.13441064734133       15.08700059316844       82.87842306723461
O           36.72399118351694       15.02230946617281       87.73397612312765
H           35.83481216346838       15.22202356873656       88.02544951997578
H           37.44096790846512       15.62401689864738       87.80468806380109
C           35.14848719480072       10.32210870524371       86.06602476765607
H           35.21468232689892        9.24206852420703       85.90921047575128
H           34.67614205405438       10.79008820165970       85.19793736503644
H           34.56427957640838       10.53860936440296       86.96417292746756
S           36.81981623958767       11.01754179789147       86.23120046896310
H           37.05378389633116       10.48575152237011       87.43298797100823
72
 energy: -105.961889047143 gnorm: 0.042099477293 xtb: 6.7.1 (edcfbbe)
Fe          36.72638613908411       13.10216043469726       86.95238521583211
N           34.77273592088751       13.15994179813946       87.43251709491651
N           37.14502132396456       12.40410262550548       88.78147416186411
N           38.66412293904804       13.09997503572858       86.49763540095897
N           36.30967501982322       13.91206724865988       85.17807645041840
C           33.74070700621559       13.58981600466129       86.64892832274300
C           32.48500269358438       13.47751822698029       87.36278325164963
C           32.79226665230060       13.04720333073913       88.61714518880380
C           34.22106025638991       12.85172965828770       88.64328663312055
C           36.27571769162425       12.18503782235537       89.80822007428080
C           36.95034346602149       11.62287926033112       90.94774937280305
C           38.26947019618473       11.50015923052968       90.59294438213531
C           38.36432622110831       11.99681372769886       89.23252564300660
C           39.66331483520428       12.51771623407460       87.21614948475202
C           40.91377711321191       12.57787139982914       86.49839436963093
C           40.66190807930681       13.25825127309763       85.34169168285439
C           39.24277414471810       13.55297572295743       85.35705672725412
C           37.20431435988473       14.27063034454513       84.21483185844950
C           36.52828650278042       14.81722719642223       83.06463873396959
C           35.19976614340990       14.79991217898902       83.36070824321426
C           35.08124755215731       14.25453242844863       84.69613098902161
C           33.88718743792857       14.13827680447347       85.38779160645805
H           33.00123098790985       14.54414888690267       84.92249118228544
C           34.91348045322041       12.42444574567182       89.75762748982073
H           34.34380714624768       12.25165086210096       90.65630164151094
C           39.52907263860170       12.00174675700214       88.49060631779977
H           40.41238870469402       11.59051719808323       88.95369416942813
C           38.57563869373308       14.13354873015580       84.29842451026157
H           39.16801813683076       14.48441389118159       83.46692013866453
C           31.83647246648463       12.82783257460168       89.74226501973013
H           31.56782704477864       11.77479828208257       89.83102211436893
H           30.92467406637487       13.39504503391036       89.56784556136128
H           32.26189748512682       13.15014270562869       90.68979738435712
C           31.10038745686701       13.69489966551484       86.84508300220048
H           31.08110565848739       13.75719944358507       85.76220217875293
H           30.66088473190294       14.60537520748645       87.25462814553387
H           30.46815603007116       12.85958686765020       87.14941116507519
C           36.32743289791364       11.24839211332369       92.24630845706324
H           35.97681745345226       10.21578600036758       92.21518147775923
H           35.47907339690856       11.88622886695173       92.47917237057085
H           37.05967154645200       11.32971130858852       93.04730621520638
C           39.40196336313670       11.09035865498528       91.39246731626874
H           40.29743341139151       11.67764372560407       91.21066607059939
C           39.47054175933918       10.12851065509918       92.28685765256098
H           38.65149678078765        9.47086121695450       92.52278826789384
H           40.38438077602970        9.95085455849969       92.83130602864161
C           42.21210794371849       12.03112310511759       86.98039645242827
H           42.09628668287615       10.99314675783453       87.28707369178005
H           42.57663382455991       12.60000961313793       87.83571326723663
H           42.95762021802759       12.08210849722709       86.19129829918988
C           41.58428185400506       13.69790959949715       84.30620422936084
H           41.57109031935001       14.76878340119550       84.11687089792561
C           42.39917409390308       12.94447710523274       83.61018720569918
H           42.44660268565779       11.87462801804930       83.72883203732711
H           43.06636155852117       13.36619667806608       82.87562452229051
C           37.14467029061661       15.30633661507079       81.79712044088208
H           38.05635990205145       14.76677131562138       81.55778940615956
H           37.38530726288501       16.36785882986923       81.87235660603667
H           36.44430595429731       15.18154791426983       80.97367892202534
C           34.10748133384676       15.19148209320950       82.42489369119249
H           34.13970045188814       14.54919962402038       81.54301836460380
H           34.24037737933538       16.21867436167370       82.08864398573775
H           33.12890445847090       15.09390076341914       82.88007533639643
O           36.73547129418791       15.04419430092516       87.74869794353060
H           35.85704912551489       15.28718065254362       88.04790387485829
H           37.44903424888827       15.67381349164004       87.82206999768727
C           35.12162604516883       10.30291607232080       86.06375528880122
H           35.19313274769386        9.23264533361192       85.90754921316876
H           34.66724377051975       10.78235366771655       85.20427250354722
H           34.55587624843210       10.53602206613173       86.95742724686410
S           36.79958822880324       10.98942620556390       86.20291052907459
H           37.05744729519897       10.43979697795072       87.39919728034263
72
 energy: -105.966347958440 gnorm: 0.018736055594 xtb: 6.7.1 (edcfbbe)
Fe          36.73050178238912       13.11455576301777       86.95959596052484
N           34.77030759399575       13.16670662548310       87.43896914533909
N           37.15020803257156       12.40198518713671       88.78864796188616
N           38.67347674118450       13.11690721994395       86.50820019199426
N           36.30664502485785       13.91640219865201       85.17414221411480
C           33.74113455166401       13.57756330588319       86.64660399616776
C           32.48899368188766       13.46944467398972       87.35700834081784
C           32.79443016653303       13.04450640981928       88.61524041794327
C           34.22202544138057       12.85553410112860       88.64709747653561
C           36.27779031574638       12.17659332981364       89.80969321909967
C           36.95738786911885       11.62237455105307       90.94978987616535
C           38.27706848809646       11.50994029176433       90.59345790769248
C           38.36994158308392       12.00382780827573       89.23520515227244
C           39.66909333819852       12.52995229870833       87.22413544070865
C           40.91619661256716       12.58638857748959       86.50304360396579
C           40.66047636139821       13.27169011424229       85.35032663259487
C           39.24357875848293       13.56585854109204       85.36540795289203
C           37.20117984865479       14.27424118122659       84.21554134722400
C           36.52153272917714       14.81254291904339       83.06355477356097
C           35.19139912000006       14.79005814036972       83.35723507695317
C           35.07684245168292       14.23785668342054       84.68826713747599
C           33.88347948752401       14.10256984107716       85.37410442719396
H           32.99050273805616       14.47578521428018       84.89444140241731
C           34.91476592491616       12.41439874754040       89.75900290759169
H           34.34134747268384       12.22113631949270       90.65208096506657
C           39.53666725801123       12.00931427922073       88.49613812778888
H           40.41958546679820       11.59621915744144       88.95794700637217
C           38.57373543792082       14.13941360450548       84.30223255121024
H           39.16625059900388       14.47187959030184       83.46309060943138
C           31.84518642165400       12.82031628119996       89.74046626752224
H           31.58395817280108       11.76606840540377       89.83067164097895
H           30.93074237203446       13.38251982282488       89.56996535829020
H           32.27240419181781       13.14432263918201       90.68605169915119
C           31.11345362146577       13.70469776326347       86.83063004848061
H           31.09990981596764       13.77079305006413       85.74839622126474
H           30.68483495333974       14.61947866144195       87.23970668517977
H           30.46986962069656       12.87775550053160       87.12979048209394
C           36.33272308410392       11.25230751812494       92.24596714954460
H           35.97405366733584       10.22273810624138       92.21678802229231
H           35.48816274009113       11.89455813465079       92.48051830343820
H           37.06546155274405       11.33066562770233       93.04547433619926
C           39.41773113139077       11.09976732607595       91.38939082621690
H           40.31842242526790       11.67448803139991       91.19735601083430
C           39.45747370052839       10.13553295936413       92.29783354943258
H           38.62823408302533        9.48505677484515       92.51135084161164
H           40.36513443318259        9.93090373592663       92.84284030565094
C           42.21257413378294       12.03720588826404       86.98384919198945
H           42.10200987403719       10.99653682969702       87.28279137887942
H           42.57367156586343       12.59872399874001       87.84500276319574
H           42.95892298889817       12.09899558636920       86.19772151889607
C           41.58018293884855       13.70894584875477       84.30557559711052
H           41.55145515886759       14.77598600575763       84.10225819388268
C           42.40917460639811       12.93743829539614       83.62236433686566
H           42.44415336914853       11.86905405567150       83.74800282249491
H           43.06674587316940       13.34439390670596       82.87148565385648
C           37.14599609539206       15.29986992959604       81.80393446502741
H           38.05808942007067       14.75840646756573       81.57207857486983
H           37.38945834472437       16.35992931879860       81.88187212449881
H           36.45182124748993       15.17859572253451       80.97580610239744
C           34.09442346417026       15.19330584759706       82.43472351213219
H           34.11753834122205       14.55949343275522       81.54718367802685
H           34.22742397285306       16.22278766990876       82.10709659700980
H           33.11643382044171       15.09869042983362       82.89190205663010
O           36.76055456677735       15.07725052827077       87.77354922325320
H           35.89011831499613       15.36205018673445       88.06867761195332
H           37.46751357176386       15.72135632956123       87.83390993461694
C           35.08993020211700       10.28890906536662       86.05737876037236
H           35.15751807138464        9.21831277063395       85.90257364395988
H           34.63256877762230       10.77143958140088       85.20274561254678
H           34.53728807240107       10.52991487872504       86.95692191033213
S           36.77290744030907       10.97691762041873       86.17204946744091
H           37.06422490221709       10.38087279128597       87.34214569657695
72
 energy: -105.969688608173 gnorm: 0.018561609447 xtb: 6.7.1 (edcfbbe)
Fe          36.73447850762752       13.12120193762570       86.96631639996514
N           34.77303987274573       13.17406449257435       87.44663320455842
N           37.15543666265857       12.39148292079930       88.79081049979931
N           38.68096032671560       13.13088157081892       86.51764911535618
N           36.30567976838941       13.92608169569988       85.17545925666320
C           33.74466426686055       13.56507023980424       86.64702391039829
C           32.49267455166203       13.45636181752212       87.35180732310636
C           32.79694335167641       13.03914737252607       88.61377615405672
C           34.22562178102159       12.85611443145231       88.65033329671643
C           36.28176351366141       12.16232505217227       89.80843948815598
C           36.96710568505311       11.61493844614803       90.95122108585572
C           38.28684419129490       11.51761997475929       90.59532128012039
C           38.37682996598701       12.01109083374708       89.23887191143228
C           39.67705808941277       12.54497357849401       87.23122026452029
C           40.92203781861668       12.59784352212188       86.50436296591377
C           40.65999835036052       13.28507570907011       85.35487165365298
C           39.24432806850027       13.58222155876021       85.37456198210567
C           37.19835941785468       14.28093866077680       84.21816432678877
C           36.51406171845040       14.80862631751333       83.06221951158022
C           35.18365230801941       14.77537516607225       83.35180762258184
C           35.07389560826241       14.22370011876992       84.68293944846852
C           33.88039859264330       14.05938191256762       85.36024581928756
H           32.97599628951646       14.37876775748110       84.85766112993537
C           34.91856756131006       12.39619849946824       89.75669742181019
H           34.34105332114156       12.17938022276644       90.64310515627272
C           39.54711461665908       12.02169798648769       88.50297208922741
H           40.43023776580250       11.60699649969908       88.96329137341353
C           38.57130347434754       14.14692448910676       84.30764115098378
H           39.16464377382758       14.46109464703354       83.46185875464870
C           31.85269083532647       12.80987410633204       89.74135513140334
H           31.60385950830789       11.75157261171534       89.83290152138682
H           30.93096652289824       13.36305313286487       89.57549345732305
H           32.28449236107492       13.13771439984948       90.68494074140017
C           31.12602072419223       13.71570899926001       86.81506803494638
H           31.12654582315666       13.78776944576562       85.73183155077172
H           30.71582121957184       14.64133524316632       87.22137648519579
H           30.46022184873704       12.90150194865005       87.10296155258509
C           36.34052278038961       11.25484830514468       92.25030795894882
H           35.96666099230466       10.22936643242198       92.22388948194187
H           35.50345669399846       11.91043831739486       92.48250896465737
H           37.07562585139726       11.32733743334027       93.04938590507737
C           39.43357059702676       11.10425235660681       91.38339471161375
H           40.34047329364374       11.66513893554053       91.19158100433884
C           39.44757610946110       10.13307491145402       92.29319529414677
H           38.58728551962936        9.52363384996985       92.50843785355120
H           40.33952571979007        9.91513303069957       92.86000952419799
C           42.21813257472682       12.04899266199440       86.98651434526361
H           42.11096018749668       11.00226398801107       87.26992156998116
H           42.56858079207108       12.59968985058676       87.86081211122567
H           42.96989038796084       12.12702058994415       86.20573307008415
C           41.56995539580294       13.71615457792954       84.29801581874648
H           41.53161702785801       14.77711250709103       84.07509596456627
C           42.40067585721328       12.92841392043905       83.62552620084273
H           42.45347760178065       11.86685915980676       83.80182371465396
H           43.06887496877974       13.32292484892184       82.87729428689849
C           37.14809264656920       15.29603754434583       81.80795381986043
H           38.06028173358428       14.74741684033978       81.58695423913613
H           37.39960555747019       16.35484746024919       81.89063120708666
H           36.46155933110325       15.17919367169657       80.97164288992211
C           34.07911663681921       15.19368340595035       82.44328931523242
H           34.08429768425893       14.57224561179953       81.54545674284635
H           34.21361159857692       16.22899770795655       82.13014052281450
H           33.10448085398234       15.10204671615134       82.91228391580213
O           36.79944577148743       15.11098956254345       87.82207011846771
H           35.93747916710327       15.46624547906081       88.08193584851695
H           37.48620571088035       15.78596485940043       87.83614550658814
C           35.04837725387391       10.27771665705556       86.04919221036981
H           35.10549164818192        9.20468570250499       85.90060053612494
H           34.57793771184078       10.75583013259982       85.19832728442996
H           34.51195443907695       10.52649854830766       86.95796279892268
S           36.74451635731964       10.95476239700413       86.13159139438535
H           37.07231548319467       10.31907470629456       87.27416179636845
72
 energy: -105.971057367537 gnorm: 0.024898279996 xtb: 6.7.1 (edcfbbe)
Fe          36.73811382083922       13.12677782040087       86.97269429206460
N           34.77952909889644       13.17416062241424       87.44944865341564
N           37.15913162073398       12.37838624176791       88.78731197556959
N           38.68316237277757       13.13498876335442       86.52144785115154
N           36.30765185416168       13.93623623647614       85.18112125911482
C           33.74943466174154       13.55139769222479       86.64589232596566
C           32.49544917925000       13.44327489834181       87.34908351450493
C           32.79926264780351       13.02984556070920       88.61201245250794
C           34.22978512623303       12.84865403953560       88.64973706715422
C           36.28532841809483       12.14781363813309       89.80431983506944
C           36.97361418446194       11.60825132086423       90.95180142157196
C           38.29350065165836       11.52167537316931       90.59991091485256
C           38.38155387920526       12.00968610471145       89.24046644457586
C           39.68248491825520       12.55388311645678       87.23481386095929
C           40.92827905627446       12.61160815444257       86.50704193940491
C           40.66282798846214       13.29506584529775       85.35708449968620
C           39.24503043237574       13.58926688221457       85.37776496689025
C           37.19819905686587       14.28710871795807       84.22057987010884
C           36.51081960988116       14.80692588110051       83.06103773499979