72
 energy: -105.980557828133 gnorm: 0.000162373647 xtb: 6.7.1 (edcfbbe)
Fe           3.45204564439396       -2.87244348536811       15.27641718471413
N            2.04710707563471       -3.06397892179202       16.67492931482471
N            4.13132524402675       -4.70748714451035       15.69340206787018
N            4.92068693784398       -2.64066138890162       13.91452095111554
N            2.82595217301277       -1.00504794993273       14.90153081783495
C            1.08874522381063       -2.15993872352532       17.00016117552060
C            0.24190145763951       -2.66876388435444       18.05796471316918
C            0.72262059538557       -3.90051830105784       18.37119812610521
C            1.85148856928242       -4.12939311345143       17.49496854526008
C            3.66497131350244       -5.55032511852986       16.65416360273139
C            4.40715950564202       -6.78487143457633       16.65815671727104
C            5.34227804380076       -6.67497287183051       15.66400813449221
C            5.15952268232363       -5.35693667615566       15.08799356353700
C            5.82673733624883       -3.58230854421173       13.52543487712292
C            6.68346730520825       -3.06939549122631       12.48930894466089
C            6.27475417466258       -1.78278886994251       12.25351527274048
C            5.16897133758190       -1.54092861885425       13.15628650732607
C            3.34618221271021       -0.13102046002843       13.99873305030527
C            2.58194041076278        1.09646464638488       13.97796756898958
C            1.57747010854402        0.93590958982478       14.88021270059353
C            1.74679543334211       -0.38365051184398       15.44616979274408
C            0.92808049004064       -0.91486485453516       16.42288894756163
H            0.10798358888416       -0.30624272233325       16.77041839729314
C            2.60150480802814       -5.28733360392962       17.49982771338384
H            2.33106852409598       -6.05131253438343       18.21196214307598
C            5.93054346001849       -4.85542730161746       14.05742969392141
H            6.68714232092209       -5.50313932277655       13.64312060316418
C            4.44285854816155       -0.36520816335762       13.19246608803105
H            4.73579096287760        0.42167584735789       12.51549345279680
C            0.24029788644882       -4.87350939492670       19.39089388042610
H           -0.62021914757590       -4.47864527619942       19.92505721886543
H            1.02554697159046       -5.08708013243067       20.11608590249606
H           -0.04979937988819       -5.81288261564146       18.91930469485975
C           -0.90886873637103       -1.92532977990618       18.64296459022056
H           -1.63913860984326       -1.67958416850787       17.87169645340133
H           -0.57087049718973       -0.99399509629118       19.09769422790906
H           -1.40422284064606       -2.51901726684600       19.40712657451252
C            4.20461226663698       -7.90184843585788       17.62051515062276
H            3.37220826458667       -8.53719674347780       17.31261872461231
H            3.98539923055661       -7.51659114421765       18.61501180983446
H            5.10217533688146       -8.51441891945903       17.67394708182563
C            6.35536548097050       -7.62220261050373       15.25311349570473
H            7.29126743664022       -7.19190555891531       14.91630050816298
C            6.21729501526544       -8.94376496717334       15.25438270123559
H            5.29569389221741       -9.42357077558034       15.53442123895123
H            7.01985105530480       -9.59388681429381       14.94831278347799
C            7.82640842464160       -3.80363664215050       11.88139214882706
H            7.48174707120352       -4.47736814942265       11.09530823633527
H            8.34582803537733       -4.39887372688643       12.63095232862875
H            8.53227169851103       -3.09964369330557       11.44560722871674
C            6.80944471738321       -0.80762472556862       11.32840568731577
H            6.77134266090178        0.22331746228442       11.66100510732926
C            7.32012624759287       -1.08133815636593       10.13278780201668
H            7.33797244824228       -2.07985485558465        9.73238292577749
H            7.71417389180968       -0.30524060433646        9.49805026662143
C            2.89114836588345        2.26260069783491       13.10432411104186
H            2.84313987205427        1.97528743778846       12.05392633407867
H            3.89403385024077        2.63972820551987       13.30646041000554
H            2.18210658631123        3.06938771520097       13.27171511766473
C            0.49147099563816        1.88021555483837       15.26442188583151
H           -0.48535080931494        1.44084601865969       15.06231447010804
H            0.57133948374313        2.80921040707919       14.70561898364695
H            0.54417427526598        2.11334429874498       16.32818304164194
O            4.88513711130334       -1.97173911863870       16.75269604228251
H            5.71824985315985       -2.07999579906455       16.27961219071517
H            4.64412532308680       -1.04003118434060       16.69239099721108
C            0.99542709367642       -5.00138820122391       14.26716779372078
H            0.57107438020981       -5.58664385918438       13.45714614683645
H            0.20880775550186       -4.48991376930639       14.81211059942812
H            1.56874421722745       -5.62279252072964       14.94665222188117
S            2.07305060580798       -3.70282905835863       13.56602196245477
H            2.94931673056449       -4.55468410380854       13.02124825459723
