72
 energy: -105.897506509421 gnorm: 0.236711285440 xtb: 6.7.1 (edcfbbe)
Fe           3.40900000000000       -2.95100000000000       15.14600000000000
N            2.03100000000000       -3.08400000000000       16.69100000000000
N            4.25800000000000       -4.69200000000000       15.80500000000000
N            5.05700000000000       -2.60800000000000       13.94700000000000
N            2.77900000000000       -1.04500000000000       14.78000000000000
C            0.94500000000000       -2.24300000000000       16.86100000000000
C            0.11600000000000       -2.79000000000000       17.92200000000000
C            0.70000000000000       -3.91600000000000       18.35600000000000
C            1.91500000000000       -4.12900000000000       17.59300000000000
C            3.81800000000000       -5.49200000000000       16.84100000000000
C            4.60000000000000       -6.71400000000000       16.81800000000000
C            5.48800000000000       -6.62600000000000       15.80400000000000
C            5.27600000000000       -5.35100000000000       15.14400000000000
C            5.86900000000000       -3.62000000000000       13.48900000000000
C            6.58400000000000       -3.13300000000000       12.32600000000000
C            6.21400000000000       -1.85100000000000       12.11300000000000
C            5.24200000000000       -1.50700000000000       13.13500000000000
C            3.42800000000000       -0.09900000000000       14.00900000000000
C            2.65900000000000        1.13100000000000       14.09300000000000
C            1.59300000000000        0.91100000000000       14.87200000000000
C            1.64200000000000       -0.46700000000000       15.32200000000000
C            0.72200000000000       -1.08500000000000       16.14400000000000
H           -0.26000000000000       -0.62100000000000       16.23400000000000
C            2.80600000000000       -5.18000000000000       17.73000000000000
H            2.70100000000000       -5.81300000000000       18.61100000000000
C            5.97100000000000       -4.87900000000000       14.04700000000000
H            6.67000000000000       -5.57000000000000       13.57500000000000
C            4.59600000000000       -0.29500000000000       13.29700000000000
H            5.04500000000000        0.57800000000000       12.82400000000000
C            0.17400000000000       -4.83500000000000       19.47900000000000
H           -0.93500000000000       -4.78300000000000       19.51200000000000
H            0.57900000000000       -4.50100000000000       20.45799999999999
H            0.48000000000000       -5.88400000000000       19.27900000000000
C           -1.21000000000000       -2.19600000000000       18.45500000000000
H           -2.06800000000000       -2.74200000000000       18.00600000000000
H           -1.28000000000000       -1.12300000000000       18.17600000000000
H           -1.25200000000000       -2.30400000000000       19.56000000000000
C            4.40800000000000       -7.86500000000000       17.83300000000000
H            3.79700000000000       -8.66900000000000       17.37000000000000
H            3.88100000000000       -7.48600000000000       18.73500000000000
H            5.39700000000000       -8.28300000000000       18.11800000000000
C            6.55500000000000       -7.64500000000000       15.32300000000000
H            7.33000000000000       -7.30300000000000       14.62200000000000
C            6.61100000000000       -8.93200000000000       15.69900000000000
H            5.86800000000000       -9.34200000000000       16.39800000000000
H            7.40100000000000       -9.59300000000000       15.31200000000000
C            7.59500000000000       -3.99600000000000       11.53900000000000
H            7.10600000000000       -4.40100000000000       10.62700000000000
H            7.93700000000000       -4.84300000000000       12.17100000000000
H            8.46400000000000       -3.37300000000000       11.23600000000000
C            6.66100000000000       -0.85700000000000       11.00800000000000
H            6.33000000000000        0.19000000000000       11.07500000000000
C            7.43100000000000       -1.17800000000000        9.96100000000000
H            7.79700000000000       -2.20700000000000        9.83200000000000
H            7.70700000000000       -0.41700000000000        9.21700000000000
C            3.01400000000000        2.46200000000000       13.39400000000000
H            3.39500000000000        2.25400000000000       12.37100000000000
H            3.80200000000000        2.99000000000000       13.97100000000000
H            2.10700000000000        3.09900000000000       13.31800000000000
C            0.48600000000000        1.93200000000000       15.22900000000000
H           -0.23700000000000        2.00400000000000       14.38800000000000
H            0.93900000000000        2.93200000000000       15.40200000000000
H           -0.05400000000000        1.59700000000000       16.14100000000000
O            4.94300000000000       -1.96100000000000       16.61800000000000
H            5.77800000000000       -1.93400000000000       16.15000000000000
H            4.79300000000000       -1.66700000000000       17.44400000000000
C            0.67000000000000       -4.42300000000000       13.91400000000000
H            0.25100000000000       -5.30900000000000       13.39000000000000
H            0.01200000000000       -3.55400000000000       13.69900000000000
H            0.65300000000000       -4.62900000000000       15.00500000000000
S            2.35500000000000       -4.07800000000000       13.37200000000000
H            2.88400000000000       -5.14600000000000       13.95200000000000
72
 energy: -105.945546150924 gnorm: 0.095644435452 xtb: 6.7.1 (edcfbbe)
Fe           3.47590951147434       -2.89943165205718       15.22001898479381
N            2.01586023151311       -3.10058230769619       16.66873406742600
N            4.24578228983735       -4.70445891462682       15.78245969383438
N            5.02693938050447       -2.61863403765822       13.90751867857328
N            2.77721224043242       -1.04729158905486       14.77891370736844
C            0.94120650531924       -2.26733168648238       16.84845616080993
C            0.10523477439183       -2.79108141153204       17.91641900218701
C            0.70391578748791       -3.92145085839129       18.36800405746972
C            1.91300483336510       -4.11684870134014       17.58658596100815
C            3.83312815394711       -5.49270554658377       16.82671765994407
C            4.61306146233452       -6.71937803752769       16.83021217310982
C            5.50056806022790       -6.64358174793017       15.79234042117132
C            5.27066593933290       -5.35747273950272       15.14552829554131
C            5.85478336193111       -3.61377524391544       13.46597228614232
C            6.60020444653491       -3.13315557642229       12.31784890062961
C            6.23140608838456       -1.83214072223603       12.10456246760667
C            5.24252186274534       -1.51569099882352       13.12691433536249
C            3.42271643147340       -0.09797195894540       14.02789500078609
C            2.66400443820081        1.14184062365044       14.08878524131893
C            1.57679184718853        0.91254704707134       14.86283305278426
C            1.64619452929608       -0.47144627829714       15.30002884681997
C            0.72969865367593       -1.09508083802801       16.13682800742076
H           -0.23311489057093       -0.60710752197033       16.26368870870735
C            2.80928747728492       -5.17217290234553       17.71375779560327
H            2.68385208435973       -5.81643995964771       18.57935018145059
C            5.96432691490578       -4.87325395051488       14.04470994948139
H            6.66904093622181       -5.55775356471081       13.58655919335796
C            4.58792137747740       -0.30068859035735       13.30228163063833
H            5.01718055945394        0.56486770650856       12.80706882755869
C            0.18478979351851       -4.82745849641226       19.46525708754357
H           -0.90884093304927       -4.78224321943978       19.50696197398623
H            0.57667431712186       -4.51000765959434       20.43856017563903
H            0.47974742397779       -5.86521225089587       19.28431418873156
C           -1.19055471183186       -2.20040772989595       18.44073984531841
H           -2.04880880387490       -2.73221775967827       18.01099869894633
H           -1.27514950730518       -1.14200031945205       18.17981229036820
H           -1.24291713064016       -2.29920636942114       19.53064898552906
C            4.41208286708744       -7.84730016791973       17.82234148367176
H            3.80776671824429       -8.64794743190232       17.37654957821596
H            3.89486608389995       -7.49131618410896       18.71781590370310
H            5.37855101652568       -8.26649837826754       18.11878050942668
C            6.52996632902769       -7.63354815069335       15.33924993686812
H            7.29049389157187       -7.27787978843615       14.64419762138778
C            6.59969094627153       -8.91338168702600       15.70252697468996
H            5.87778559738915       -9.34972280950583       16.37785070607128
H            7.37972422357272       -9.56714466147025       15.32107772263010
C            7.58545406410841       -3.98679206611766       11.54941904791490
H            7.11373265472495       -4.39117497693178       10.64503222439235
H            7.93058292803111       -4.82554829423190       12.15972543635651
H            8.45562901615823       -3.39189969061202       11.25665742141059
C            6.66257827356675       -0.88126804869274       11.03002945342876
H            6.31866425133322        0.15003224421850       11.10890770659053
C            7.42098905177358       -1.18350292838360        9.97751744233117
H            7.78625176085657       -2.18618963115746        9.81199434760160
H            7.69461620224190       -0.43193866206348        9.24253925989373
C            3.01625889859851        2.44312175896837       13.39850730654996
H            3.39197041180002        2.25358863245688       12.38803225046435
H            3.78864937406454        2.97916684758745       13.96163183802623
H            2.12989095870623        3.08073055361039       13.32207449616255
C            0.49648686418059        1.91416569819409       15.22480714734573
H           -0.22408900947223        2.00008915200512       14.40248056400719
H            0.93215374997349        2.90357045012471       15.40137075598624
H           -0.04073663465698        1.60250261648855       16.12495054133226
O            4.93725755909753       -1.96725246542515       16.60847451001551
H            5.78209627454182       -1.92729636270239       16.16337322377860
H            4.80441986127253       -1.64977641067450       17.48218872371379
C            0.65369430564425       -4.43113761269592       13.92397556501443
H            0.25919205630065       -5.30141401932695       13.38696982246089
H            0.02742102982087       -3.56187512628071       13.70381131412475
H            0.64523574776459       -4.62247109484356       15.00010612032129
S            2.34895493430737       -4.06020908373011       13.40563293631457
H            2.87647200502289       -5.16605645629680       13.92911357282832
72
 energy: -105.960526156076 gnorm: 0.025960983837 xtb: 6.7.1 (edcfbbe)
Fe           3.49672817612602       -2.88660327778831       15.23820235008364
N            2.02639350254166       -3.10253170930215       16.65499035364213
N            4.25904903531372       -4.69137004179324       15.78393864009821
N            4.99582453710259       -2.62786521761696       13.88772899847578
N            2.79550515029396       -1.04945815664297       14.80383077170301
C            0.95164799646724       -2.28660653830293       16.83282820627237
C            0.10773449655260       -2.79470866108512       17.89989188848964
C            0.71690329821033       -3.92504069644922       18.36527213731336
C            1.91996507044379       -4.10543518723323       17.57090328021610
C            3.84973734680054       -5.48165191743703       16.81644899764193
C            4.61839407427754       -6.71168085210111       16.83867884697908
C            5.50390268879075       -6.64679772814661       15.78412765280019
C            5.26545130792358       -5.35344291464749       15.14816322827159
C            5.83169634941545       -3.61063186279245       13.45201032001780
C            6.60297089439036       -3.13871698144830       12.32025280293897
C            6.23602502367717       -1.82581948040304       12.10640811919670
C            5.23151570197677       -1.52951208475174       13.12435620963922
C            3.42325853799492       -0.10458713123066       14.05038358880118
C            2.67131445376589        1.13949026345128       14.08849620338754
C            1.56832438031071        0.90320735788331       14.85484319892814
C            1.66110645895150       -0.47914536012566       15.29194244724479
C            0.74740603974916       -1.10188681775930       16.13604040096772
H           -0.19292123967899       -0.58638468602892       16.30652682080361
C            2.80885122697063       -5.16787804628312       17.68949828976101
H            2.65505072490608       -5.83050296990023       18.53311439431065
C            5.95150188422312       -4.86763482825666       14.04156035425629
H            6.67080035302350       -5.54163678746110       13.59936313760901
C            4.57296805925716       -0.31400819367447       13.29951545289642
H            4.97632284838823        0.54307110776973       12.77357935958391
C            0.20525539275648       -4.81775477068924       19.44790514696858
H           -0.88066944154329       -4.77401811623848       19.49268282292832
H            0.58839960760520       -4.51228761357599       20.42133174912077
H            0.49298677912132       -5.85084767498270       19.27957796132946
C           -1.16520667924297       -2.20691166491232       18.41801329217235
H           -2.02799615374704       -2.72820586650882       18.00155931539216
H           -1.25622449616160       -1.15517133481154       18.16869012645082
H           -1.21909649169792       -2.30112344979411       19.50096539188513
C            4.41821772258766       -7.82159605583178       17.81403284026311
H            3.81933788250981       -8.62044288263650       17.37377285409480
H            3.90337022398096       -7.47835007491221       18.70550841621090
H            5.37294444637957       -8.24371852403474       18.11677935598972
C            6.49542212856549       -7.60871113709303       15.35335643182356
H            7.24634137975974       -7.23607761553923       14.66601666973978
C            6.57958045648342       -8.89043241606764       15.70240944427382
H            5.87500351897649       -9.35987996117687       16.36000741800779
H            7.36307432395011       -9.52964577373930       15.32827572532037
C            7.57736816374465       -3.97610433995646       11.56632132166090
H            7.11685316182738       -4.37586963067656       10.66251339998333
H            7.91863579015570       -4.81548502881406       12.16325511757697
H            8.45020626139758       -3.39675269248975       11.27946749360837
C            6.65880934869500       -0.91046747511518       11.06858578786833
H            6.30562142129139        0.10969690838143       11.16536327927683
C            7.40557852707012       -1.19165283016373       10.00138682247735
H            7.77546777949792       -2.17569015932020        9.79377205470297
H            7.66931874547651       -0.43853073130794        9.27658987781306
C            3.02161667060932        2.41852188300280       13.40477347419697
H            3.39494485284289        2.23855227529737       12.40084378305707
H            3.78704010780206        2.96155275271973       13.95828725442312
H            2.14601087371460        3.05745708905274       13.32874228523617
C            0.50550451000308        1.88884819331267       15.21578369651436
H           -0.21847768289236        1.98739410502596       14.40699326771797
H            0.93726954466122        2.87114148607478       15.39462278689665
H           -0.02693818921349        1.59135628023279       16.11278895264628
O            4.91464899810937       -1.97876992840185       16.60772486787077
H            5.77756427966201       -1.91398505134843       16.19498794777995
H            4.81529146676911       -1.64117112454387       17.50002726028506
C            0.63415433864722       -4.43436394181361       13.93833369747444
H            0.26703634132760       -5.29541625257795       13.38836467135416
H            0.02969253260904       -3.56477575459017       13.71035580169046
H            0.63035377948264       -4.61898166976174       15.00493898492102
S            2.33237024491507       -4.04802181572685       13.41031346572124
H            2.86888915334509       -5.17753821438969       13.88908123294451
72
 energy: -105.965333393406 gnorm: 0.023565074823 xtb: 6.7.1 (edcfbbe)
Fe           3.50983746613378       -2.87605001701432       15.25125516118066
N            2.03386251834546       -3.10616420454629       16.63840100291411
N            4.25581966898721       -4.68311042786906       15.77789025562489
N            4.97486041115164       -2.63853938512618       13.88223837272769
N            2.80292954722393       -1.05650985580745       14.81128111064185
C            0.96335692919828       -2.29085105224325       16.82174530511710
C            0.11847361277123       -2.79894917657696       17.88229248671058
C            0.72731868642551       -3.92801936172739       18.34903085281565
C            1.92479037308366       -4.10563313191889       17.55327284841153
C            3.84915774879330       -5.47207955599468       16.80917477764609
C            4.61125151947992       -6.69797826020000       16.83906830819768
C            5.49410630468815       -6.63685830558308       15.78274084780168
C            5.25830053559779       -5.34710158952019       15.14595575476844
C            5.81433643551194       -3.61798950467514       13.44974933253687
C            6.59502744816225       -3.15039238642615       12.33003991268161
C            6.22804173860539       -1.83782175229832       12.11542228473608
C            5.21552410278259       -1.54336237206777       13.12223638819593
C            3.42423793465583       -0.11603759567597       14.05316532683232
C            2.67539228116419        1.12590795296929       14.08523759159682
C            1.57106505071579        0.89035272534437       14.84917525778474
C            1.67135925394424       -0.48480704112730       15.29499878180401
C            0.76286908081492       -1.09673099204705       16.14610776983062
H           -0.15888347947325       -0.56107093675162       16.35100883490207
C            2.80210964242740       -5.17113446170477       17.67189083325201
H            2.62185528310127       -5.85549478859631       18.49236732946310
C            5.94418629907664       -4.86914297055475       14.04071752100752
H            6.67545768237505       -5.53548262016631       13.60795188743974
C            4.55913711908132       -0.32883212339744       13.28565892441184
H            4.93740955368167        0.51997293762055       12.72783703242820
C            0.22593182790377       -4.81634251407913       19.43527023293822
H           -0.86032792612505       -4.76981706940312       19.48183802086248
H            0.61435195412095       -4.50860626439744       20.40700315021515
H            0.51463749725373       -5.85059829860763       19.26884686448151
C           -1.14877342563471       -2.20727553957344       18.39697442246307
H           -2.01412496620049       -2.72602497796985       17.98075994200597
H           -1.23397434523350       -1.15437698866562       18.14684106520049
H           -1.19637797860601       -2.30282613910751       19.48065893480266
C            4.42080979609356       -7.80053663667600       17.81785980723088
H            3.82673995526603       -8.60290535247583       17.37601570549105
H            3.90416093577466       -7.45590982386783       18.70897877353892
H            5.37990716051551       -8.21629366688215       18.11929179223366
C            6.48273666928274       -7.59052939881503       15.35761739077518
H            7.23091012416693       -7.20562908069613       14.67471783794357
C            6.57232564408178       -8.87548435406987       15.69830378793571
H            5.85959244191876       -9.36848177944615       16.33356167986335
H            7.36414714913470       -9.50115780085540       15.32219977484887
C            7.57909292714908       -3.97821882139384       11.58480110794387
H            7.12770694643414       -4.36587646773774       10.66969493091976
H            7.90995165075915       -4.82563911130581       12.17836973738173
H            8.45739202922817       -3.39595891716997       11.31627375391422
C            6.65231213300882       -0.91943294913893       11.09361900390751
H            6.30385703059694        0.09958887041535       11.21534590402425
C            7.38870668555951       -1.18469592452517       10.01336678624387
H            7.74850964739550       -2.16706270843640        9.76746742518935
H            7.64472730676833       -0.41562685917020        9.30404451546188
C            3.03277528286442        2.40026482504757       13.40364215375263
H            3.40615786746524        2.21803014805425       12.39914939375578
H            3.80157209970285        2.93967716619903       13.95807564048159
H            2.15818413935692        3.04212804955438       13.32990387521389
C            0.50745128856158        1.87022221728787       15.20901270960352
H           -0.22089037691324        1.96870078070572       14.40308017024519
H            0.94368854330269        2.85170021637577       15.38597380524151
H           -0.02092080452570        1.57218023035997       16.10951960436863
O            4.91268051802007       -1.98025628157656       16.64202370362610
H            5.78560554555599       -1.88399427493175       16.25083353655828
H            4.82619012607422       -1.62526054283128       17.53034874003322
C            0.61756864087957       -4.43259686690221       13.95283754494710
H            0.26382586098438       -5.29073791130991       13.38959087415292
H            0.01542341181296       -3.56117984452576       13.72575653759625
H            0.60943430684452       -4.62457044579731       15.01817883568543
S            2.31864355626252       -4.02962443568674       13.42956948135214
H            2.85349037463119       -5.19905420228973       13.83286895210665
72
 energy: -105.968427451083 gnorm: 0.015835575473 xtb: 6.7.1 (edcfbbe)
Fe           3.50334904958604       -2.88373951906610       15.24572891908083
N            2.04879487773794       -3.10531901856418       16.62374479866683
N            4.25153992928005       -4.67166335787953       15.77303688797862
N            4.95201602330049       -2.65158769857674       13.88634266761437
N            2.81476097038977       -1.06749561247423       14.82426140807745
C            0.98013425715897       -2.28998620661270       16.81423824765388
C            0.13329515582261       -2.80112443621044       17.86600030709351
C            0.73745141374466       -3.93125726615737       18.32846066927986
C            1.92963343748924       -4.10801241967030       17.53310088379795
C            3.84510692316992       -5.46337344908628       16.80126188869106
C            4.60405921150313       -6.68331293471271       16.83819270881698
C            5.48418606275636       -6.62468885564519       15.78299487106942
C            5.25223773523264       -5.33927368753004       15.14587519055211
C            5.79922407848420       -3.62618722133251       13.45529148519307
C            6.58376899427480       -3.16221928657306       12.34387072537935
C            6.21424703199178       -1.85375407048355       12.12724220229594
C            5.19607871520921       -1.56027405434874       13.12327900703075
C            3.42559995164137       -0.13142918291838       14.05377430640079
C            2.67965915948087        1.10817222001090       14.07980206978276
C            1.57902712631192        0.87733308267549       14.84621935888954
C            1.68495108794519       -0.48954021415416       15.30449711553070
C            0.78213364157738       -1.08630620152228       16.16362261772202
H           -0.12057468758414       -0.53757786562207       16.39625276695852
C            2.78898336113986       -5.18126020632890       17.65081347386535
H            2.58470841327296       -5.88432024710036       18.44700204295812
C            5.93950377668130       -4.87249266634675       14.04271171890461
H            6.67647976582653       -5.53282832910704       13.61368703368524
C            4.54129453830777       -0.34796690241265       13.26587753743543
H            4.89302348544908        0.49020283861287       12.67787710999962
C            0.24781889734540       -4.81860376318246       19.42024932594233
H           -0.83843922260630       -4.77228088513919       19.47670018851867
H            0.64891425508079       -4.50632871921511       20.38637477822866
H            0.53832073341233       -5.85329278085144       19.25363348314849
C           -1.13302128235895       -2.20452732020459       18.37493630497221
H           -1.99880053054050       -2.71952825484114       17.95412208701377
H           -1.21041627090004       -1.15090483527932       18.12197600032787
H           -1.18121194283405       -2.30009769479805       19.45888583319067
C            4.42575311975050       -7.78022770742524       17.82511559813460
H            3.83596765315348       -8.58968999162316       17.38920449614234
H            3.91133939177378       -7.43229720833622       18.71729543396036
H            5.39202122066418       -8.18499000705293       18.12172718389468
C            6.47507141572499       -7.57605895665699       15.35585257748436
H            7.23321230786578       -7.17682031354919       14.69224292519751
C            6.55903853765424       -8.86508610711842       15.68095259455530
H            5.84690069009257       -9.36901812917874       16.30783685463397
H            7.36821573650717       -9.47442705362269       15.31398820957316
C            7.58274033855057       -3.97729698398971       11.60303975014429
H            7.14722730568931       -4.35366932646537       10.67441473934877
H            7.90787214616210       -4.83312928489212       12.18979775101248
H            8.46063517828307       -3.38314336940845       11.35525701050724
C            6.64440750202981       -0.92397741722691       11.11711173072272
H            6.31735781238633        0.09843005972113       11.27060447305601
C            7.36326595177705       -1.17896174680081       10.02363734628073
H            7.71698137194672       -2.15762427253770        9.75419900865980
H            7.62271199373389       -0.38981777976560        9.33688710137665
C            3.04728055965482        2.37896225848909       13.39652674487993
H            3.41926044902712        2.19280674249186       12.39118586357968
H            3.82338433337973        2.90852085916152       13.95216076608630
H            2.17783463809164        3.02909367819373       13.32490524990125
C            0.50972293382730        1.85267090824797       15.20184947836800
H           -0.22209009655033        1.94200877033426       14.39748493535874
H            0.94302402984290        2.83703306412924       15.37356491152489
H           -0.01467241841002        1.55378883466570       16.10560478332753
O            4.91101285679294       -2.00183508273138       16.68584570841455
H            5.78689937968930       -1.83971833036968       16.31183586856312
H            4.82834023512272       -1.59766382101760       17.55490533584847
C            0.59623219167470       -4.42924388045970       13.96797288465168
H            0.25066918667515       -5.28596767164495       13.39888362134729
H           -0.01067764829051       -3.55891318456348       13.74662075286417
H            0.58805578909207       -4.62900969663957       15.03320491698864
S            2.29374859545491       -4.01078894597623       13.43372384158719
H            2.83241718739996       -5.19709188373325       13.78062153027544
72
 energy: -105.969593452856 gnorm: 0.018872537718 xtb: 6.7.1 (edcfbbe)
Fe           3.50605536810549       -2.88506208622692       15.25523592882224
N            2.05352242395488       -3.10771849033732       16.61399553224503
N            4.23852418543999       -4.67519457516690       15.76109590038625
N            4.94024230686133       -2.66245315394333       13.88967405759744
N            2.81890256651237       -1.07434984182255       14.82945469167049
C            0.98891088944924       -2.28679793660158       16.81357504560735
C            0.13992038510571       -2.80133746065525       17.86007566910384
C            0.73658705785632       -3.93682882081889       18.31368680688496
C            1.92479296602545       -4.11719961091970       17.51668112469086
C            3.83401128457415       -5.46843385086788       16.78995236626815
C            4.60022184244095       -6.68160996962578       16.83416157052858
C            5.48139052366223       -6.62145577551137       15.78306311660353
C            5.24442732789097       -5.34236966946469       15.14006074481230
C            5.79120815186821       -3.63492266557644       13.45702768840370
C            6.57770704699202       -3.16881072656759       12.34945339228522
C            6.20506533874322       -1.86425792037040       12.13129371557397
C            5.18130158898169       -1.57378973766909       13.11928253855608
C            3.42246855877145       -0.14247673654822       14.04637319962459
C            2.68054188686515        1.09756665528365       14.07182733054616