78
 energy: -115.912678108338 gnorm: 0.334812878550 xtb: 6.7.1 (edcfbbe)
Fe          35.20700000000000        4.28200000000000       10.25200000000000
N           37.04400000000000        3.98800000000000        9.65900000000000
N           34.92000000000000        5.55700000000000        8.66800000000000
N           33.32600000000000        4.63500000000000       10.79700000000000
N           35.57299999999999        3.08800000000000       11.79400000000000
C           38.04799999999999        3.17200000000000       10.19300000000000
C           39.25500000000000        3.17500000000000        9.39200000000000
C           39.05900000000000        4.05700000000000        8.31100000000000
C           37.66100000000000        4.51700000000000        8.54200000000000
C           35.81600000000000        5.89500000000000        7.71800000000000
C           35.25800000000000        6.86100000000000        6.65900000000000
C           33.97100000000000        7.06100000000000        7.10600000000000
C           33.80700000000000        6.23800000000000        8.28600000000000
C           32.45600000000000        5.54800000000000       10.34400000000000
C           31.33000000000000        5.66100000000000       11.18700000000000
C           31.45500000000000        4.82700000000000       12.29100000000000
C           32.75200000000000        4.15800000000000       12.03800000000000
C           34.69100000000000        2.80500000000000       12.84200000000000
C           35.29099999999999        1.88400000000000       13.79300000000000
C           36.51600000000000        1.69000000000000       13.37200000000000
C           36.67700000000000        2.40400000000000       12.09800000000000
C           37.91200000000000        2.40900000000000       11.34500000000000
H           38.75000000000000        1.80300000000000       11.68800000000000
C           37.12400000000000        5.39500000000000        7.67800000000000
H           37.76500000000000        5.75100000000000        6.87200000000000
C           32.58500000000000        6.23900000000000        9.05900000000000
H           31.72200000000000        6.77800000000000        8.66800000000000
C           33.35700000000000        3.27100000000000       12.93700000000000
H           32.75600000000000        2.91200000000000       13.77300000000000
C           40.03100000000000        4.44000000000000        7.17600000000000
H           40.99100000000000        3.89800000000000        7.31100000000000
H           40.22699999999999        5.53300000000000        7.20300000000000
H           39.59300000000000        4.15700000000000        6.19500000000000
C           40.57200000000000        2.30800000000000        9.66600000000000
H           40.29300000000000        1.35800000000000       10.17000000000000
H           41.26400000000000        2.87500000000000       10.32400000000000
H           41.07200000000000        2.07100000000000        8.70300000000000
C           35.89000000000000        7.34300000000000        5.35800000000000
H           36.69400000000000        6.64000000000000        5.05400000000000
H           36.33100000000000        8.35200000000000        5.50600000000000
H           35.12100000000000        7.37800000000000        4.55700000000000
C           32.96300000000000        7.98400000000000        6.57900000000000
H           31.90700000000000        7.67600000000000        6.58900000000000
C           33.25500000000000        9.29300000000000        6.03700000000000
H           34.28999999999999        9.66300000000000        5.99800000000000
H           32.44500000000000        9.93400000000000        5.65800000000000
C           30.15200000000000        6.60100000000000       10.88600000000000
H           29.39200000000000        6.06100000000000       10.28100000000000
H           30.51200000000000        7.48100000000000       10.31100000000000
H           29.68500000000000        6.93400000000000       11.83700000000000
C           30.66500000000000        4.58600000000000       13.53200000000000
H           31.01000000000000        3.79100000000000       14.20800000000000
C           29.47800000000000        5.29100000000000       13.95400000000000
H           29.06200000000000        6.10200000000000       13.33900000000000
H           28.97600000000000        5.02500000000000       14.89600000000000
C           34.59200000000000        1.28300000000000       15.05400000000000
H           33.60700000000000        0.85900000000000       14.76500000000000
H           34.43300000000000        2.08100000000000       15.81100000000000
H           35.22100000000000        0.47300000000000       15.48200000000000
C           37.63700000000000        1.08400000000000       14.14400000000000
H           37.75900000000000        0.02000000000000       13.84700000000000
H           37.41300000000000        1.13100000000000       15.23100000000000
H           38.58000000000000        1.62900000000000       13.92700000000000
O           35.86800000000000        5.99000000000000       11.44200000000000
H           35.65700000000000        6.76800000000000       10.92600000000000
H           36.25500000000000        5.97800000000000       12.24200000000000
C           32.28700000000000        0.07800000000000        7.51400000000000
H           32.43500000000000       -0.88300000000000        8.05100000000000
H           32.31500000000000       -0.11300000000000        6.42000000000000
H           31.30099999999999        0.50200000000000        7.80000000000000
N           34.74000000000000        0.83800000000000        7.69400000000000
H           35.10000000000000        0.08300000000000        7.14900000000000
C           33.37600000000000        1.03300000000000        7.88900000000000
C           35.49900000000000        1.74400000000000        8.29800000000000
H           36.58400000000000        1.80300000000000        8.28600000000000
N           34.61500000000000        2.53300000000000        8.90100000000000
C           33.24900000000000        2.16700000000000        8.66000000000000
H           32.40300000000000        2.72100000000000        9.04100000000000
78
 energy: -116.004804836478 gnorm: 0.145579554330 xtb: 6.7.1 (edcfbbe)
Fe          35.21177698096717        4.26606953430609       10.22235368365528
N           37.08380783737347        3.98299441938051        9.64692873312430
N           34.91214114716609        5.57703686072851        8.64606338737572
N           33.33397284274162        4.64281404267720       10.84164662653478
N           35.55962297932163        3.08170763913600       11.80344507973801
C           38.05631994757765        3.15983055323386       10.18991406629302
C           39.26971388808387        3.16729768290549        9.38822964003848
C           39.06011584100247        4.03747068767366        8.33642159737301
C           37.68102065334749        4.52012050509648        8.53587997275184
C           35.81677667335574        5.90180851136034        7.69113379815592
C           35.24940494341553        6.84505450241444        6.67835821666453
C           33.96184992455749        7.07349015600031        7.11452326608252
C           33.77602220723379        6.25064226363824        8.30767374860768
C           32.44706391017994        5.53227326532447       10.33156303646661
C           31.31145888733583        5.66966792297880       11.19060983567053
C           31.45715504167599        4.83154733105803       12.29024003919533
C           32.75440949753694        4.17194601998968       12.04170515949638
C           34.66462533509313        2.78986101143492       12.82201271032652
C           35.27033861987040        1.89554541288079       13.79386133787701
C           36.53546727313022        1.70211280815521       13.37127909254367
C           36.69152203857631        2.41423687555703       12.10540526647612
C           37.89220404946736        2.41548720317165       11.34815808288533
H           38.72639059087739        1.81198993589938       11.69065074834367
C           37.12088517794746        5.40949002884780        7.65665569892125
H           37.75980913300175        5.75878038112810        6.85839860795631
C           32.59672381116395        6.22196382501644        9.07895555683025
H           31.74299709640474        6.76891520308073        8.68971623413277
C           33.35831458328232        3.27428307634062       12.91532091921152
H           32.77092162326024        2.92426380409702       13.75988126283065
C           40.00718836944407        4.42817986037818        7.20562327279039
H           40.96706644091543        3.90650019480473        7.31593776929815
H           40.21487968316671        5.50877443428689        7.20856594655481
H           39.59378874221947        4.16305739301044        6.22048899364465
C           40.54121081663681        2.32571898498958        9.66263354484540
H           40.28949024827187        1.37979218883716       10.15886195299987
H           41.24246007635591        2.87101504847300       10.30910596989168
H           41.05303345559096        2.08462574862844        8.72187876805442
C           35.88606990096697        7.32863695792469        5.39045504445605
H           36.68300550295481        6.64842674483672        5.06352758163016
H           36.32425651250158        8.33085871403024        5.50795536161600
H           35.13433930834841        7.37976230208586        4.58754664764913
C           32.97766538926566        8.00738447674099        6.56691485125247
H           31.93097504232544        7.69368179253619        6.59121467319368
C           33.25163104749041        9.24474210455670        6.04946269040612
H           34.26445758624995        9.63835046197208        6.00826707908586
H           32.46193643981693        9.89688546064661        5.67590845377244
C           30.15722868957671        6.59735694826217       10.88626925593999
H           29.40009254773872        6.06960726877612       10.29020830965957
H           30.50396826702237        7.46974700736859       10.32118455717231
H           29.69379309898737        6.93859017669826       11.81498643414143
C           30.64894040960029        4.61035723181723       13.50833979138565
H           31.00059480006358        3.82058499340506       14.17987630629503
C           29.51933736660055        5.26912740906073       13.92768214734524
H           29.07697247961615        6.07555953683213       13.35230949762590
H           29.01461296391151        5.01907311623194       14.86256672019478
C           34.59699629143635        1.29904427953743       15.03212431755756
H           33.62370797070695        0.86872904595961       14.76500237839625
H           34.43569573860715        2.07085535055521       15.79615363715053
H           35.21128831703601        0.49770888611091       15.46561314254706
C           37.64505248175782        1.07340007602980       14.13870691164054
H           37.77015182422102        0.02168901598459       13.85310402597805
H           37.42416436678990        1.12524460384109       15.21243823975472
H           38.57604119949273        1.61398716005079       13.93749365916595
O           35.85642188167311        5.98541606213904       11.41998420411550
H           35.66114867651184        6.78403640821107       10.93360202003466
H           36.26577545740927        5.98747492099928       12.26470185412208
C           32.29705910449040        0.07878651895743        7.50768280280518
H           32.43076530419944       -0.87356828133186        8.03858327275614
H           32.30883306656861       -0.11609196490168        6.42846008469115
H           31.32404544992016        0.49636150327933        7.79118084420497
N           34.72209469859006        0.81641346533877        7.68592513584898
H           35.09330609769414        0.06143745856681        7.13676406078702
C           33.37906377532821        1.02854089446508        7.89829262360826
C           35.45285921594681        1.75616334441323        8.30945005220157
H           36.53494429787816        1.81073438914421        8.29475441980327
N           34.61181404146566        2.57639456180926        8.91587836975376
C           33.29856534241540        2.16017776317081        8.66516654933987
H           32.44937767927406        2.70996651696704        9.03818036727666
78
 energy: -116.033935809046 gnorm: 0.048292755486 xtb: 6.7.1 (edcfbbe)
Fe          35.20868707947451        4.25097143995792       10.19901970462289
N           37.11437901729317        3.97675200769061        9.62460772729763
N           34.90991208719416        5.58519406444464        8.62799784284094
N           33.32859281727102        4.64132522097818       10.87359817776609
N           35.54191194289394        3.06448068352344       11.80117531854662
C           38.05692315020285        3.15347083433535       10.18238552514657
C           39.27742018148841        3.16006503337266        9.38302757573640
C           39.05892558967037        4.02683201370967        8.35352592868566
C           37.69688169648501        4.52396621470903        8.52286954141636
C           35.81576403056169        5.90236141685363        7.66660465304100
C           35.24312503763093        6.82661262825917        6.70032964621871
C           33.95864019779207        7.07428528553664        7.12815371133032
C           33.75904900428194        6.25459364641716        8.33001504939855
C           32.44366605932674        5.52338163306971       10.32281621139187
C           31.29560214132664        5.67344693551054       11.18686263390541
C           31.46737858492608        4.83882642743340       12.27889845859697
C           32.76308138152337        4.19246495698413       12.04023163201178
C           34.64898706563572        2.77316617800272       12.79883530788271
C           35.25956206606114        1.90173592704179       13.78519307822901
C           36.54792878209847        1.71858828690429       13.37081534226927
C           36.69936051950002        2.42340772816552       12.11161642506753
C           37.86839611558838        2.42929596690933       11.35050420775964
H           38.69891125362406        1.82644803175589       11.69518125949646
C           37.11720630132942        5.41773629767950        7.63573163158114
H           37.75504965216977        5.76468506401186        6.84043496531777
C           32.61167738537250        6.20675753358860        9.10337700166032
H           31.76419326735607        6.76556429635779        8.72351395661195
C           33.36306231561666        3.28065627082929       12.89591963736392
H           32.78491914077934        2.93997548044796       13.74731607457505
C           39.98899676045152        4.41580582464436        7.23506847009851
H           40.94673380627100        3.90492361655230        7.33274778665910
H           40.19175235453233        5.48968759817286        7.23141564349704
H           39.57728057429401        4.16068826255678        6.25468525215494
C           40.50832132263137        2.34490163658099        9.65756084263819
H           40.26829179505521        1.40342436479716       10.15050842438330
H           41.21219654954556        2.88024197746896       10.29896977134809
H           41.02956150038565        2.10408211616397        8.73024723905041
C           35.87952513767851        7.31521069434277        5.42657609242065
H           36.66989447451913        6.64548024939334        5.08933531901296
H           36.31709974753930        8.31093119834807        5.53336429366941
H           35.13459983854904        7.37833588550686        4.62796604752670
C           32.98863643842483        8.01413886318269        6.56877360485600
H           31.94993667016606        7.69238163849265        6.60373357730161
C           33.25333532171252        9.20280993837377        6.06793880516207
H           34.25100068358901        9.61225348219391        6.01653875555492
H           32.47875585251760        9.85670658205616        5.68724449298139
C           30.16042846124359        6.59367533976132       10.88601327622006
H           29.40306731948306        6.07598570084684       10.29514569099967
H           30.50145691046401        7.45986469826891       10.32470152188790
H           29.69824744056509        6.94482586334011       11.80062687887686
C           30.65271923854219        4.62906488170692       13.47911086178265
H           31.01280737026205        3.83977924783758       14.13934968084823
C           29.56140121191324        5.25503636476791       13.89169690235238
H           29.08727161068567        6.05819917980467       13.35123103884451
H           29.06143422162134        5.00657784475190       14.82139648671326
C           34.60287490763530        1.31824449115576       15.00338975480106
H           33.63508052506436        0.88350737177104       14.75298186453737
H           34.43975464102645        2.07371424407777       15.77396694555620
H           35.21290965691050        0.52548979364496       15.43795605053271
C           37.64985323630469        1.06694934002579       14.13395069439999
H           37.77660595990417        0.02284285882825       13.85244953978590
H           37.43465038720963        1.11413397718022       15.19997363177745
H           38.58045194286106        1.59630849865340       13.94682781107602
O           35.85197169787426        5.97896070728216       11.40381289651725
H           35.67477177414854        6.80910114792832       10.95962701497078
H           36.26690507493707        6.00349349465629       12.26491657184011
C           32.30484683668744        0.08479283430428        7.50513933462042
H           32.43024036397127       -0.86522596888443        8.02699733185828
H           32.31328808544403       -0.10973110810541        6.43447849470253
H           31.33870765606282        0.49706354803103        7.78187294925311
N           34.71084266057555        0.79971506652976        7.68633151879053
H           35.09172655598666        0.04722531675141        7.13596121860872
C           33.38093246500095        1.02856113807435        7.91378333969958
C           35.41531656930588        1.76723450954382        8.31617351659426
H           36.49029614791301        1.81961314703972        8.30051125245711
N           34.60837750199204        2.60003233904482        8.92940620412934
C           33.33930727617740        2.16231912117127        8.67542783665608
H           32.48734159988935        2.70159357690085        9.04555924422571
78
 energy: -116.040654493161 gnorm: 0.022752244815 xtb: 6.7.1 (edcfbbe)
Fe          35.20909548368570        4.25071257053575       10.19056819669969
N           37.11638262083093        3.97540277256389        9.60706748256871
N           34.91285498724007        5.57144119134870        8.62708498723734
N           33.33344943361923        4.64542686331920       10.87576832436197
N           35.53223237377285        3.05584039084728       11.78452329270864
C           38.04593282868980        3.15272587198559       10.17206489880658
C           39.26700586202699        3.15788787812074        9.38185458534844
C           39.05280220399295        4.02442654113111        8.35567834694110
C           37.69793217101752        4.52224977368881        8.50826258203356
C           35.81353978804430        5.88889058777642        7.66106529852437
C           35.23598610470783        6.81545748263729        6.71728582597539
C           33.95648899086181        7.06051568338001        7.14724155879195
C           33.76425178432459        6.24586218636736        8.34500888140892
C           32.44875491752764        5.52301800543157       10.32109778479393
C           31.29504350763651        5.67542466864240       11.17636585081091
C           31.48177631765932        4.84469375708484       12.25958914176217
C           32.77090543122858        4.19805555987982       12.02815643093736
C           34.64263127132197        2.76201363988443       12.77388011950304
C           35.26099561148536        1.90922894508799       13.76909807690116
C           36.55382208263131        1.73252214691880       13.36578270633492
C           36.69719952623173        2.43142655170010       12.10673452727143
C           37.85622430973145        2.44007141538214       11.34494538620761
H           38.68641195568831        1.84592001560999       11.70051566914749
C           37.11498880186192        5.41204307575476        7.61931250518846
H           37.74694504945379        5.76250989826882        6.81791692932430
C           32.62069293797674        6.20676214292713        9.11936999538160
H           31.78001642693426        6.78614549828166        8.75962042073189
C           33.36239864687798        3.27811241927102       12.87930183541022
H           32.79235232225702        2.95682011773517       13.74160977872349
C           39.98057005438851        4.40935722766339        7.25147482544950
H           40.93486021098690        3.89788720746436        7.35405751672310
H           40.17060249471024        5.48293612597266        7.25926450292372
H           39.55700944758797        4.15345245279886        6.27908855060151
C           40.49006161558876        2.35325476527826        9.66042712670066
H           40.24107718359437        1.41489692516865       10.15132217083055
H           41.18248743065693        2.89787731887381       10.30439685334024
H           41.01230425545780        2.12074731913572        8.73305821292352
C           35.87485430552068        7.30942719653128        5.45847319043492
H           36.65730268002413        6.63221105125248        5.12203140983123
H           36.31909521287942        8.29741492143994        5.58410132225828
H           35.12458381954593        7.38542030709120        4.66976639973966
C           32.98238653369621        7.98639784530386        6.59035456325099
H           31.94669268097951        7.66416201044349        6.63684905902123
C           33.25801885707867        9.17703894283580        6.06665810977807
H           34.25461670008434        9.58470601326622        6.02542049489946
H           32.48442455949473        9.82682078584846        5.68647497018998
C           30.16197543644775        6.59553074908588       10.87604549896123
H           29.39742774720443        6.08056311417223       10.29233036839415
H           30.50385678686185        7.45691046679755       10.30861649131205
H           29.70368766027638        6.96163330495524       11.78698639976422
C           30.67851212994195        4.62425216366727       13.44799376678570
H           31.05517425932001        3.83853791641297       14.09701227520969
C           29.57673354129275        5.24439896100065       13.86611560571480
H           29.08619959944573        6.04510838705498       13.33907357992624
H           29.10025825566244        4.98079073049411       14.79877031965645
C           34.60226776865846        1.33845874587617       14.98043370693612
H           33.63616888336641        0.90301651837836       14.72810206624022
H           34.43946310526744        2.09858322448623       15.74547097920601
H           35.21977049339417        0.55249364077625       15.41166891696975
C           37.65306335589603        1.06143861552208       14.12256674668963
H           37.77463566741742        0.01840819134052       13.83248007361931
H           37.44233068602982        1.09481033805764       15.18927032794809
H           38.59436330674895        1.57756973777715       13.94850672117124
O           35.85931670019529        5.98981656332993       11.39716460513571
H           35.68995114734561        6.84312074580426       10.98857216019134
H           36.26664828055900        6.01906902289779       12.26360926848101
C           32.30750528391629        0.09430990273753        7.50454537766189
H           32.42639363517023       -0.86279792305347        8.01407158283492
H           32.32818370952872       -0.08811325806875        6.43194704037137
H           31.34015028379235        0.50577465434814        7.77269679180423
N           34.70773129988422        0.79613225699109        7.70159663654110
H           35.08790902460211        0.04287103909916        7.15090922763818
C           33.37943633142008        1.03048160190403        7.93557371937829
C           35.40854727930801        1.77242829095114        8.32330709635517
H           36.47779559055459        1.82802306223356        8.30260601497464
N           34.61090266236020        2.61137087221455        8.93621732438050
C           33.34704623410835        2.16225692851553        8.70234581426370
H           32.49753206242880        2.69513536630771        9.07740279674948
78
 energy: -116.043967550019 gnorm: 0.015910154445 xtb: 6.7.1 (edcfbbe)
Fe          35.20683784592750        4.25367685599222       10.18258130066861
N           37.10783309798288        3.97388410132629        9.59114832020924
N           34.91322706640727        5.54737548719243        8.63101239722170
N           33.33785977128778        4.64682347378587       10.86760517593656
N           35.52774877487921        3.05631542405883       11.76500035674395
C           38.03219556606899        3.15588225440414       10.16107949039159
C           39.25258065531079        3.15722342089773        9.38047688340739
C           39.04478816136697        4.02178706357935        8.35177144097112
C           37.69397737167080        4.51677931206769        8.49368921970940
C           35.80971256269796        5.87123300134593        7.66277435773438
C           35.23113508134612        6.80436237040906        6.73171215659952
C           33.95628524200438        7.04843211194703        7.16841977144760
C           33.77266997760760        6.23074549557796        8.35536689640807
C           32.45333471048454        5.52376099508613       10.31869982714938
C           31.29583989394845        5.67558162742160       11.16614447073435
C           31.49005794629976        4.84523514207934       12.24322995493831
C           32.77790223668352        4.20084004779669       12.01636130518157
C           34.64293369490912        2.76205117383717       12.75195700049960
C           35.26321187536623        1.91661122523224       13.74913037313602
C           36.55702454652727        1.74598153054121       13.35680098918673
C           36.69442282394976        2.44081965203751       12.09715979812066
C           37.84943963708422        2.45168566718373       11.33712644641703
H           38.68249897834727        1.86913512530216       11.70336257132798
C           37.11095153067391        5.40117555178707        7.60474085848315
H           37.73439599447403        5.75552044602220        6.79609591155008
C           32.62941643793321        6.21433940741106        9.13051634055613
H           31.80037849086409        6.81917588011710        8.78851789505598
C           33.36498984209467        3.27975971302594       12.86806799615656
H           32.80199987552584        2.96388000731098       13.73388696315018
C           39.97638189072076        4.40725208883700        7.25767661999717
H           40.92937114318344        3.89632034174164        7.36468645111170
H           40.15988602283528        5.48105612553054        7.27416476529506
H           39.55079997002441        4.15209405582167        6.28690571689776
C           40.47675118794000        2.35725271986409        9.66902972793104
H           40.22344050815598        1.41926978315959       10.15748492660020
H           41.15775559580195        2.90835643397054       10.31953114784378
H           41.00656902851323        2.12959984198946        8.74501299512796
C           35.87351638412359        7.30957464288891        5.48630167910016
H           36.64320370878669        6.62156344852305        5.14246041974549
H           36.33521518913908        8.28554003414270        5.63916553137598
H           35.12069337083520        7.41367745876446        4.70414480240912
C           32.97575872142356        7.96026922133060        6.61829835390807
H           31.94186321149961        7.64129145662712        6.67431514206542
C           33.25476733224610        9.14548517044156        6.08209852268033
H           34.25670473665759        9.53228467345941        6.02372097675536
H           32.48133596285840        9.78004058862484        5.68168745157612
C           30.16504872627061        6.59840773173062       10.86475838530859
H           29.39133018802416        6.08244882969511       10.29276372694862
H           30.50767278576915        7.45225684307828       10.28410149659600
H           29.71623995961038        6.98010685078465       11.77578102130490
C           30.69821543604468        4.61560571455417       13.42522451493918
H           31.08414205846009        3.83577617033464       14.06970412123375
C           29.59066377939619        5.22799052780090       13.84422975092941
H           29.08878049218340        6.01670613346920       13.31573543334355
H           29.13187454439382        4.94419067732058       14.77736120490298
C           34.59815708538913        1.35783845238755       14.95970929375658
H           33.63190279217627        0.92522798483001       14.70402040082811
H           34.43471872818519        2.12806131491500       15.71479523512653
H           35.21532496357059        0.57618579356614       15.39760082670357
C           37.65279137519779        1.05562132437070       14.10370668170260
H           37.76206172582334        0.01483576372178       13.79408024389142
H           37.44524932249305        1.07039317264531       15.17253671966640
H           38.60413575366846        1.55988460613186       13.94015456631507
O           35.88120623001601        6.00495850434970       11.38702947720226
H           35.70353776522592        6.87981063251123       11.02475860855014
H           36.26304887804833        6.04047902243387       12.26505967022901
C           32.30835652283887        0.10741288905758        7.50784182553835