87
 energy: -124.392556049263 gnorm: 0.382844469580 xtb: 6.7.1 (edcfbbe)
Fe           2.89200000000000       21.06500000000000       13.13000000000000
N            4.27700000000000       19.93300000000000       12.22700000000000
N            3.49800000000000       20.31500000000000       14.90200000000000
N            1.42000000000000       22.07700000000000       13.95100000000000
N            2.18700000000000       21.54100000000000       11.28100000000000
C            4.53100000000000       19.91300000000000       10.85500000000000
C            5.49000000000000       18.87200000000000       10.56600000000000
C            5.83200000000000       18.29200000000000       11.72900000000000
C            5.07100000000000       18.91100000000000       12.79800000000000
C            4.35900000000000       19.25200000000000       15.13200000000000
C            4.47400000000000       19.09000000000000       16.56100000000000
C            3.66000000000000       19.97800000000000       17.13400000000000
C            3.02500000000000       20.75900000000000       16.13100000000000
C            1.32300000000000       22.36600000000000       15.29400000000000
C            0.16200000000000       23.22800000000000       15.49500000000000
C           -0.42400000000000       23.41100000000000       14.29900000000000
C            0.36300000000000       22.72800000000000       13.31900000000000
C            1.11000000000000       22.36300000000000       11.02800000000000
C            1.17000000000000       22.83100000000000        9.63900000000000
C            2.24400000000000       22.28200000000000        9.08000000000000
C            2.92500000000000       21.49299999999999       10.10900000000000
C            4.02000000000000       20.73000000000000        9.88000000000000
H            4.50300000000000       20.76600000000000        8.90400000000000
C            5.06600000000000       18.58700000000000       14.13500000000000
H            5.67000000000000       17.73300000000000       14.44100000000000
C            2.15800000000000       21.83600000000000       16.24000000000000
H            2.13900000000000       22.32800000000000       17.21200000000000
C            0.12600000000000       22.68200000000000       11.94300000000000
H           -0.87600000000000       22.90700000000000       11.57700000000000
C            6.02200000000000       18.60300000000000        9.13700000000000
H            6.32800000000000       19.64700000000000        8.91000000000000
H            5.03700000000000       18.40500000000000        8.66200000000000
H            6.78700000000000       17.90700000000000        8.73100000000000
C            6.80800000000000       17.07100000000000       11.87600000000000
H            6.09600000000000       16.38400000000000       12.38200000000000
H            7.44600000000000       17.55800000000000       12.64400000000000
H            7.43900000000000       16.48300000000000       11.17500000000000
C            2.82000000000000       22.51000000000000        7.66400000000000
H            1.95500000000000       21.97600000000000        7.21600000000000
H            3.71500000000000       22.34500000000000        7.02600000000000
H            2.58500000000000       23.59500000000000        7.71600000000000
C            0.12000000000000       23.74600000000000        9.03300000000000
H            0.44500000000000       24.75900000000000        8.75600000000000
C           -0.86800000000000       23.07500000000000        8.06600000000000
H           -1.24500000000000       22.06100000000000        8.26700000000000
H           -1.20900000000000       23.60100000000000        7.16200000000000
C           -1.67600000000000       24.29000000000000       14.03000000000000
H           -2.25200000000000       23.48900000000000       13.51900000000000
H           -1.21200000000000       24.94600000000000       13.26300000000000
H           -2.36900000000000       24.88100000000000       14.66700000000000
C           -0.25400000000000       23.79500000000000       16.87400000000000
H            0.62100000000000       23.90400000000000       17.50400000000000
C           -1.71100000000000       23.83100000000000       17.28900000000000
H           -2.50800000000000       23.70600000000000       16.54100000000000
H           -1.98800000000000       23.98200000000000       18.34300000000000
C            3.39200000000000       20.11300000000000       18.65800000000000
H            3.24500000000000       19.01700000000000       18.76200000000000
H            2.73000000000000       20.63500000000000       19.38100000000000
H            4.45500000000000       20.35600000000000       18.87200000000000
C            5.32100000000000       18.02800000000000       17.28500000000000
H            4.45000000000000       17.62100000000000       17.84100000000000
H            5.83800000000000       18.77500000000000       17.92400000000000
H            6.01300000000000       17.19500000000000       17.03900000000000
C            5.52200000000000       25.87400000000000       12.53200000000000
H            6.07600000000000       25.86900000000000       11.56900000000000
H            6.14900000000000       26.36600000000000       13.30600000000000
H            4.57300000000000       26.43600000000000       12.39900000000000
N            6.08900000000000       23.51600000000000       13.37400000000000
H            7.06700000000000       23.66200000000000       13.51800000000000
C            5.22600000000000       24.48600000000000       12.93800000000000
C            5.44800000000000       22.38100000000000       13.57200000000000
H            5.90700000000000       21.47500000000000       13.96700000000000
N            4.16700000000000       22.54200000000000       13.20900000000000
C            4.00500000000000       23.85100000000000       12.82900000000000
H            3.03800000000000       24.22300000000000       12.51300000000000
C            0.78200000000000       17.63900000000000       15.37100000000000
H            0.02200000000000       17.41000000000000       16.14800000000000
H            1.70900000000000       17.98800000000000       15.87400000000000
H            0.99400000000000       16.71100000000000       14.79700000000000
C            0.25500000000000       18.73700000000000       14.42000000000000
H            0.04300000000000       19.65200000000000       15.01300000000000
H           -0.69600000000000       18.38900000000000       13.96500000000000
S            1.42500000000000       19.11100000000000       13.14400000000000
C            0.47400000000000       19.11100000000000       11.62200000000000
H           -0.21300000000000       19.98300000000000       11.57600000000000
H           -0.13900000000000       18.18700000000000       11.55200000000000
H            1.15400000000000       19.16300000000000       10.74500000000000
87
 energy: -124.551021674298 gnorm: 0.214335470485 xtb: 6.7.1 (edcfbbe)
Fe           2.87524133051415       21.03607767369620       13.12206511854703
N            4.28202464684504       19.91552000993333       12.21619315465691
N            3.49139380727510       20.31854220966925       14.88727259975886
N            1.41773085080408       22.09338324548410       13.95332296103745
N            2.20015059907246       21.57535294270201       11.28711600141333
C            4.55042304200449       19.90225780197555       10.86560704614002
C            5.51221426976754       18.86601291407151       10.56071761097426
C            5.83760907679237       18.26986254416475       11.71965064627160
C            5.06684592627640       18.90931405345271       12.77902993509067
C            4.35674258698280       19.27452788542884       15.11752034956237
C            4.46870401618334       19.08106200717091       16.53778270793313
C            3.64550370562356       19.99281771027423       17.12884857110033
C            3.03694102433668       20.77087148522798       16.10425880794891
C            1.32301404145159       22.38207582412793       15.29119513560301
C            0.15869584573937       23.24105997830380       15.52896787292337
C           -0.43424863010033       23.41754913392845       14.32155476100151
C            0.35503366854826       22.71812278986869       13.33285624680380
C            1.10929400548497       22.35610314639773       11.02567792360290
C            1.14423136637149       22.81892070412731        9.63946079945503
C            2.27067131822285       22.29028403537905        9.09599969634691
C            2.91658391019236       21.50303832914818       10.12079512426213
C            4.02254136178755       20.72991430370690        9.89316349767731
H            4.49025280526071       20.75971985456765        8.91275481271923
C            5.06446728332132       18.59496484377849       14.12662513367440
H            5.66854126273647       17.74533211718899       14.44140394919881
C            2.15994381931148       21.84233076078342       16.24361512288437
H            2.12513335329957       22.30954775655022       17.22347237817576
C            0.12715869534260       22.68156223572933       11.95311191013904
H           -0.86265926053180       22.93463103141375       11.57996841937989
C            5.99772820417537       18.63000742153803        9.13698489806109
H            6.33225692111493       19.64164154333977        8.87604108737021
H            5.04925908804202       18.40846190844992        8.63171494480611
H            6.76343244524311       17.91568979247869        8.78704763990736
C            6.79141365523825       17.08345637352028       11.92041305655093
H            6.11690950626910       16.36358381811763       12.39746984883483
H            7.46555980455974       17.52554504367653       12.66180061843898
H            7.39607992453708       16.53792945619644       11.16977493662762
C            2.77029189304438       22.52707522931381        7.66865257452198
H            1.95177906390401       21.99530606384627        7.16805320174717
H            3.70041073139385       22.32952810304699        7.09986792333302
H            2.58224220763138       23.60693695127227        7.66206116641550
C            0.12463135734741       23.68535606461149        8.95222525161970
H            0.42450933393470       24.72937762008526        8.75891929368702
C           -0.82751698721318       23.09652092707546        8.09454634549989
H           -1.21353238110813       22.08886330779069        8.27032317372494
H           -1.21236958718842       23.61089709345185        7.20953013808919
C           -1.66207021138295       24.26818978303896       13.99093660180399
H           -2.27950023670628       23.50891139487626       13.49735587320598
H           -1.24048695546772       24.95514415626425       13.24729906649844
H           -2.31163092484878       24.84723924212922       14.67383750770273
C           -0.30050946343389       23.75189006143802       16.86708979433765
H            0.57011535711384       23.90565823731490       17.50928727295522
C           -1.64488642797669       23.82587096211115       17.27083594245428
H           -2.46332296765832       23.69929979517730       16.55662454134714
H           -1.95324835717650       23.99241215603294       18.30954381862401
C            3.42727125412947       20.08191352839527       18.64587620756980
H            3.25265304190803       19.01165594476937       18.81347430373113
H            2.73646656411350       20.63999852533018       19.30613575679264
H            4.45750157101646       20.34407133091895       18.91931184744198
C            5.29504431758799       18.05404119633026       17.30934208639882
H            4.47240984914324       17.59805516550616       17.87575884376819
H            5.85124546499533       18.74672971237091       17.95515473772885
H            5.97848922679748       17.24233640874754       16.99876095867362
C            5.52831127549778       25.87368041331234       12.53317906451950
H            6.07365411608989       25.87615536973028       11.57826968895312
H            6.14464740883358       26.36829745951792       13.29602456656677
H            4.59038416172884       26.42876797819723       12.40176984237237
N            6.08984204963574       23.52936782575275       13.37467855540234
H            7.07335472004554       23.67232679683571       13.52063671033756
C            5.21467559165507       24.48138781900900       12.92948115962209
C            5.43376701271680       22.38012199877911       13.56413927565263
H            5.89194915459167       21.48334107516610       13.95609245729744
N            4.15888361328422       22.52976174332304       13.21588140405092
C            4.00711931582154       23.83460212218491       12.83182885319855
H            3.04792843649867       24.21245744798570       12.51753933125288
C            0.77992398759597       17.64317963961190       15.36793091882669
H            0.03104024680414       17.41443185573647       16.13854535748317
H            1.69816000707885       17.98243934981911       15.86460948184534
H            0.99405695084839       16.72457233781673       14.80488132306616
C            0.24852871757021       18.73614030449356       14.42700601764049
H            0.04360546877141       19.64848685699051       15.00789298759588
H           -0.68976637459482       18.39446865158119       13.96657849367001
S            1.44661807319955       19.08381549086608       13.12864399648493
C            0.45873444959412       19.11063992129601       11.61803978238868
H           -0.20866894610433       19.98017995321932       11.57898849192062
H           -0.13521137464073       18.19042084857684       11.55133385349379
H            1.14765592548159       19.16160309338389       10.76396883180550
87
 energy: -124.632582148489 gnorm: 0.119886733862 xtb: 6.7.1 (edcfbbe)
Fe           2.86058003827479       21.01057941818855       13.11575594514290
N            4.28532842014471       19.89441829002974       12.20441773900442
N            3.48694977370127       20.32447452807870       14.87502513385141
N            1.40856011174333       22.10352940043208       13.96074066184645
N            2.21038865377011       21.60431966581571       11.29318913128274
C            4.56538490155617       19.89333648077233       10.87413415324388
C            5.53467573425136       18.86248204201756       10.55372967571750
C            5.84382016221206       18.24819666520266       11.71310898426679
C            5.05746133302495       18.90667849669618       12.76184161661353
C            4.35245633455931       19.29366803775570       15.10609672948020
C            4.46309444050696       19.07497803386282       16.52099804803817
C            3.63637824266251       20.00570276443213       17.12758206853041
C            3.04793525068051       20.78163515219693       16.08030149760547
C            1.32043522395988       22.39484066387846       15.28975046793835
C            0.14903895144603       23.24888927015785       15.55144723830519
C           -0.44990682776737       23.41926275138651       14.33582264429659
C            0.35121485316471       22.71097040097317       13.34539709442324
C            1.10809383748981       22.35125294291977       11.02568116864634
C            1.11796183846810       22.80122038642173        9.64323661331066
C            2.28655902969484       22.29621340561370        9.10802104237567
C            2.91470605358543       21.52350091486258       10.13373774200060
C            4.02574013607086       20.73380725479648        9.91093156486742
H            4.47352394029742       20.75279927145369        8.92454491065079
C            5.06070018592626       18.60179616562762       14.11821343805676
H            5.66797708375156       17.76139346210269       14.44168973555062
C            2.15699554684910       21.84623297860411       16.25015878295355
H            2.10584447950818       22.28548214675578       17.23794050355361
C            0.13206585329115       22.68822290851253       11.96552898051883
H           -0.84449966587428       22.97108397449999       11.58465283270467
C            5.97643841175547       18.65634487048599        9.13784569941740
H            6.33646652828746       19.63854748403738        8.83613113001188
H            5.06086606273893       18.41268259039784        8.60018339621679
H            6.74298246861760       17.92010693531169        8.85405500937200
C            6.77155722918818       17.09683134199261       11.96427996414424
H            6.13943264320225       16.33920627597876       12.42118783779579
H            7.48444689709213       17.49145925764787       12.68420836175967
H            7.34615670522870       16.60182095523628       11.15896155814871
C            2.71493409354550       22.54487943830419        7.67957391117718
H            1.94458739448955       22.01596695061084        7.12080530796246
H            3.68521244789692       22.30832267408853        7.19515193669711
H            2.57263254355206       23.62113985300536        7.60719565613818
C            0.13379453509089       23.62777447322600        8.87827540144930
H            0.41898708489462       24.69132060327752        8.75783221846047
C           -0.78225168990906       23.11331031087958        8.12355580898795
H           -1.16854011568521       22.10315775589702        8.26169462943687
H           -1.22935344775112       23.62886037898039        7.26900612806054
C           -1.64680220157832       24.24464606627011       13.95365657551759
H           -2.30753959804286       23.52842271714264       13.47106711175779
H           -1.26699402665074       24.96136583970977       13.22739711426290
H           -2.24698303342994       24.80832505253847       14.68801651446387
C           -0.32864658579591       23.72262897929000       16.85868185432651
H            0.52477226810600       23.89932217761509       17.52623854096862
C           -1.57759601088785       23.81355460590587       17.24683218337779
H           -2.42273449681335       23.68102025968844       16.56893300152320
H           -1.91040874860416       24.00928304120473       18.27169643959222
C            3.46321243877546       20.05266497073828       18.62704797861773
H            3.26362290664396       19.00684122225528       18.86142038619088
H            2.73880331217357       20.65128955801620       19.21155555217731
H            4.46201183396440       20.33027850216730       18.96542632724821
C            5.26551909631862       18.08300165532504       17.32927309826812
H            4.49313526248879       17.57796378384387       17.91118369571081
H            5.86101984325825       18.72176527631817       17.98396524481555
H            5.93736291191619       17.29689754558357       16.94092974007504
C            5.53271373005055       25.87272465581075       12.53381080679247
H            6.07383224134736       25.88047542424068       11.58583454944961
H            6.14190433007931       26.36547729803738       13.29049107669161
H            4.60379568989066       26.42532081099769       12.40387770862678
N            6.09153307357119       23.54141730038846       13.37577329049557
H            7.07752872188486       23.67975592628151       13.52367014015591
C            5.20180008951609       24.47658652912616       12.91966339467821
C            5.42243420226128       22.38176653842191       13.55751717991474
H            5.87993217842938       21.49109890760745       13.94526380671254
N            4.15793827489053       22.52092178033545       13.22046376084042
C            4.00649734933216       23.82007682449379       12.83320732662820
H            3.05381338644687       24.20318226159553       12.51989325767195
C            0.77785555268012       17.64789064551070       15.36638582378528
H            0.03657781078751       17.41883470721578       16.13242024545159
H            1.69084657183816       17.98138039851557       15.85640302712364
H            0.99344113540356       16.73739580141661       14.80820787013812
C            0.24358022430212       18.73562304970521       14.43561965239740
H            0.04845815526371       19.64933729730645       14.99990538928543
H           -0.68158614667258       18.40030429028788       13.96406295866678
S            1.46772006973331       19.06842837482372       13.11301237811514
C            0.44508594217080       19.10526303254013       11.61199922054888
H           -0.20425556232528       19.97618415881538       11.58732712934769
H           -0.13547365584995       18.18951717433721       11.55101257632716
H            1.14245775394155       19.16006553517019       10.77723597124710
87
 energy: -124.672167496066 gnorm: 0.059626553592 xtb: 6.7.1 (edcfbbe)
Fe           2.84886869255586       20.99139705477293       13.11221057822559
N            4.27859661428770       19.87999517862085       12.19942782550081
N            3.48405264318572       20.33227343655433       14.86587284507125
N            1.40913385114255       22.10611658772253       13.96547448566355
N            2.22274470531818       21.62819910311634       11.30474954752707
C            4.57236729055997       19.89331095597189       10.87823892082042
C            5.54468981984606       18.86649480766252       10.55441281131458
C            5.84061275970414       18.24085393223904       11.71665634283633
C            5.04555613095565       18.90227536576185       12.75574337743060
C            4.35032375277587       19.30546238530955       15.09751375465440
C            4.45599735856996       19.07836684157198       16.51255400275048
C            3.63826460936401       20.01269009722058       17.12163182330566
C            3.05507506415641       20.79319890840057       16.06912591184914
C            1.32560646149179       22.39959414418979       15.28868334682898
C            0.15348025092791       23.24525249611838       15.54619191568920
C           -0.45420792105989       23.41133983605501       14.33321581799173
C            0.35262927399126       22.70324861674384       13.35073192801837
C            1.10843710691574       22.35202899218428       11.03323255764815
C            1.11853504359306       22.78771493666388        9.65539089675356
C            2.28724289184845       22.29773320793735        9.11503980872542
C            2.92397968416254       21.54226122444534       10.14580427335608
C            4.03019183953826       20.74077463197073        9.92634138314715
H            4.45702997560908       20.74418839710656        8.93318710315321
C            5.05614448356280       18.60841987700458       14.11289458511340
H            5.67142351815187       17.78033296372868       14.44349080327494
C            2.15527907754655       21.84820682206820       16.25427628516448
H            2.07426608472562       22.25076604953567       17.25749350062769
C            0.13775009914563       22.69740848928523       11.97472686252547
H           -0.82305029953700       23.02798132987289       11.58978473118397
C            5.96604669381682       18.67398009917923        9.13891319056973
H            6.34477020855083       19.63644864389158        8.78726780761101
H            5.07377520623606       18.41806367392690        8.56370689882774
H            6.73198016662831       17.91411214950963        8.92925539623400
C            6.75793643276059       17.10428632519000       12.00185686400691
H            6.16515494351549       16.30829399032384       12.45524679179837
H            7.50529501426901       17.45260230619775       12.71771595393210
H            7.29715383703321       16.66695778386321       11.14058164109316
C            2.67449323616173       22.55643239704239        7.68953249902179
H            1.93347232231239       22.04165866050787        7.06999086905038
H            3.67807759948540       22.28051014548237        7.29661883477644
H            2.55680466532078       23.63551839617859        7.54472201537309
C            0.18750112433877       23.61541467729022        8.86092847052817
H            0.45480677970571       24.67206507223521        8.75130526073200
C           -0.81924349398650       23.11267772172589        8.13063472165137
H           -1.13603570938639       22.07838346721427        8.23200582440610
H           -1.29409574015311       23.65672698867791        7.31680223012251
C           -1.63635596841307       24.22483482575979       13.92324007747629
H           -2.34207970314777       23.54861898819458       13.43594352766620
H           -1.29542360983059       24.96512762144051       13.19742274928182
H           -2.18079509353006       24.76987433554579       14.71084517633356
C           -0.30471462393258       23.68680855225017       16.85458451262264
H            0.51501495476777       23.88198252701501       17.55032186496494
C           -1.57116977233670       23.82027171799430       17.24034557516418
H           -2.40807330345549       23.64797307584795       16.57330615864255
H           -1.88004096423849       24.04501842611407       18.25664338010115
C            3.48832900231988       20.03755902834217       18.61034412841126
H            3.27690558132639       19.00491925811557       18.91397482250163
H            2.73178003840268       20.67667243956923       19.10831062048926
H            4.46857141571410       20.31337867848169       19.01708201266761
C            5.24297231189357       18.10402789899198       17.33645636116667
H            4.51593221371909       17.55678789443933       17.94883265070866
H            5.86935784356795       18.69502169349157       18.01459675238738
H            5.89757204370433       17.34989553145228       16.86329680507915
C            5.53375069560538       25.86894615324963       12.53389788499672
H            6.07788092506059       25.88416508832082       11.58985494246443
H            6.14131315917810       26.35987815966477       13.29063547911435
H            4.61161016973611       26.42714913706775       12.40444903070008
N            6.08802985431311       23.54615860286737       13.37558408829737
H            7.07386697471119       23.68727980155478       13.52712394666698
C            5.19174997462934       24.47206881894615       12.91176141510797
C            5.41687553445554       22.38220701421388       13.55242377652292
H            5.87322183970419       21.49237856519570       13.93459764156297
N            4.15488860759774       22.51246953715703       13.22138086063299
C            4.00058863443683       23.80876912833619       12.83033525864117
H            3.05016688120663       24.19100840514227       12.51872039558245
C            0.77616390623148       17.65388051975216       15.36414426394290
H            0.03787107935794       17.42498995181697       16.13010893865147
H            1.68951357955826       17.98455008506178       15.84996071202572
H            0.99293456414139       16.74579766327068       14.80743794828522
C            0.24727153232335       18.73641364843454       14.43362660980190
H            0.06113277323293       19.65693411374783       14.98608595216224
H           -0.67479265138972       18.40780936928654       13.95651276189749
S            1.48728461694154       19.03955483509298       13.09853562684265
C            0.43741644478550       19.09901042999370       11.61140797511369
H           -0.20237044783033       19.97594361189279       11.60283513785459
H           -0.14168580276330       18.18482264539083       11.54901709545890
H            1.13662063860031       19.15802305322478       10.78283178612058
87
 energy: -124.688382521936 gnorm: 0.058277806449 xtb: 6.7.1 (edcfbbe)
Fe           2.84136211879726       20.97979906005459       13.10943371506456
N            4.26464701468773       19.87292070286658       12.19824332076494
N            3.47781888273386       20.33818644701414       14.86237716540960
N            1.41056969405078       22.09699905828944       13.97083319003388
N            2.23074656687442       21.65071975582851       11.31380820338921
C            4.57109019961522       19.89768046113647       10.88140896702925
C            5.54805828373648       18.87495181776212       10.55972703537186
C            5.83124650743580       18.24088254336756       11.72645565820431
C            5.02714674924977       18.89998141241293       12.75512941859122
C            4.34569496578284       19.31223856001199       15.09379411443257
C            4.45238302067688       19.08505899755585       16.51060236988164
C            3.64575707313985       20.01955598334633       17.12047535498137
C            3.05527784126533       20.80056841938185       16.06720399999119
C            1.32470408620990       22.39305093887285       15.29004154136511
C            0.15298114094636       23.23371578509296       15.53897884619554
C           -0.45828427661649       23.39603346203669       14.32521414421445
C            0.35903851819297       22.69513706553558       13.35458680284742
C            1.10728805800934       22.36128718594680       11.04072128962632
C            1.10223850259990       22.77675908203354        9.66130406843924
C            2.27472444187785       22.30795261553966        9.11676344720283
C            2.92940861743152       21.56365809516802       10.15248059213918
C            4.02937192279211       20.75083146008460        9.93862795068562
H            4.43915729321514       20.73817649566175        8.94017831819209
C            5.04771783241536       18.61448831030113       14.11177413881603
H            5.67731594999109       17.80166924324617       14.44701043337089
C            2.14435752208893       21.84046192078051       16.26238095449498
H            2.03067306060659       22.20514670212867       17.27842919086243
C            0.14728812065801       22.71704629851829       11.98274745062286
H           -0.79396500868249       23.10411424175838       11.59849249430818
C            5.96901996565724       18.67796671628095        9.14695223688483
H            6.36340248301415       19.62098156187401        8.75334549301627