87
 energy: -124.720515454279 gnorm: 0.000032809549 xtb: 6.7.1 (edcfbbe)
Fe           2.78824268510300       20.90504283086612       13.02157663356294
N            4.18283803132439       19.79091370917561       12.12647083946846
N            3.41227959206610       20.24797041171497       14.80786256933961
N            1.38908090537294       22.02537595647103       13.92883293795476
N            2.21415244691489       21.62786783928562       11.24197979950019
C            4.42091285051175       19.70109928211686       10.79255881387328
C            5.48014108986648       18.75159977577118       10.52461723396747
C            5.87719818404959       18.27332975176304       11.73278394024674
C            5.05561878941883       18.93849702729824       12.72106739988624
C            4.42242380139433       19.37165358890842       15.04905217986115
C            4.59575245137396       19.16940164122752       16.47051494850737
C            3.66325887579364       19.94773477617630       17.08260083603192
C            2.93437607724429       20.61332319805310       16.02608815994195
C            1.16599241139239       22.13283114975324       15.26303858290730
C            0.05398794322622       23.02491465920993       15.52677661295076
C           -0.36350289391497       23.47953475209960       14.30365307334609
C            0.49020191981578       22.85336322719992       13.32737303107514
C            1.23145140971447       22.53500285193390       11.00676155516372
C            1.12306705471494       22.81657799032832        9.58830032411542
C            2.08724079943733       22.05701992666541        8.98010410437831
C            2.74912746348295       21.32579262555985       10.02985855054949
C            3.76971961861368       20.41707204783719        9.80994800671315
H            4.07525980781103       20.24985366437187        8.78852124471410
C            5.18294924279052       18.73937964523019       14.08272930795344
H            5.93559863583443       18.04210036713136       14.41813376653635
C            1.88068800145146       21.47865440942350       16.24969880789523
H            1.59405758722079       21.65489661009909       17.27504441407322
C            0.40707934397708       23.09151993212064       11.96566369305603
H           -0.36176664154416       23.76959611478017       11.62801091903139
C            5.98298462873202       18.41464981803601        9.16297173922076
H            6.37719349997044       19.30292352919678        8.66835315183689
H            5.17776073245161       18.01405473941421        8.54711035388861
H            6.77561998623117       17.67225596781283        9.21556685867964
C            6.93158213809151       17.26990614419446       12.05352399439734
H            6.50161244741298       16.42169452306004       12.58630468005149
H            7.70367332338793       17.70984846713388       12.68586559315970
H            7.40298254725306       16.90085913279929       11.14601970256711
C            2.46081440526522       22.01601044385330        7.53955829646503
H            2.01894406794256       21.14809429531914        7.04703623707854
H            3.54189350355189       21.95451824267608        7.42418271494348
H            2.10670571074426       22.91349838334623        7.03623983899504
C            0.18299962292923       23.74530022305182        9.00137062834836
H           -0.06874974674398       24.60595983689344        9.61069060134792
C           -0.38423246695164       23.61669400608142        7.80622044843126
H           -0.20954443723027       22.76054139726747        7.17834971022549
H           -1.06795044474568       24.35673350552031        7.42448857442028
C           -1.42560699834772       24.47823989054003       14.00116015217422
H           -2.34479192423256       23.98582093930758       13.67854821278316
H           -1.10841326512809       25.15081534484833       13.20535456930861
H           -1.64535095056167       25.06895019997264       14.88812782620339
C           -0.44795272821225       23.35139549595000       16.84298512501214
H            0.29346339402651       23.38121494385675       17.63319716799341
C           -1.71856983106828       23.60000103607686       17.14332042633549
H           -2.50385999068461       23.53763217940937       16.41017186192283
H           -2.02175332888270       23.85060715289510       18.14639033533181
C            3.38656563716397       20.12393406474227       18.53609595280988
H            2.36739265555115       19.81635166309472       18.77199932359938
H            3.49894715644893       21.16943284082693       18.82432409099066
H            4.07060520600971       19.52801549663241       19.13541893415902
C            5.61319911283456       18.26182534666981       17.07266443596811
H            5.55537192959145       18.28238939004614       18.15814315984178
H            6.61941130366530       18.56045707222719       16.77700348922331
H            5.45488825747329       17.23535262892305       16.74058989449226
C            5.28779981188871       25.89495493251155       13.06128482649463
H            6.07462393964274       26.07942919304194       12.32989817329520
H            5.61579770547060       26.29156387129633       14.02214209053884
H            4.39375927169037       26.42727929200455       12.75218095319815
N            5.93665879610289       23.52235408986087       13.53299120479593
H            6.89526001974837       23.72370977222877       13.76575100143330
C            4.99186524362267       24.44354578835266       13.16302814108657
C            5.34723939065469       22.30585289233553       13.52723810515666
H            5.84867759541843       21.39370168240577       13.77643671506861
N            4.08814433492491       22.40078978949764       13.17674757169854
C            3.85203279316605       23.72365162797237       12.94678786132342
H            2.88555012147942       24.06792809561960       12.64314208057380
C            1.33097731898979       17.51522222208409       15.07353144621408
H            0.90212971694347       17.28819057223692       16.04758947744991
H            2.36579533837333       17.81448265654934       15.21027132930337
H            1.30991516627634       16.61694456716840       14.46103408592663
C            0.54507498898762       18.62733718191169       14.40668308722171
H            0.54809458088720       19.53172427461728       15.01275783362301
H           -0.48099301743609       18.31307930609995       14.21537770116670
S            1.28562072903746       19.03721013252981       12.77325814651618
C           -0.21819463287989       19.67425200079432       11.97217162448991
H           -0.60858988648810       20.51473330939888       12.53704921894854
H           -0.95043919884471       18.87378818221430       11.90552282930503
H            0.06593723394179       20.00137646299450       10.97815412643950
