72
 energy: -105.903250547440 gnorm: 0.270928528751 xtb: 6.7.1 (edcfbbe)
Fe          -6.11000000000000       24.86600000000000        7.53500000000000
N           -4.36800000000000       23.82200000000000        7.27300000000000
N           -5.74700000000000       24.97000000000000        9.59300000000000
N           -7.91800000000000       25.77300000000000        7.84300000000000
N           -6.54800000000000       24.60600000000000        5.58800000000000
C           -3.79900000000000       23.47000000000000        6.08300000000000
C           -2.51600000000000       22.88500000000000        6.34600000000000
C           -2.27600000000000       22.86500000000000        7.65300000000000
C           -3.46700000000000       23.46200000000000        8.28600000000000
C           -4.71200000000000       24.39800000000000       10.24100000000000
C           -4.81800000000000       24.69800000000000       11.61300000000000
C           -5.99200000000000       25.44400000000000       11.80600000000000
C           -6.59700000000000       25.59900000000000       10.48200000000000
C           -8.39900000000000       26.40600000000000        8.94000000000000
C           -9.61500000000000       27.12200000000000        8.68800000000000
C           -9.90100000000000       26.81300000000000        7.41800000000000
C           -8.92200000000000       25.94100000000000        6.84800000000000
C           -7.82000000000000       24.77000000000000        4.98800000000000
C           -7.74000000000000       24.30200000000000        3.59800000000000
C           -6.45700000000000       23.82100000000000        3.39800000000000
C           -5.78400000000000       23.92200000000000        4.66400000000000
C           -4.46700000000000       23.54800000000000        4.87000000000000
H           -3.89200000000000       23.28600000000000        3.98200000000000
C           -3.63000000000000       23.69800000000000        9.62500000000000
H           -2.85600000000000       23.31300000000000       10.28800000000000
C           -7.74900000000000       26.30100000000000       10.15900000000000
H           -8.20800000000000       26.84800000000000       10.98100000000000
C           -8.86200000000000       25.46100000000000        5.56400000000000
H           -9.73100000000000       25.64600000000000        4.93300000000000
C           -1.16300000000000       22.37200000000000        8.44300000000000
H           -0.39300000000000       21.93800000000000        7.76900000000000
H           -1.51800000000000       21.58300000000000        9.14000000000000
H           -0.71000000000000       23.20900000000000        9.01600000000000
C           -1.56000000000000       22.46000000000000        5.24000000000000
H           -1.70900000000000       23.11000000000000        4.35100000000000
H           -1.76300000000000       21.40600000000000        4.95300000000000
H           -0.51100000000000       22.56300000000000        5.59100000000000
C           -3.87800000000000       24.31200000000000       12.65800000000000
H           -3.21600000000000       25.17200000000000       12.89700000000000
H           -3.25300000000000       23.46300000000000       12.30600000000000
H           -4.43400000000000       24.02000000000000       13.57400000000000
C           -6.53700000000000       26.07000000000000       13.00700000000000
H           -7.60000000000000       26.35300000000000       13.01900000000000
C           -5.86900000000000       26.31700000000000       14.05600000000000
H           -4.80100000000000       26.05900000000000       14.11100000000000
H           -6.34900000000000       26.79200000000000       14.92400000000000
C          -10.25300000000000       28.03000000000000        9.70900000000000
H           -9.46600000000000       28.47000000000000       10.35800000000000
H          -10.95700000000000       27.44800000000000       10.34100000000000
H          -10.79500000000000       28.85100000000000        9.19400000000000
C          -11.05700000000000       27.32200000000000        6.66300000000000
H          -11.04100000000000       27.14900000000000        5.57900000000000
C          -12.15800000000000       27.98300000000000        7.10400000000000
H          -12.28100000000000       28.21200000000000        8.17300000000000
H          -12.94000000000000       28.29800000000000        6.39800000000000
C           -8.84900000000000       24.47200000000000        2.61100000000000
H           -8.94800000000000       25.54600000000000        2.34500000000000
H           -9.80500000000000       24.12200000000000        3.05600000000000
H           -8.62400000000000       23.89200000000000        1.69000000000000
C           -5.91500000000000       23.22000000000000        2.11700000000000
H           -5.47500000000000       24.02300000000000        1.48800000000000
H           -6.73900000000000       22.73100000000000        1.55400000000000
H           -5.12500000000000       22.47700000000000        2.35600000000000
O           -7.19000000000000       22.66500000000000        7.85000000000000
H           -7.42800000000000       22.61800000000000        8.77600000000000
H           -7.33400000000000       22.03700000000000        7.23700000000000
C           -3.53100000000000       27.02100000000000        6.85300000000000
H           -2.91900000000000       27.81100000000000        7.33900000000000
H           -3.46700000000000       27.16500000000000        5.75300000000000
H           -3.09100000000000       26.03600000000000        7.11600000000000
S           -5.24300000000000       27.09900000000000        7.39000000000000
H           -4.99600000000000       26.68200000000000        8.62300000000000
72
 energy: -105.952549213955 gnorm: 0.104679100100 xtb: 6.7.1 (edcfbbe)
Fe          -6.16625234897776       24.79134528219875        7.53587653003621
N           -4.37621705404314       23.84319889401926        7.27975556439934
N           -5.77057492179451       24.95253209077014        9.55975860283656
N           -7.93591519048840       25.75081758437307        7.82761839890378
N           -6.57029059296500       24.56273515118605        5.59327784348593
C           -3.81492005044075       23.47528453527062        6.09262057434143
C           -2.51353225505810       22.89927294930245        6.32874133519554
C           -2.30011136174445       22.87452153796909        7.65974993928252
C           -3.48583059455433       23.48320046181997        8.27460702861866
C           -4.72327478711712       24.40742878540474       10.22558133906176
C           -4.83414720578174       24.70648523443302       11.61433039592070
C           -5.99456712844843       25.44796723083717       11.78900589765656
C           -6.57863285895196       25.59271983907669       10.46829344082767
C           -8.37266216157498       26.40074580564610        8.93770722383315
C           -9.59980783097030       27.11936147264446        8.69550172112911
C           -9.92604417692914       26.82212473245427        7.40541762296315
C           -8.90511419887986       25.96499003903494        6.84935474226560
C           -7.79348831978620       24.78833374438915        4.97941562003312
C           -7.73404230527482       24.31440278051837        3.60473358762332
C           -6.47176584587078       23.82136815872764        3.40208839388310
C           -5.77584714998387       23.95842555383700        4.65738167906630
C           -4.46252845056529       23.56302606833544        4.87101868860695
H           -3.89645413275360       23.26820432803321        3.99304217526549
C           -3.65250547091969       23.71200227075988        9.61973637331925
H           -2.87713190609479       23.33083169006144       10.27859648230667
C           -7.72848201493111       26.30176744577809       10.16300968575373
H           -8.19759533618403       26.83128634408586       10.98633650759871
C           -8.84848231790921       25.46942576145289        5.56159262124533
H           -9.72060785754217       25.64014528505599        4.93708628567325
C           -1.16039108873506       22.37022699258635        8.44476892409268
H           -0.39568206908973       21.94030600874390        7.78752105007864
H           -1.49826009867444       21.59226606146600        9.13944205225148
H           -0.70716748672829       23.18712960086780        9.01995114946097
C           -1.56645055706242       22.46369081077657        5.24167893617295
H           -1.69954854733692       23.09719431106038        4.35945755840199
H           -1.75604839172615       21.42259173363912        4.95474439560456
H           -0.52953397431718       22.55495702549441        5.58114361158413
C           -3.87595075200464       24.30701507211039       12.66360561997903
H           -3.21176453079318       25.14863222145260       12.90459654569021
H           -3.25588917238799       23.46982082865212       12.32627256591645
H           -4.41282130905311       24.01337551700815       13.57198206812733
C           -6.54470260013411       26.05476914408614       12.98816230521523
H           -7.59733904870308       26.33778457369880       12.98067999468631
C           -5.85675570278767       26.31701106920585       14.08228949187836
H           -4.80340360904763       26.08591530909120       14.14530593414878
H           -6.32727049543098       26.79062092877428       14.93512441062778
C          -10.24061752840137       28.02158479632074        9.70436817191779
H           -9.47668752844882       28.46241545336065       10.35224793763854
H          -10.94715198159522       27.46128976022190       10.33031606371875
H          -10.77424283875962       28.83925037589561        9.21058279353575
C          -11.07027807504464       27.32217683540749        6.65302668243011
H          -11.03762110129211       27.14600056693165        5.57995151632463
C          -12.14957156475552       27.97283581468771        7.09961404170555
H          -12.29731651405102       28.19442350588409        8.14830444528677
H          -12.92275143671122       28.29422415298635        6.41194793461600
C           -8.84298711285646       24.47036399552360        2.61869008309992
H           -8.95123799853612       25.52756525900542        2.34486079744400
H           -9.79295157260257       24.12764068701492        3.04435651248421
H           -8.63456805266819       23.90189202402128        1.70586031048259
C           -5.92199354624815       23.22715442100532        2.13408316276985
H           -5.48385160982598       24.00932665673314        1.50021234913499
H           -6.72021573160517       22.73840462767006        1.56490014339750
H           -5.14294997089173       22.48866780956174        2.35036136161361
O           -7.17306249192605       22.70673243333835        7.86366849501932
H           -7.43072247922050       22.61421189124585        8.77816707913403
H           -7.33499315076611       22.03256623879140        7.22790955527104
C           -3.50966656718655       27.01761942385743        6.85021529203757
H           -2.92761359869895       27.80963515192822        7.33499176454426
H           -3.47092910417186       27.15960729523480        5.76641126075705
H           -3.08933564653030       26.04157395517041        7.10637488312766
S           -5.23574068808476       27.08163743895397        7.37866621782259
H           -4.98713684857291       26.71894116305793        8.63594822963608
72
 energy: -105.966245344842 gnorm: 0.030701873536 xtb: 6.7.1 (edcfbbe)
Fe          -6.18534513559797       24.77073919649192        7.53347087482372
N           -4.39582241626530       23.84806042887819        7.28707351392922
N           -5.80441982500316       24.91681560700622        9.53608228348303
N           -7.94496788682955       25.73089867524110        7.80741648123569
N           -6.58349102382642       24.53922966621098        5.59980097485808
C           -3.83310130609954       23.48436083414407        6.10323891754389
C           -2.51717811334129       22.91742033344180        6.32081024210925
C           -2.32768577904501       22.89087921730731        7.66799720816356
C           -3.51070691536479       23.49746660086898        8.26389638325719
C           -4.74009230888008       24.40081589753465       10.21288046553406
C           -4.84149452346668       24.71130539009195       11.61242351029410
C           -5.98763961803141       25.45641069664367       11.77433003523355
C           -6.57436104640122       25.57122654726433       10.45691733120363
C           -8.35125333259819       26.38242667428997        8.93152503764401
C           -9.57638384059108       27.11147255274472        8.69458376189780
C           -9.93569314293575       26.82927840326730        7.39521691307289
C           -8.89080102449955       25.96952605382558        6.85737778969848
C           -7.77419803499383       24.78965825987166        4.98708510313837
C           -7.72881339316151       24.33542366639834        3.61373478677806
C           -6.48044373720577       23.83250793124138        3.40764459096515
C           -5.77632537481328       23.97354585196031        4.66298106379289
C           -4.46591850515420       23.56719331226383        4.87604104888572
H           -3.90741625315088       23.24509778966563        4.00718365372655
C           -3.67829052508888       23.72003086784196        9.61597968488692
H           -2.89614023969525       23.35432411609956       10.26844567444914
C           -7.71946497428433       26.29037561498726       10.16401889841950
H           -8.18768055869951       26.81723609140614       10.98378219863564
C           -8.84008869095923       25.46211375426866        5.56818377805798
H           -9.70213854440709       25.64015379931058        4.93901087411123
C           -1.16626040865213       22.37572802820134        8.44627339935174
H           -0.41066304728160       21.94957465078791        7.79204656284440
H           -1.48954228225040       21.60077334402429        9.13916240099830
H           -0.70758468405039       23.17674621860856        9.02481349476702
C           -1.57891350391732       22.47117192131665        5.24736600591218
H           -1.69530569068982       23.09085295721559        4.36295467226197
H           -1.76341400150065       21.43583654584817        4.96373962890910
H           -0.54850054507019       22.54956787445160        5.58353418782742
C           -3.87026885458904       24.29843752411305       12.66261589190646
H           -3.20257608497984       25.12672418639455       12.90522538769935
H           -3.26059573317938       23.46333249761193       12.33271686116672
H           -4.39854198600941       24.00811501388550       13.56740463388883
C           -6.53667012873069       26.05162576133126       12.97130083580562
H           -7.58632387252593       26.31579110202128       12.94856897901986
C           -5.85222691092550       26.32250033423672       14.08616846543392
H           -4.80659027884706       26.11209823468320       14.16998511082425
H           -6.32746396152612       26.77906311962483       14.93412572467293
C          -10.22021427344358       28.00928446829727        9.69606551249189
H           -9.47179687214362       28.44548173516423       10.35203688851570
H          -10.93637256434405       27.46365543636659       10.31270150895632
H          -10.74466875663890       28.82607414448629        9.20956433639630
C          -11.06880989517045       27.31865608940003        6.64145262186841
H          -11.02003431917213       27.13702320361702        5.57530462922102
C          -12.14331087227380       27.95688204475624        7.09493643250371
H          -12.31675008183689       28.16745264027190        8.13202671824604
H          -12.91051026202016       28.28890978654830        6.41793803970807
C           -8.84038747307684       24.47362251189312        2.62888349463908
H           -8.95789016729982       25.52035377764253        2.34843731186079
H           -9.78395834532640       24.12840943917712        3.04539682075275
H           -8.63416810329040       23.90752366025400        1.72491334060454
C           -5.92812841046778       23.23847744797011        2.15158696940532
H           -5.48798565924818       24.00993704242589        1.51854251843040
H           -6.71463953926944       22.75126546170551        1.58017357088902
H           -5.15975912753388       22.49961197680773        2.36226328744487
O           -7.14484973295621       22.76098275168413        7.87854819508229
H           -7.44006457568644       22.60064045146432        8.77821886428544
H           -7.32709160573446       22.06993006171044        7.23836397051337
C           -3.48709321340537       27.01124218049286        6.84236843788707
H           -2.93237189332378       27.80679347431547        7.33065355255204
H           -3.46711557700937       27.15368149176938        5.76873829297243
H           -3.07926205452411       26.04091690129445        7.09619194868943
S           -5.22875975707812       27.08475091937534        7.35989765090768
H           -4.98720882260967       26.77950775618510        8.64165976205681
72
 energy: -105.969578039942 gnorm: 0.021240258302 xtb: 6.7.1 (edcfbbe)
Fe          -6.19742468636240       24.75116466786661        7.54175394228178
N           -4.40868418476793       23.85463014592053        7.28875256497473
N           -5.81708550897192       24.90304232513281        9.52889819322587
N           -7.94808741886423       25.71147581004777        7.80174963743570
N           -6.58947467747520       24.52421151635171        5.61124096795658
C           -3.84371427630653       23.49377278629109        6.10691472594016
C           -2.52507945667598       22.93161287444076        6.32273582161191
C           -2.34181284838599       22.90672346908572        7.67245372127819
C           -3.52440462338252       23.50480358795756        8.25952019053935
C           -4.74967198270727       24.39031871990453       10.20648357133940
C           -4.83818278109124       24.70935118817935       11.60756674527243
C           -5.97945261630825       25.45798553432462       11.76716513089425
C           -6.57593725222461       25.55831957790220       10.45121807042213
C           -8.34380535915709       26.36445351712236        8.92897857656138
C           -9.56158551738533       27.10100959428081        8.69137449627771
C           -9.93063687784715       26.83017733851000        7.39188165440025
C           -8.88272900945300       25.96852791510258        6.85819638602292
C           -7.76814306121746       24.79684626728381        4.99368060601182
C           -7.72831051908071       24.35145550777837        3.61866724474687
C           -6.48265148533605       23.84472556652271        3.41186755019099
C           -5.77975744461957       23.97260138485671        4.67016834068929
C           -4.47226588407273       23.56404091167383        4.87849377424194
H           -3.91815891778859       23.22370639361173        4.01545942780195
C           -3.69025539725834       23.71983055773214        9.61434345648571
H           -2.90066401189136       23.36840512888639       10.26207031681577
C           -7.72014817224287       26.27863168206383       10.16358026122093
H           -8.18536362939782       26.80774012360242       10.98077271973992
C           -8.83568725825074       25.46893366520338        5.56671630033259
H           -9.69097744705695       25.65053566072521        4.93270107670049
C           -1.17571334275751       22.38679180448442        8.44746734622242
H           -0.42713411360430       21.96266380587313        7.78448816340171
H           -1.49502628564707       21.60844786991636        9.13934301310385
H           -0.71099935039508       23.18274501514693        9.02873857295432
C           -1.59155831491463       22.47731157510810        5.25299944812201
H           -1.69730373991304       23.09275810096917        4.36283980762504
H           -1.78502244951226       21.44127578273218        4.97469380696435
H           -0.56073972722149       22.54601199648043        5.59287482659539
C           -3.86456931266292       24.28669571483737       12.65515326585877
H           -3.18721125844739       25.10670262977958       12.89836050215110
H           -3.26622798236004       23.44359353016306       12.32388162729556
H           -4.39339320042571       24.00156842120902       13.56221305016981
C           -6.53060636096267       26.04666781921241       12.96404878920934
H           -7.58325968685162       26.29631741090822       12.92716248136390
C           -5.85855551591594       26.32366154422553       14.08503730642633
H           -4.80423314841486       26.14731731344262       14.18212846196211
H           -6.34715455901780       26.77023936488483       14.93246897807184
C          -10.20001277915452       28.00055215501954        9.69147991658029
H           -9.45309260344227       28.42170436056660       10.36069181356123
H          -10.93207532571290       27.45973980794667       10.29475290554761
H          -10.70560346590298       28.82627300112232        9.19886950853925
C          -11.05732018438234       27.31409533991538        6.63163194899988
H          -10.99234292808367       27.14025614341267        5.56470809004411
C          -12.14410474017950       27.93549729627065        7.08498735552656
H          -12.34220106744805       28.12007364139625        8.12442233825800
H          -12.90743334563580       28.27366717867246        6.40516983483681
C           -8.84314830223130       24.48109520652882        2.63762979674760
H           -8.96984537297592       25.52540963885618        2.35156750802582
H           -9.78229776573403       24.12862046796587        3.05870053899783
H           -8.63109393964301       23.90966571480979        1.73825172814769
C           -5.93003391250535       23.25037779996641        2.16061098645180
H           -5.48326268604402       24.02103099706992        1.53165925257621
H           -6.71832762232080       22.76696516576989        1.58764820660858
H           -5.16827962311209       22.50687983573657        2.37922995064002
O           -7.11970228508251       22.78534350384338        7.90263427173842
H           -7.45931784448664       22.58729124345579        8.78375413172203
H           -7.33249017152955       22.10624814034401        7.25514865887275
C           -3.47146810704235       27.00319589839860        6.83276859561451
H           -2.92894591143556       27.80794787729520        7.31850432035126
H           -3.45718377084634       27.13914061020295        5.75813759879819
H           -3.06010701035988       26.03647041125111        7.09322916301349
S           -5.22137640997512       27.07478706285591        7.34618607658081
H           -4.97207217012969       26.88286838359189        8.66232058430874
72
 energy: -105.971175683989 gnorm: 0.022143447407 xtb: 6.7.1 (edcfbbe)
Fe          -6.18421815906454       24.77134783651625        7.54655865878296
N           -4.42106011851454       23.86019805052921        7.29086950316489
N           -5.82593494813537       24.89189020610804        9.52559270098418
N           -7.94483105500376       25.69371199424996        7.80146114617920
N           -6.59252225089010       24.51432166343822        5.62429366485889
C           -3.85436824687983       23.49851563322433        6.11059068440869
C           -2.53422459825857       22.94318919030754        6.32640877514725
C           -2.35137969877984       22.92153054921025        7.67566280801337
C           -3.53353813515833       23.51199382961174        8.25774062857506
C           -4.75685949242168       24.38082738622420       10.20202690131886
C           -4.83465725029951       24.70505866121259       11.60300227177391
C           -5.97267084936237       25.45653120050539       11.76289521270205
C           -6.57705756230416       25.54849637309475       10.44784083533371
C           -8.33910187641951       26.34604755378544        8.92908633935690
C           -9.55061951718278       27.08750552266684        8.68932759258178
C           -9.92182087094871       26.82572422492049        7.39141730817116
C           -8.87623968732124       25.96070692027802        6.86010615117683
C           -7.76625135074204       24.79791669297498        5.00363948988593
C           -7.72809445179137       24.36563605728102        3.62460071249388
C           -6.48481333649407       23.85423383610167        3.41764299559389
C           -5.78514390972810       23.96667930382786        4.67902934739591
C           -4.48096187530311       23.55542221218603        4.88153118895841
H           -3.92949184814111       23.20222781029075        4.02368883875683
C           -3.69488935507364       23.72115554735953        9.61361520311379
H           -2.89968049322261       23.37921592004031       10.25702771254565
C           -7.72179177435532       26.26758113175869       10.16470558065394
H           -8.18566100564667       26.79797617062371       10.98023457671962
C           -8.83379370378012       25.47183464891209        5.56647124261487
H           -9.67947812102280       25.66393674716944        4.92460038226960
C           -1.18415820334802       22.40078274648074        8.44826135599643
H           -0.44054094060251       21.97849365647914        7.77774459736931
H           -1.50136270669534       21.61954916921417        9.13922311380628
H           -0.71521520117064       23.19408462746448        9.03093892406091
C           -1.60492645869369       22.48186133296550        5.25777977764578
H           -1.70187149752294       23.09629805320824        4.36482015038986
H           -1.81106673560860       21.44621922765311        4.98250854332372
H           -0.57298717754533       22.53976284301369        5.59965782387661
C           -3.86111666653751       24.27387136289519       12.64683370822011
H           -3.16941011622514       25.08337259186384       12.88741723676597
H           -3.27707797218767       23.41940370742823       12.31450464520758
H           -4.39029566782056       23.99824839534887       13.55814347994528
C           -6.52584361185822       26.04338337634917       12.95877844161551
H           -7.58495695664847       26.26839210256236       12.91382914608945
C           -5.86532619475397       26.33189982546127       14.08076394066206
H           -4.80640620227667       26.17845433287286       14.19333002334075
H           -6.37003943452575       26.76096039455313       14.93086749324901
C          -10.18645106132703       27.99217957300939        9.68497873979633
H           -9.44118696850799       28.39731716929295       10.36791629309513
H          -10.93572804313161       27.45907732769901       10.27493582411708
H          -10.67221962044812       28.82570123370058        9.18249132250080
C          -11.04232404615544       27.30683441390644        6.62356106673001
H          -10.95615507486770       27.15803106318231        5.55313029904308
C          -12.14459080754577       27.90310664509470        7.07706649264708
H          -12.35417153123197       28.06813541290370        8.11852832648730
H          -12.90469802194737       28.24612157968815        6.39383878983680
C           -8.84664382047611       24.49092838866262        2.64856784584968
H           -8.98491533121810       25.53302895203633        2.35807646155148
H           -9.78117978759137       24.13051866261977        3.07569543860983
H           -8.63211845524936       23.91614694164934        1.75096159480115
C           -5.93075480812221       23.26217707744129        2.16800509852933
H           -5.47388422751631       24.03201626083519        1.54479854156508
H           -6.72076270607453       22.78661493388898        1.58943634243810
H           -5.17650626410516       22.51162729900637        2.39180711673880
O           -7.06793034070025       22.79055126926986        7.93723153036204
H           -7.48784989171081       22.59513863830190        8.78782041303634
H           -7.36601745953522       22.14291146010364        7.27910134933628
C           -3.45686492197023       26.99847847161352        6.82099179431229
H           -2.91328933661533       27.80456614389271        7.30117597569889
H           -3.44366185558017       27.12557930609766        5.74442340700432
H           -3.04839223451012       26.03088297335094        7.08810305841338
S           -5.21119516122629       27.09384613480361        7.33114194192938
H           -4.96875093636955       26.95703204772518        8.65314408047417
72
 energy: -105.972051088816 gnorm: 0.020611824016 xtb: 6.7.1 (edcfbbe)
Fe          -6.18841814167006       24.75390554193033        7.55604939390692
N           -4.42164000397697       23.87133644623150        7.29151545212882
N           -5.81759955764884       24.90347037856714        9.52496883306116
N           -7.93747070155477       25.68847832182498        7.80433049797404
N           -6.59081593534618       24.51645617137408        5.62879808589136
C           -3.85702603272404       23.50360838584270        6.11142000481054
C           -2.53886916410550       22.94942993477740        6.32865079473506
C           -2.35097600332103       22.93204255905990        7.67531438803640
C           -3.53074547324600       23.52311157857439        8.25780482088566
C           -4.75298142186588       24.38535325062001       10.20018503509436
C           -4.83045642724077       24.70342858877831       11.60077265132865
C           -5.96858294536030       25.45481228812088       11.76316848912484
C           -6.57261218338082       25.55264193862619       10.44723124875407
C           -8.33648462313380       26.33982180187598        8.93049237815812
C           -9.54621399962628       27.08052538063771        8.68902855389527
C           -9.91203937891476       26.82297524851460        7.39278553842923
C           -8.87139286472153       25.95630469844375        6.86072806538279
C           -7.76607215036880       24.79995430394366        5.00811472733130
C           -7.72746128565533       24.37380871486586        3.62664572791455