78
 energy: -116.058078350849 gnorm: 0.000034363245 xtb: 6.7.1 (edcfbbe)
Fe          35.03933064823233        4.06846650620330       10.27561607375019
N           36.90304738850198        3.74147964986524        9.65249942082129
N           34.70876270042297        5.26658190036481        8.71695537629541
N           33.17894645876338        4.43615564412388       10.95824405463676
N           35.38032174644346        2.90340564796025       11.88275792913416
C           37.85222371993316        2.97918058375430       10.25553650806645
C           39.08214901452619        2.99184701192906        9.49257867727969
C           38.84909115665609        3.77858158314228        8.40934758902814
C           37.48107559998635        4.23703903704833        8.52748599049456
C           35.57658878867993        5.54766192526198        7.70995583988424
C           34.98162557744008        6.44729860038345        6.75345872375258
C           33.71988192039081        6.71591570439395        7.21124688676214
C           33.57147253947545        5.95376498819421        8.43789540159044
C           32.24026243446304        5.23201976742530       10.37269895663923
C           31.01908628915574        5.22916891276517       11.13432654097192
C           31.23422280342000        4.39954562848958       12.20404321559999
C           32.58977392658556        3.90735658070270       12.06260538622203
C           34.49378082865908        2.58102502570142       12.86414436013043
C           35.09539033103714        1.67805003034192       13.81871486899542
C           36.36725287412184        1.45718401395064       13.38778045704842
C           36.52489029463727        2.22782484588280       12.17599622312532
C           37.68764863076812        2.26590105247486       11.42870516432609
H           38.52859392194657        1.69165586170309       11.78673234339490
C           36.87112420966204        5.06925981687114        7.61186151738636
H           37.45754372714239        5.38823644841793        6.76381724615609
C           32.42394526785925        5.95605370427360        9.20681298456658
H           31.60127968137237        6.56955203257708        8.87259371018233
C           33.19690983438412        3.04874812927447       12.96049879031388
H           32.61295135106996        2.71420288883683       13.80394258627520
C           39.76539566842088        4.14490581457299        7.29281929774056
H           40.73880451333891        3.67775122184217        7.42113547995906
H           39.90577430920680        5.22513627628731        7.25348668616929
H           39.35311600397343        3.82245176896790        6.33634626977438
C           40.32243240763047        2.26346307510582        9.88390358273210
H           40.13636359656299        1.19076537122885        9.94769726568990
H           40.67448521191425        2.60346424841312       10.85802002395289
H           41.11383596210544        2.43015359034014        9.15742003915178
C           35.62824322935892        6.91068628307911        5.49513183873985
H           36.21279190199437        6.10978146394554        5.04484805879706
H           36.29816359487645        7.74983593503944        5.68909486239592
H           34.87132395798942        7.23304250373825        4.78286510363088
C           32.69124609589205        7.54668273920236        6.62557350583589
H           31.67204112316483        7.21008556915382        6.77845817865364
C           32.90097427414192        8.66568555070005        5.93965570945107
H           33.88607793023778        9.07430924281136        5.79817239779284
H           32.08515104566960        9.22923102603457        5.51795106761836
C           29.76949083876483        5.94394503383853       10.75435350784310
H           28.91331184224509        5.48495183577916       11.24447040989146
H           29.61567479314717        5.90601281211634        9.67690058330539
H           29.81481347010318        6.99322577947910       11.05099992835454
C           30.33021613951328        4.03022956881853       13.27073364957434
H           30.43926552899655        3.01985373157531       13.64790656564228
C           29.40995046718597        4.82289002620355       13.81038341875575
H           29.28926184649205        5.84887417868673       13.50922183396624
H           28.75885140904157        4.47682267340053       14.59598030310650
C           34.39757801593030        1.13511083173679       15.01835730376959
H           33.51738134634852        0.56325564063666       14.72337072468840
H           34.07039621460535        1.94444332245357       15.67161164016150
H           35.05548748532909        0.48192774942067       15.58638046485989
C           37.43530472151394        0.60967527807006       13.98999874831687
H           37.74689117063022       -0.16942342778897       13.29357735486585
H           37.08290415466423        0.13258476248351       14.90113965836470
H           38.31037199193537        1.21218022869983       14.23478312930623
O           35.71217355394081        5.82931208840341       11.58116955844058
H           34.85762431480029        6.19570929851718       11.83347480477838
H           36.04845675593094        5.34438543123429       12.34268995287771
C           32.08161917973422        0.55092620655039        7.12140172101716
H           31.60263705657427       -0.29172479245510        7.61989007806902
H           32.52356467616928        0.19100782962685        6.19234887663866
H           31.32377612379483        1.29035886500770        6.88256481203061
N           34.19581531462203        0.46096236595116        8.46077332175290
H           34.39690289195319       -0.50644725602989        8.26770637861339
C           33.11474804908836        1.16246449572248        7.99499748388093
C           34.93325053189537        1.30147533909852        9.22107713006917
H           35.84036193926057        1.02379640268445        9.71703724739935
N           34.38507577734279        2.49151740052639        9.26488761105964
C           33.25355278445498        2.42080951633484        8.50645242916131
H           32.61889512174110        3.27329158042199        8.38092717850387
