78
 energy: -116.057982353960 gnorm: 0.000057128139 xtb: 6.7.1 (edcfbbe)
Fe           9.73737279836807        2.15083382755286       26.06216813363132
N            8.92933809278003        2.26810467811134       27.90372478011908
N            9.81888159628229        4.16228404761940       25.98448548501495
N           10.48126982378097        2.04355258190064       24.21667979719157
N            9.59469702248597        0.16407074215518       26.13524092670637
C            8.54561128387351        1.23150583368798       28.69692000484413
C            8.06082798526989        1.71358760618844       29.96982410914493
C            8.17128970574196        3.06935241352555       29.93266666792404
C            8.71723448253261        3.39745283129873       28.63523099007148
C            9.48348225683697        5.03701735715489       26.97418622909593
C            9.73517127348549        6.39403757917328       26.56521333075463
C           10.24467966407406        6.32609240911273       25.29465379359705
C           10.28246224630454        4.91791191842973       24.95424821644766
C           10.83899626071112        3.08463486400166       23.41648011537306
C           11.35518605394866        2.61085868117557       22.15635181172482
C           11.31015451432091        1.24399373791823       22.21413038716451
C           10.74973723520278        0.91740531165376       23.51241938549936
C            9.99218275070741       -0.71265367646234       25.17808659352726
C            9.74832638706934       -2.07608294228403       25.59788905662068
C            9.18821449512143       -1.99993499530048       26.83397183839350
C            9.10532887122526       -0.59116875564715       27.15418045802866
C            8.61116424733494       -0.10609576504090       28.35067952654197
H            8.26116290768038       -0.82547873391876       29.07531866981831
C            8.97142717505202        4.68696872546344       28.21222842361463
H            8.76369130688068        5.48527919621020       28.90791686962753
C           10.75732392318426        4.42433336527264       23.75406601892141
H           11.11076027108287        5.14041275296266       23.02792139257455
C           10.54322830479845       -0.37392665200550       23.95810923085188
H           10.82180481917302       -1.18171846827671       23.29888828290098
C            7.81841886325959        4.07388381733288       30.97550336587247
H            8.69377687452474        4.66134254055858       31.25337726375493
H            7.43571661204989        3.58631176075427       31.86875773100447
H            7.05532769533196        4.75967852947440       30.60612301576283
C            7.55416434374237        0.83638612849823       31.06317871868367
H            8.33267694640164        0.15007918279048       31.39789117971917
H            6.70780661602674        0.24260848831591       30.71721321529581
H            7.23077835003072        1.42833173775172       31.91583792823911
C            9.41774253776710        7.60595878291003       27.36989979002779
H           10.20917874170691        7.81172079840702       28.09252864523472
H            8.48700119774094        7.47227836252215       27.91944175906398
H            9.31551287063514        8.47072501345388       26.71731861880668
C           10.64852358346211        7.39811319640193       24.41217276455110
H           10.47828376561039        7.22404787848817       23.35586246246611
C           11.20472059539359        8.54344009323131       24.79346108363231
H           11.44122736656031        8.75115945081758       25.82240351492669
H           11.46841107672257        9.30637221659655       24.07985915160881
C           11.77094625600247        3.47799648022952       21.01957836465446
H           12.78730372425076        3.84926661983519       21.16262873688277
H           11.10805801875000        4.33714405261006       20.92792690687943
H           11.73911525853804        2.91383169598193       20.08978985014030
C           11.69072155362170        0.27363554158856       21.21172344561978
H           11.09389414288133       -0.63060023352614       21.18574393863820
C           12.69497222020144        0.40686620487447       20.35130298277367
H           13.34954283508198        1.26090320027626       20.36214408463561
H           12.91376292209539       -0.35229135366863       19.61864056769281
C           10.06689943678378       -3.27827011983832       24.77726651199261
H           11.12911031850792       -3.30556597611698       24.53333652192298
H            9.50593243079674       -3.26165579825905       23.84270731931155
H            9.81398193984867       -4.19078341243809       25.31173010332440
C            8.72805804496948       -3.09593451302835       27.73349038176194
H            9.27040977568916       -3.07256979533840       28.67939954138928
H            8.88815657150881       -4.06709108863168       27.27189915618736
H            7.66499986356974       -2.99141200325782       27.95133703556557
O            7.59270360660701        2.34001936790995       25.26832038103591
H            7.10596349257740        2.17707497530476       26.08355524258837
H            7.55540049506148        3.28790990895795       25.10014924928192
C           15.12350418144480        2.95462588960490       27.25055238254292
H           15.81143414618966        2.12612093251760       27.08208044489838
H           15.37425652100453        3.41725042984618       28.20502774366815
H           15.26145940536808        3.68716181546157       26.46156636532319
N           13.24588901883150        1.56208898576083       28.14901185872468
H           13.78338991302066        1.12721357237187       28.88082271820475
C           13.71652974707948        2.48048448185872       27.24746723633879
C           11.93921095569051        1.35006707131460       27.87379346154769
H           11.31142763910088        0.67734638790153       28.42080851497117
N           11.55443869431645        2.07781889431515       26.85351722060059
C           12.64904565545737        2.78632658256095       26.45294912352207
H           12.59620542290424        3.46495275308815       25.62702187302212
