78
 energy: -115.983908775415 gnorm: 0.211860431627 xtb: 6.7.1 (edcfbbe)
Fe           9.89500000000000        2.13500000000000       26.23500000000000
N            8.94500000000000        2.32500000000000       28.00200000000000
N            9.91200000000000        4.20500000000000       26.07900000000000
N           10.55800000000000        2.11600000000000       24.25100000000000
N            9.63600000000000        0.29100000000000       26.22900000000000
C            8.49700000000000        1.26000000000000       28.77300000000000
C            7.97900000000000        1.74300000000000       30.01300000000000
C            8.09600000000000        3.08600000000000       29.97700000000000
C            8.69100000000000        3.44900000000000       28.73900000000000
C            9.47700000000000        5.04000000000000       27.01900000000000
C            9.62400000000000        6.39000000000000       26.53900000000000
C           10.12700000000000        6.34000000000000       25.27200000000000
C           10.32000000000000        4.89500000000000       25.01100000000000
C           10.97700000000000        3.13700000000000       23.46400000000000
C           11.54500000000000        2.64700000000000       22.27900000000000
C           11.45100000000000        1.26100000000000       22.34900000000000
C           10.83400000000000        0.97000000000000       23.58500000000000
C            9.93900000000000       -0.53300000000000       25.22200000000000
C            9.51600000000000       -1.89100000000000       25.53200000000000
C            8.95700000000000       -1.85300000000000       26.75700000000000
C            9.03100000000000       -0.44200000000000       27.18600000000000
C            8.52600000000000       -0.05400000000000       28.41500000000000
H            8.14700000000000       -0.80800000000000       29.10400000000000
C            8.97800000000000        4.72800000000000       28.31300000000000
H            8.81200000000000        5.54900000000000       29.01000000000000
C           10.85200000000000        4.46100000000000       23.79700000000000
H           11.18400000000000        5.21000000000000       23.07900000000000
C           10.57000000000000       -0.27900000000000       24.01400000000000
H           10.86300000000000       -1.12100000000000       23.38800000000000
C            7.67800000000000        3.97100000000000       31.11000000000000
H            8.37500000000000        3.83400000000000       31.96400000000000
H            6.65100000000000        3.70200000000000       31.43700000000000
H            7.70800000000000        5.03400000000000       30.78700000000000
C            7.38900000000000        0.97400000000000       31.18400000000000
H            7.56400000000000       -0.11400000000000       31.04000000000000
H            6.29500000000000        1.15800000000000       31.24100000000000
H            7.87800000000000        1.29500000000000       32.12900000000000
C            9.29200000000000        7.65300000000000       27.28100000000000
H           10.23000000000000        8.18700000000000       27.54300000000000
H            8.74500000000000        7.40600000000000       28.21600000000000
H            8.66900000000000        8.31200000000000       26.64000000000000
C           10.47900000000000        7.43700000000000       24.31500000000000
H           10.72800000000000        7.17600000000000       23.27600000000000
C           10.51300000000000        8.73700000000000       24.63700000000000
H           10.27400000000000        9.06500000000000       25.65900000000000
H           10.78000000000000        9.49200000000000       23.88300000000000
C           12.13300000000000        3.49200000000000       21.16200000000000
H           13.24000000000000        3.51000000000000       21.25400000000000
H           11.74800000000000        4.53200000000000       21.23600000000000
H           11.86100000000000        3.05500000000000       20.17800000000000
C           11.89300000000000        0.23900000000000       21.37600000000000
H           11.55900000000000       -0.79800000000000       21.52300000000000
C           12.67100000000000        0.46400000000000       20.32100000000000
H           13.04400000000000        1.47700000000000       20.10900000000000
H           12.95100000000000       -0.36000000000000       19.64800000000000
C            9.73900000000000       -3.10100000000000       24.65800000000000
H           10.82900000000000       -3.25100000000000       24.50300000000000
H            9.25200000000000       -2.94600000000000       23.67100000000000
H            9.31800000000000       -4.00300000000000       25.15100000000000
C            8.33600000000000       -3.01600000000000       27.52600000000000
H            9.11600000000000       -3.51000000000000       28.14399999999999
H            7.91800000000000       -3.75800000000000       26.81200000000000
H            7.53300000000000       -2.63800000000000       28.19400000000000
O            7.93100000000000        2.30800000000000       25.61800000000000
H            7.41100000000000        2.40300000000000       26.41600000000000
H            7.61900000000000        2.29800000000000       24.78500000000000
C           15.46100000000000        2.74200000000000       26.89400000000000
H           16.15900000000000        1.88400000000000       26.78600000000000
H           15.76400000000000        3.34400000000000       27.77700000000000
H           15.51000000000000        3.36400000000000       25.97500000000000
N           13.71600000000000        1.41600000000000       28.14900000000000
H           14.34100000000000        1.12100000000000       28.87100000000000
C           14.06800000000000        2.23100000000000       27.08400000000000
C           12.43400000000000        1.10200000000000       28.04700000000000
H           11.89900000000000        0.46300000000000       28.74800000000000
N           11.93000000000000        1.70100000000000       26.95000000000000
C           12.93700000000000        2.40500000000000       26.34400000000000
H           12.75900000000000        2.96900000000000       25.43700000000000
78
 energy: -116.023042701295 gnorm: 0.081750453403 xtb: 6.7.1 (edcfbbe)
Fe           9.88208478237066        2.14128205420547       26.21990782745999
N            8.97728323564894        2.30783181207965       28.02532991243114
N            9.93448187140114        4.19739136111714       26.08199072364737
N           10.56947956883831        2.10539533040175       24.26290080716913
N            9.62165917783618        0.27213809287347       26.22672548572547
C            8.51406153555068        1.26168645797822       28.78688611516818
C            7.98043614731140        1.74646022384386       30.02493789466597
C            8.10401039258192        3.09938768817898       29.99003894945069
C            8.71742727790916        3.44518751137211       28.73948364867951
C            9.49758544959529        5.05338455936811       27.02543939853073
C            9.63052530221600        6.40978949582698       26.54228934268832
C           10.13993873239517        6.35049710788524       25.27254841032313
C           10.32382367208886        4.91554309918740       25.00926937960548
C           10.98322127070974        3.13036347349639       23.47144039819396
C           11.55344312992679        2.64077506724718       22.26071168524926
C           11.46731926866875        1.26272879490513       22.32390330014951
C           10.84913373426493        0.96962089585521       23.58225889293420
C            9.94249970398397       -0.56883101371634       25.22330394041105
C            9.52537376117617       -1.91975588869206       25.53936346060600
C            8.95325419249611       -1.87282506060428       26.76284565285541
C            9.02864167732494       -0.47630724845280       27.18794214079708
C            8.53714974993851       -0.06095370975814       28.41026297305929
H            8.14864527625698       -0.80351391941590       29.09250508040895
C            8.99425274897091        4.72673810947963       28.29460156878665
H            8.80270771609696        5.54257438625548       28.98144773122403
C           10.84884473355327        4.46472904631727       23.81043832754078
H           11.17595692865185        5.20568266502993       23.09457004314362
C           10.57251218022856       -0.29674652418500       24.02460093336541
H           10.84692494212198       -1.12975140948844       23.39593744264081
C            7.68007053270085        3.98961613323818       31.10711640387316
H            8.35752405836556        3.85198610039994       31.95840107494205
H            6.66894516408188        3.72296197595152       31.43395458301614
H            7.69978281528159        5.03817268422838       30.80427556737673
C            7.39555678676206        0.96948959910725       31.16945889005493
H            7.55865857341823       -0.10455161783996       31.04642999756268
H            6.31729094382108        1.15245963145693       31.24235668267484
H            7.86273453888748        1.28671608715351       32.10826726150634
C            9.28265570697868        7.65118770151649       27.29254169035925
H           10.20380876171116        8.18493218183356       27.55627663994091
H            8.74114042639472        7.42055281495624       28.21211852827566
H            8.66279233912767        8.30229237656418       26.66742239316750
C           10.47044214686460        7.43026516640074       24.33515113008475
H           10.71400090444203        7.15247207508025       23.31029780681386
C           10.51001605115681        8.72916400791335       24.63432240096936
H           10.29629667016167        9.08555133105172       25.62882406780371
H           10.77390597076798        9.47185068039542       23.89001123131555
C           12.12787230929034        3.48982433456123       21.16636094093956
H           13.22193550675202        3.51483877786076       21.24727993386279
H           11.75566127496265        4.51567682585255       21.22991525779124
H           11.85605888953607        3.07941611084128       20.18996661206326
C           11.89405016883132        0.25244433842672       21.36683132785793
H           11.55520969961044       -0.76942376656037       21.53578416008839
C           12.67421676324795        0.46392263538811       20.31165851140448
H           13.06667257675634        1.44489393785237       20.09318142968877
H           12.94868726530235       -0.34665215158775       19.64838976987772
C            9.74150072661033       -3.10595018678373       24.65857812543771
H           10.81435884491841       -3.26020462441579       24.49995537483113
H            9.26200043756401       -2.95868762693857       23.68459319538001
H            9.32737741567642       -3.99840134418020       25.13279306684364
C            8.34030642273770       -3.00886097544851       27.52920008381443
H            9.10201156275360       -3.50483768906334       28.14176498859192
H            7.92393358679935       -3.74394510875198       26.83419631798728
H            7.54139305954802       -2.65216334661684       28.18400618400659
O            7.90958189692127        2.30770966953812       25.60924378257101
H            7.36996622377228        2.40811021243814       26.39528771748787
H            7.56353976392399        2.30396607382720       24.73575255791107
C           15.46181214760568        2.73854284754553       26.89802985408587
H           16.16068692440444        1.90171878299174       26.78756910876797
H           15.77055807341423        3.33980939524976       27.76006789106155
H           15.50926943182802        3.35493902701252       25.99747316332833
N           13.72300833114179        1.42195479990805       28.13870935566191
H           14.34866232231722        1.11694654164610       28.86529734381831
C           14.07497612690350        2.23327973355457       27.08585716623550
C           12.41906365151682        1.12982523445066       28.02948702363203
H           11.88811223975407        0.49214629759301       28.71670624920527
N           11.90609355476954        1.73327448244444       26.96585105168639
C           12.93112310808435        2.40439853552401       26.36182228581372
H           12.75899914170743        2.96086683784076       25.45928235161773
78
 energy: -116.035796207764 gnorm: 0.028034141107 xtb: 6.7.1 (edcfbbe)
Fe           9.87391385700293        2.14953713707811       26.20330952422202
N            9.01023606081205        2.29336781470532       28.04124841355337
N            9.95414909968931        4.18886177465322       26.08678860712712
N           10.58609574393497        2.09004897909632       24.27609595935686
N            9.61125615436822        0.25185662056824       26.22156356562251
C            8.54323198084070        1.26294778682282       28.79821358965072
C            7.99416930198562        1.75092228883755       30.03311269933866
C            8.12224049572825        3.10941850602631       29.99828213819309
C            8.75423505573462        3.43781484934739       28.74178792103859
C            9.52058264527598        5.06083876943557       27.03497846132204
C            9.64109595456454        6.42119147211078       26.55593132490990
C           10.15218203700640        6.35478366259137       25.28387554143070
C           10.33471232644327        4.93142334646658       25.01549948164485
C           10.99173494561290        3.12230725117461       23.48580551322712
C           11.55970446646956        2.63820498423347       22.25587569717208
C           11.48371760296996        1.26448580393427       22.31179399842906
C           10.86457201857678        0.96318145802194       23.58390656201475
C            9.94650790612384       -0.60376682598169       25.22245985339673
C            9.53766000816191       -1.95024728439548       25.54722793549103
C            8.95304390762252       -1.89372192357440       26.76932091504864
C            9.02626228442683       -0.50768866915201       27.18699230141192
C            8.55211631493588       -0.06410296780560       28.40488031009111
H            8.14868690861453       -0.79647607752334       29.08463080539861
C            9.01596437832892        4.72040538396465       28.28338755964126
H            8.78386966142750        5.53327869854200       28.95817100607231
C           10.85233695177163        4.46086478371707       23.82694991826563
H           11.17085993826886        5.19373950967594       23.10389535331957
C           10.57436157206483       -0.31143113538071       24.03100571802937
H           10.83102139881131       -1.13979836101898       23.39494001638887
C            7.68692880814237        4.01123117115916       31.10052036866268
H            8.34839614938852        3.88102449125017       31.95798135652072
H            6.68075536972438        3.74701036269707       31.42306013745840
H            7.69933331355164        5.05320125349160       30.80666668307390
C            7.40379333954974        0.96828334269256       31.15678553238006
H            7.56126149451136       -0.09803278097090       31.03720699402596
H            6.33143446285887        1.15042698715802       31.23312762868029
H            7.85594128497601        1.27946331417728       32.09770598960800
C            9.27285456730417        7.64899732429794       27.31064245951216
H           10.17821599029702        8.19288496120614       27.58168702511705
H            8.72967448639098        7.41876006683489       28.21917051295659
H            8.65299538891038        8.29546863564510       26.69233486534442
C           10.46611084481239        7.41899948176047       24.35956916423261
H           10.69419960352664        7.12066363673202       23.34289416622571
C           10.51476844329590        8.72256477948339       24.63304385656171
H           10.31891086940626        9.11476193844909       25.60952483570939
H           10.76460601072444        9.44938220037838       23.87950908080348
C           12.11841788874063        3.49253411601232       21.17207957556184
H           13.20724919504785        3.52042681076242       21.23984065835810
H           11.75224015471815        4.51195367019668       21.23832176598905
H           11.84490048767276        3.09673261934309       20.19735389393574
C           11.90082198893392        0.26555438520399       21.36204448143994
H           11.54379473078286       -0.74131337915119       21.54370569109143
C           12.68486460279835        0.46141748797364       20.30372219877328
H           13.09749784989024        1.42126850261269       20.07088079738726
H           12.94399620902602       -0.34534971785695       19.64261782502063
C            9.74561686910974       -3.12465318458842       24.66094989256308
H           10.80975668259188       -3.28076452559991       24.49365108349488
H            9.26781992500501       -2.97145182859152       23.69514317217376
H            9.33312038587194       -4.01707525284166       25.11853991266804
C            8.34230984725129       -3.01230171027229       27.53619761273886
H            9.09291360415252       -3.50640400436752       28.15249442953592
H            7.92720716624545       -3.74798864728019       26.85238186639192
H            7.54450537531788       -2.66006559289761       28.18173097617064
O            7.87463493598075        2.30853995925538       25.58149423187425
H            7.29965546213848        2.41916030035729       26.34337991292220
H            7.50247070496179        2.31922397036967       24.70070831303264
C           15.46340818982999        2.73482123819472       26.89834257150667
H           16.16164350538521        1.90737204299481       26.78718039025938
H           15.77413595493042        3.33372777634457       27.75255742752575
H           15.50901506689678        3.35169004918405       26.00819688268586
N           13.71900955103992        1.42553449582840       28.12855274776954
H           14.34018891780068        1.10324836015588       28.85527516515958
C           14.07805437699700        2.23746463745315       27.08515424730026
C           12.39459772839530        1.17207863912717       28.01743831871918
H           11.85934091700068        0.53748272824804       28.69415107467102
N           11.88947670434497        1.77822088148866       26.97206839461033
C           12.92695855237297        2.43102434295707       26.37640320420292
H           12.76667506382345        2.98555202676963       25.47607993678441
78
 energy: -116.041417779491 gnorm: 0.024225330893 xtb: 6.7.1 (edcfbbe)
Fe           9.86452316516815        2.15468401567631       26.19049096322641
N            9.03849300582905        2.28679163376698       28.04938517113580
N            9.96915753168864        4.18340984559860       26.09553749375749
N           10.59978904632302        2.07661341308246       24.28738225662255
N            9.61041519652340        0.23336552069485       26.21680056174295
C            8.57025977024192        1.26138475115727       28.80362261739384
C            8.01672340444589        1.75236628634041       30.03824152132228
C            8.14607521474939        3.11188311865381       30.00362804221013
C            8.78457437395407        3.43101663672227       28.74652531617245
C            9.54025681716066        5.06154074987665       27.04744502865707
C            9.65601566441724        6.42269961390914       26.57699532302517
C           10.16739184622429        6.35504714937992       25.30405603818297
C           10.34988876022036        4.93776158912823       25.02892070152445
C           11.00013859429854        3.11579697459600       23.50240288303619
C           11.56579006075587        2.63879008895854       22.26417543274015
C           11.49691064242620        1.26589251899942       22.31268889838674
C           10.87726382981198        0.95373631661576       23.58897613390595
C            9.95119473297249       -0.62979194099103       25.22109626487762
C            9.54838310043320       -1.97556846449321       25.55334595890762
C            8.95767637062321       -1.91197335653721       26.77479031903559
C            9.02804127708010       -0.52791062807663       27.18591498413985
C            8.56531833464050       -0.06632727576525       28.40193027076785
H            8.14998414966941       -0.79211893579669       29.08304445936390
C            9.03151611967047        4.71372070878119       28.28584414888433
H            8.76798473021665        5.52357488086201       28.95284112520666
C           10.86042284205558        4.45408431261791       23.84260497704531
H           11.17367528350882        5.18109246855955       23.11067383944260
C           10.57695190897118       -0.32351787580673       24.03185680598115
H           10.82087314607599       -1.15063030324117       23.38687490770950
C            7.69843732440564        4.02839195909108       31.09135290689882
H            8.34862350940055        3.91376592688717       31.96014722623724
H            6.68874744202681        3.76745912180896       31.40612013649202
H            7.70780622240915        5.06911600692110       30.79050119706248
C            7.41381343287137        0.96540660040320       31.14957731463125
H            7.56847902634279       -0.10046725880388       31.02445232733025
H            6.34106544066042        1.15012228981416       31.21728451065952
H            7.85509618405162        1.26925653995744       32.09840833076088
C            9.26365511853078        7.64361201908007       27.33222909455023
H           10.15469380355823        8.20420831230990       27.61751429245852
H            8.71191147219933        7.40402870372855       28.23396961695012
H            8.64029061532005        8.28508320541905       26.71159298034888
C           10.46313408073294        7.41268374460951       24.37500480545294
H           10.67542235451075        7.09579210267049       23.36101494014920
C           10.51603645604628        8.72162064050424       24.62361132748137
H           10.35329200487698        9.14388966495044       25.59698604134279
H           10.75796601385439        9.42977381997447       23.84979728874677
C           12.10829500055591        3.49951796927232       21.17879420638564
H           13.19816157758679        3.52944770981235       21.22997188281911
H           11.74186750086944        4.51825664633733       21.25462886318945
H           11.82365756948610        3.11053943314662       20.20369748061975
C           11.90493281793651        0.27420196729977       21.35500671302580
H           11.53222869630511       -0.72474723425608       21.54106010003130
C           12.69131161504359        0.45607169313844       20.29440706661363
H           13.13965615755536        1.40177651956568       20.05838167423036
H           12.93632781986759       -0.35747823315358       19.63531374956373
C            9.75074301671708       -3.14984027401727       24.66413128675109
H           10.81303458102281       -3.31047638394408       24.48793592592656
H            9.26970957164927       -2.98898155361535       23.70085286668239
H            9.33720530176075       -4.04677366470406       25.11287177560873
C            8.34398185387835       -3.02438445734479       27.54787499356819
H            9.08853525437582       -3.51509124837375       28.17464063531537
H            7.93067838244535       -3.76731598158324       26.87038241233311
H            7.54223133451735       -2.66667885553957       28.18627049009625
O            7.83147287762301        2.30659896285126       25.54154973817314
H            7.22056157303831        2.43771525551205       26.27477510897493
H            7.44627499591976        2.34117199526493       24.66142082404589
C           15.46483031257744        2.73237194466517       26.89901014721090
H           16.15970089982127        1.90293523142833       26.78594422073358
H           15.78023931115399        3.32837612939532       27.75372698866707
H           15.51319873617435        3.35216978752604       26.01112770819556
N           13.70164250459002        1.43286304479932       28.11992797004407
H           14.31610837217950        1.08871085526460       28.84279805164540
C           14.07460526060665        2.24825073272657       27.08339249475173
C           12.36582548103759        1.21475955255126       28.00672743736233
H           11.81751318588641        0.58689140235393       28.67826157478990
N           11.87363424552268        1.84284137957158       26.97230606946860
C           12.92506542029794        2.47743599217595       26.38132705785422
H           12.77960935004464        3.04270646927735       25.48582570336443
78
 energy: -116.045226660791 gnorm: 0.021691832678 xtb: 6.7.1 (edcfbbe)
Fe           9.86835570872045        2.16137689874128       26.18656987319925
N            9.05502554879328        2.28354739481418       28.04729312432583
N            9.97200910304385        4.17993856727708       26.10228295163547
N           10.60756763671042        2.06444109853876       24.29954702938806
N            9.61821284554465        0.21392054835552       26.21397790356275
C            8.59167257192145        1.25778848957803       28.80278492685294
C            8.04174370799708        1.75031914940431       30.04109878186598
C            8.17093452288783        3.10899723373663       30.00710969596616
C            8.80593916587912        3.42383813155362       28.74840773267066
C            9.55291024214100        5.06091593235684       27.05915820643084
C            9.67277726368628        6.42159036541836       26.59897603839735
C           10.18520811433901        6.35471666432137       25.32592444899401
C           10.36162185197143        4.94081613118064       25.04316864525099
C           11.00531381502727        3.10946979589360       23.52076769986277
C           11.57156491323121        2.63928556594777       22.27932546144133
C           11.50869372784815        1.26692592599583       22.32104369644656
C           10.88544207509030        0.94336868559352       23.59629984872553
C            9.95656111895832       -0.65362550345097       25.21992102738966
C            9.55686248795911       -1.99956665885816       25.55839034289570
C            8.96424909553009       -1.92999536608666       26.77996887789807
C            9.03354412690401       -0.54467706508493       27.18532282884231
C            8.57803331395356       -0.06935288430724       28.39903716908459
H            8.15481177466691       -0.78930981495281       29.08368791478891
C            9.04149663906304        4.70720440940078       28.29309840501530
H            8.76332448814108        5.51059002161656       28.95854076159678
C           10.86900714483756        4.44654119135850       23.85859336345988
H           11.18502374595661        5.16751345092395       23.12066085550981
C           10.57828520822503       -0.33519768719765       24.03045167606437
H           10.81409753843927       -1.16055038107431       23.37702187571806
C            7.71540471330435        4.04149205341529       31.07959109136728
H            8.35640546050194        3.94728404437817       31.95877696516780
H            6.70078717643711        3.78703615692455       31.38745927462044
H            7.72518036599056        5.07941146620008       30.76140745535579
C            7.42693888996929        0.95924612846925       31.14345298541373
H            7.57930567938720       -0.10726244756425       31.01105444844081
H            6.35295528778486        1.14741854463292       31.19835156097211
H            7.85771764774162        1.25438290520290       32.10074443884114
C            9.25999110325361        7.63794740869578       27.35242877683816
H           10.13620901794010        8.21289751127770       27.65767884359589
H            8.69442630839608        7.38753583689583       28.24547389108404
H            8.63792153861322        8.27517824043492       26.72414158613187
C           10.47091244474134        7.40878504823832       24.38969344628427
H           10.65065345846939        7.07920278736211       23.37248621083862
C           10.53326204802294        8.71937720225621       24.62110878779461
H           10.38113953362883        9.16329621619097       25.58696877553606
H           10.74211342339200        9.41246446726743       23.82077928480886
C           12.09768059624470        3.50341563643888       21.18725015285047
H           13.18880754858423        3.53864145730808       21.21968010694423
H           11.72796535108708        4.52185158216998       21.27042119436901
H           11.80022709639314        3.11301800469317       20.21517708732202
C           11.91340500318519        0.28156628183091       21.35318976263097
H           11.51370250795866       -0.70975759219404       21.52725015879453
C           12.70752075202860        0.45238865733033       20.29703240250312
H           13.17217776031770        1.38897244188744       20.05146390758686
H           12.92493580411304       -0.36544441690782       19.62912613341790
C            9.75442790325424       -3.17717312638403       24.66870426044595
H           10.81583231184489       -3.34367782898640       24.48509128727693
H            9.26898940531004       -3.01218315031443       23.70673056968420
H            9.33955541361166       -4.07644088921073       25.11459228832416
C            8.34673938777985       -3.03809954349566       27.56133262870483
H            9.08584164681394       -3.52198803969661       28.20178721051678
H            7.93809137021425       -3.79086235086739       26.89004103962315
H            7.53890174510010       -2.67218226845845       28.19023919578138
O            7.78867190104953        2.29390334749737       25.49869155427891
H            7.14116193800826        2.46938345774993       26.19476329829132
H            7.39446859141461        2.37649220793431       24.62216336474906
C           15.46477899076062        2.72829978295242       26.90117829200896