78
 energy: -116.058076562818 gnorm: 0.000033212886 xtb: 6.7.1 (edcfbbe)
Fe          -5.51099766396558       -5.75914620310462        8.55515013464627
N           -5.46829018824167       -7.52047949342538        7.62547634643165
N           -5.04289654897945       -4.82946837567812        6.85481606894207
N           -5.49524772347879       -3.99449945839630        9.52909326435497
N           -5.93174217696370       -6.69306812370766       10.28917762911932
C           -5.68018669448236       -8.74629971796810        8.17148756115119
C           -5.56024102908463       -9.78294165796871        7.16850005733851
C           -5.27457040877759       -9.15004787023711        6.00038715547926
C           -5.22262741835586       -7.73620776883552        6.30696561661262
C           -4.87006695655162       -5.40415302520349        5.63577528943130
C           -4.55132685186045       -4.41231726326948        4.63936584864502
C           -4.52589133463942       -3.20807706026912        5.28971747074661
C           -4.84835890797615       -3.49774909405573        6.67524813596385
C           -5.24385687431459       -2.76910101878895        8.98812552776289
C           -5.34759579534821       -1.73750250403752        9.98631895072471
C           -5.67869266744133       -2.36713292570747       11.15801002835227
C           -5.77692052196638       -3.77758438418861       10.84057940627936
C           -6.15685974236045       -6.11183049275572       11.49933277637829
C           -6.48291752453446       -7.11012310971087       12.49210728220874
C           -6.45477715074047       -8.31053174270685       11.85152638476656
C           -6.11234066666640       -8.02899755011200       10.47652455826004
C           -5.98568036317964       -8.99641702645444        9.49673990899688
H           -6.14109636856725      -10.02393860153158        9.78858497258656
C           -4.95388797067178       -6.75950810109131        5.37057715420976
H           -4.77486617378955       -7.08091611289302        4.35595463928788
C           -4.92497164646475       -2.53356387233364        7.66143329648311
H           -4.72228139421250       -1.51239579222116        7.37684829918896
C           -6.07899081022962       -4.75831261800610       11.76738235513227
H           -6.27168266499306       -4.44418652624802       12.78153793449760
C           -5.04233026130540       -9.72597685513268        4.64583817468161
H           -5.13566171272320      -10.80911158357108        4.66399275657824
H           -4.04323088291209       -9.47363076171510        4.29048105931994
H           -5.76510522276118       -9.33091423270770        3.93148141767872
C           -5.72674646807725      -11.23920893971405        7.43966433061566
H           -6.72470946163518      -11.44811457299518        7.82671666558260
H           -5.00043037490033      -11.57613834070105        8.17951085492142
H           -5.58415136107431      -11.81999531713493        6.53178917097824
C           -4.36347501571668       -4.68491710921086        3.18793918110335
H           -5.06038135160646       -5.44872674595635        2.84617095677548
H           -3.35062753144133       -5.03748920242026        2.98689665805571
H           -4.53150333792762       -3.77673886137871        2.61246983400266
C           -4.27240702977896       -1.88672006191239        4.75967594635569
H           -4.81935065100003       -1.07839431860846        5.23180202966244
C           -3.43438739460910       -1.60073733325423        3.76840307294461
H           -2.82882337130119       -2.35372384774353        3.29542830219617
H           -3.30478305013189       -0.59155653155657        3.41380450580459
C           -5.19050359488327       -0.27891030698419        9.73216015768570
H           -5.62311387064442       -0.00591569017288        8.77075275687870
H           -4.13636673757372        0.00335883792248        9.71906940317563
H           -5.68935764111237        0.29172188292683       10.51283921816738
C           -5.91931187894406       -1.79775308592642       12.46541214615233
H           -6.67108102066300       -2.29990103981322       13.06348213464956
C           -5.29456648991005       -0.73993287178476       12.97252374434146
H           -4.50695421429069       -0.23156325942424       12.44420519383194
H           -5.53407989635892       -0.36018620624564       13.95195097528987
C           -6.78097406659611       -6.80945062260405       13.92096301463158
H           -7.64638457084370       -6.15112597513953       14.00136122500358
H           -5.93380566745336       -6.31183130706335       14.39370702400456
H           -6.99282339216075       -7.72209664147259       14.47263037521862
C           -6.71130663878548       -9.67596882046787       12.39137673008278
H           -6.94489165776040       -9.63490975021130       13.45238166531206
H           -5.83589798424591      -10.31186987965513       12.25735630590010
H           -7.54954977258225      -10.14333819998441       11.87369367359843
C          -10.56913248505078       -3.82349692149039        7.23499859583202
H          -11.29561162797920       -3.72909738881075        8.04206354507454
H          -11.07705138553341       -4.24264442664945        6.36651295465330
H          -10.20233509203410       -2.83430506991080        6.97989162552834
N           -9.59487372392638       -5.99269135011666        8.02039970353819
H          -10.46930051124511       -6.49059840240888        8.05278050990733
C           -9.43179835456129       -4.68423134510998        7.64743649806721
C           -8.37514425923328       -6.48445169776403        8.33459866465448
H           -8.19796058107395       -7.48801393213198        8.66231453274812
N           -7.45054823781637       -5.56744143529274        8.18346091777705
C           -8.09236659309314       -4.44238677233943        7.75581544525488
H           -7.55196245752217       -3.54034244778534        7.55690834078561
O           -3.30390745321796       -5.94251389804679        9.14921124117837
H           -3.13817364877769       -5.05334905576052        9.48099063504740
H           -3.39189777641396       -6.51917081363047        9.91594207478456
