78
 energy: -115.890619621776 gnorm: 0.335060102412 xtb: 6.7.1 (edcfbbe)
Fe          -5.68700000000000       -5.66100000000000        8.52600000000000
N           -5.33000000000000       -7.42600000000000        7.78800000000000
N           -5.04600000000000       -4.76300000000000        6.77200000000000
N           -5.63200000000000       -3.97300000000000        9.53400000000000
N           -6.08500000000000       -6.69000000000000       10.29700000000000
C           -5.67900000000000       -8.76500000000000        8.26400000000000
C           -5.65000000000000       -9.82500000000000        7.24500000000000
C           -5.34400000000000       -9.14900000000000        5.99900000000000
C           -5.20200000000000       -7.72600000000000        6.37100000000000
C           -4.85900000000000       -5.33000000000000        5.57200000000000
C           -4.43400000000000       -4.39700000000000        4.49500000000000
C           -4.45300000000000       -3.12700000000000        5.20500000000000
C           -4.86400000000000       -3.46300000000000        6.59200000000000
C           -5.28200000000000       -2.65100000000000        9.01400000000000
C           -5.21200000000000       -1.58300000000000       10.07000000000000
C           -5.59300000000000       -2.30800000000000       11.30300000000000
C           -5.89700000000000       -3.71800000000000       10.92900000000000
C           -6.36700000000000       -6.12900000000000       11.51600000000000
C           -6.62800000000000       -7.03800000000000       12.65400000000000
C           -6.50900000000000       -8.31800000000000       11.97700000000000
C           -6.18300000000000       -7.99000000000000       10.58100000000000
C           -5.95600000000000       -9.07300000000000        9.64400000000000
H           -5.99400000000000      -10.10800000000000        9.98000000000000
C           -4.93800000000000       -6.76800000000000        5.32600000000000
H           -4.79100000000000       -7.13200000000000        4.30900000000000
C           -4.95600000000000       -2.41400000000000        7.60800000000000
H           -4.76900000000000       -1.38700000000000        7.29600000000000
C           -6.36100000000000       -4.74100000000000       11.85000000000000
H           -6.71800000000000       -4.43700000000000       12.83400000000000
C           -5.18200000000000       -9.74400000000000        4.59200000000000
H           -5.33800000000000      -10.84300000000000        4.63400000000000
H           -4.15800000000000       -9.53900000000000        4.21400000000000
H           -5.93500000000000       -9.29900000000000        3.90700000000000
C           -5.88400000000000      -11.31200000000000        7.47300000000000
H           -6.71100000000000      -11.45000000000000        8.20200000000000
H           -4.96200000000000      -11.77900000000000        7.88200000000000
H           -6.16400000000000      -11.79900000000000        6.51500000000000
C           -4.13600000000000       -4.75000000000000        3.05000000000000
H           -4.87600000000000       -5.49600000000000        2.69000000000000
H           -3.11700000000000       -5.18700000000000        2.97300000000000
H           -4.20700000000000       -3.83900000000000        2.41900000000000
C           -4.12700000000000       -1.72800000000000        4.74400000000000
H           -4.58000000000000       -0.84600000000000        5.21800000000000
C           -3.27400000000000       -1.56600000000000        3.74400000000000
H           -2.81100000000000       -2.43800000000000        3.25800000000000
H           -3.01800000000000       -0.55800000000000        3.38700000000000
C           -4.77700000000000       -0.16900000000000        9.84400000000000
H           -5.18600000000000        0.19500000000000        8.87700000000000
H           -3.66800000000000       -0.11900000000000        9.80800000000000
H           -5.16000000000000        0.47700000000000       10.66300000000000
C           -5.70600000000000       -1.80300000000000       12.69900000000000
H           -6.44900000000000       -2.22900000000000       13.38900000000000
C           -4.92400000000000       -0.84300000000000       13.13300000000000
H           -4.17000000000000       -0.39500000000000       12.47000000000000
H           -5.01300000000000       -0.47500000000000       14.16600000000000
C           -6.94700000000000       -6.68000000000000       14.10100000000000
H           -7.87900000000000       -6.07600000000000       14.13700000000000
H           -6.11500000000000       -6.08400000000000       14.53200000000000
H           -7.09600000000000       -7.60800000000000       14.69300000000000
C           -6.62000000000000       -9.71900000000000       12.52500000000000
H           -6.82400000000000       -9.67500000000000       13.61600000000000
H           -5.66600000000000      -10.26400000000000       12.35800000000000
H           -7.45500000000000      -10.25300000000000       12.02400000000000
C          -11.08900000000000       -4.26200000000000        7.63800000000000
H          -11.79700000000000       -4.88800000000000        8.22200000000000
H          -11.48400000000000       -4.13700000000000        6.60700000000000
H          -10.99300000000000       -3.27100000000000        8.13100000000000
N           -9.56400000000000       -6.17800000000000        7.04400000000000
H          -10.28500000000000       -6.71800000000000        6.61100000000000
C           -9.73500000000000       -4.94300000000000        7.58800000000000
C           -8.27000000000000       -6.53700000000000        7.19100000000000
H           -7.84400000000000       -7.47700000000000        6.84400000000000
N           -7.62900000000000       -5.53800000000000        7.83000000000000
C           -8.51400000000000       -4.54900000000000        8.09000000000000
H           -8.21200000000000       -3.64700000000000        8.60800000000000
O           -3.31200000000000       -5.37500000000000        9.28100000000000
H           -3.23000000000000       -4.46100000000000        9.55200000000000
H           -2.66900000000000       -5.98900000000000        9.29900000000000
78
 energy: -115.989906709370 gnorm: 0.157575963105 xtb: 6.7.1 (edcfbbe)
Fe          -5.63939048843423       -5.67674961269534        8.54865643967453
N           -5.38932348031511       -7.47336607596955        7.73342899621683
N           -5.05401834744300       -4.75852368933719        6.76947640026650
N           -5.64733054987968       -3.92867611143359        9.53927253022434
N           -6.10148532241015       -6.68577115060103       10.33027263602709
C           -5.66679993318547       -8.76481558660641        8.26714806885743
C           -5.63786426404623       -9.79519523363986        7.23432033982295
C           -5.34318547373486       -9.14114586781865        6.02705869448062
C           -5.19990663384702       -7.72175618926731        6.35348116095328
C           -4.84341570910511       -5.34783086516973        5.56931725698726
C           -4.44966952780444       -4.37797309313886        4.53512969790045
C           -4.46453843050840       -3.13290875290782        5.21531720557278
C           -4.86269896701842       -3.43831266311459        6.60345102212682
C           -5.27348536634776       -2.66387091840271        9.00851189970239
C           -5.22263876039464       -1.64146951700400       10.07478486040841
C           -5.60776072414673       -2.31600402332212       11.27285709233040
C           -5.89935787824786       -3.70902587385856       10.90778380966536
C           -6.37042471959685       -6.09499130568058       11.53356677677371
C           -6.62855790408157       -7.05461636200484       12.61504405411372
C           -6.50157679471588       -8.30066728925121       11.97709174694923
C           -6.17585781475640       -8.00942840488422       10.58286867283887
C           -5.94969853267918       -9.03901274203244        9.62618554510862
H           -6.00108526550074      -10.07331235122101        9.96027443688114
C           -4.93629792356267       -6.75761466181763        5.35431152818265
H           -4.79419489515387       -7.12005885203347        4.33886957862710
C           -4.96203544036711       -2.44346257204544        7.63056469582063
H           -4.77225344225981       -1.41828142365249        7.31737564203810
C           -6.34521945098047       -4.71613826253478       11.81241059796445
H           -6.68912762322390       -4.42561470878172       12.80307933349599
C           -5.18719470393077       -9.73215506363517        4.62924147705345
H           -5.33564401345380      -10.82060623509340        4.64210481932168
H           -4.18038480519302       -9.53920125939633        4.22853280352265
H           -5.91966933521833       -9.30368079757260        3.92707334330115
C           -5.88033743687380      -11.27649332616038        7.46791843994185
H           -6.69559933478197      -11.44100890326718        8.18789222346354
H           -4.97899041592486      -11.76462116085942        7.87148987312480
H           -6.15462755376639      -11.78375349274968        6.53237163491302
C           -4.14708458880246       -4.73642821233070        3.09008787418737
H           -4.86323932780776       -5.47997628310801        2.70623738673804
H           -3.13947850746624       -5.17296567187376        2.98267983428093
H           -4.20832402805465       -3.85391728463388        2.43805720858254
C           -4.13135987859764       -1.76535765336357        4.73982820910778
H           -4.57873984878169       -0.88970701851134        5.21987434840082
C           -3.27492594164051       -1.57283054374135        3.74105545324765
H           -2.80263208649556       -2.41885319621275        3.25786513938326
H           -3.02070958551571       -0.57472474028851        3.38978509603091
C           -4.79285351816992       -0.21010789177105        9.85191622040401
H           -5.17994904477402        0.17929606664490        8.89682243939091
H           -3.69332082497504       -0.12477562386619        9.81171614521987
H           -5.15577438498717        0.45566933786396       10.64949476662358
C           -5.70538562224237       -1.80575698439760       12.65987599715798
H           -6.43687950716311       -2.23959353719369       13.34928354206399
C           -4.92159818661922       -0.83910911721240       13.12371689007113
H           -4.16753280340991       -0.39250867893074       12.48806017831860
H           -5.00831932527155       -0.47737011854404       14.14706613338964
C           -6.94087631800596       -6.69414949308987       14.05952475092885
H           -7.86095298164369       -6.09129629028866       14.12865069576462
H           -6.12979352926094       -6.10234007649031       14.51400579087358
H           -7.08949894527939       -7.59402785268793       14.67258773581182
C           -6.61903231468941       -9.69718456229352       12.52468310381832
H           -6.82174535172443       -9.67420278135850       13.60226592989092
H           -5.68452336488047      -10.25474815328153       12.36245371221572
H           -7.43852190696111      -10.24288032198442       12.03294240309104
C          -11.08218734805081       -4.26588263242550        7.63751205397055
H          -11.78966788750329       -4.87786550994929        8.21311440278197
H          -11.48031026090629       -4.13564791802829        6.62252170946136
H          -10.99344833931089       -3.28724970058431        8.12043542483979
N           -9.56164750926645       -6.17087576989874        7.04645006575389
H          -10.28422595474571       -6.71700842636696        6.60882731572401
C           -9.73995909823496       -4.93650186161813        7.59518454487030
C           -8.26537998481034       -6.52434749679896        7.20176573605510
H           -7.84660050740722       -7.45584071547120        6.85365812784969
N           -7.61499110558714       -5.55792310881974        7.84570653345598
C           -8.51226673047195       -4.56275620792973        8.08697778286064
H           -8.21474715068173       -3.66282316685909        8.59885600389298
O           -3.34401381851543       -5.37218372829814        9.27094896939213
H           -3.22761125350819       -4.46593994542626        9.55217212849237
H           -2.64924406488915       -6.00219272961882        9.30079688095155
78
 energy: -116.029199128474 gnorm: 0.045744500801 xtb: 6.7.1 (edcfbbe)
Fe          -5.60311400481992       -5.69172269377586        8.56286132893241
N           -5.39987966609228       -7.51662878342003        7.69710665218972
N           -5.05154270579133       -4.75816765017651        6.78238610462437
N           -5.64671120959281       -3.89619380716519        9.54628410193929
N           -6.09939169001608       -6.67568384445165       10.35225189439886
C           -5.67150429315241       -8.74702976031731        8.25367590928006
C           -5.62434903038757       -9.77205832595862        7.22090613664100
C           -5.34336365757304       -9.13794085039353        6.04751267230116
C           -5.21605786114319       -7.71782950095726        6.35224877234877
C           -4.83510768883614       -5.36267316045901        5.58044605065042
C           -4.46074879986678       -4.36954629902475        4.57812602767818
C           -4.47358435493966       -3.14825077837787        5.23116343848051
C           -4.86439589901043       -3.42342732304183        6.62298311833132
C           -5.27715106783113       -2.68349241265724        9.00943656022160
C           -5.23086570312510       -1.68490538570157       10.07231664854641
C           -5.61643492730096       -2.31848210869040       11.23607567122727
C           -5.90606537825219       -3.70214656682944       10.87747361103408
C           -6.37091328620357       -6.06781434521393       11.53944552159555
C           -6.62783900582066       -7.06455949432794       12.58015441018392
C           -6.49308059464191       -8.27786260745446       11.97214769661317
C           -6.16356983993799       -8.01568388289609       10.57529747492619
C           -5.94984923694461       -8.99265951275456        9.59892827376982
H           -6.01083668993211      -10.02766185805745        9.92889787470998
C           -4.94439703492463       -6.74549147988223        5.38994285029487
H           -4.79383113966208       -7.10731823667820        4.37636857324820
C           -4.97051930825322       -2.47571417794746        7.65469996829504
H           -4.77201656520432       -1.45128515802489        7.34700981905303
C           -6.33170461761276       -4.69536775993121       11.76931934549285
H           -6.64610454058060       -4.40682154528792       12.76915532656549
C           -5.19105632763468       -9.72340144366327        4.66304746276215
H           -5.33580801704341      -10.80350571032928        4.66481252451137
H           -4.19477208006691       -9.53112012917457        4.25575235892803
H           -5.91287989932134       -9.29819952194821        3.95911307467980
C           -5.87335723181120      -11.24352363164549        7.46098354235577
H           -6.68265283756796      -11.41139815724904        8.17442618878612
H           -4.98423243581675      -11.73836274709055        7.86327483975422
H           -6.14334085784030      -11.75851979143811        6.53818027947217
C           -4.15979340724787       -4.72122765692069        3.13390873191452
H           -4.86273116776254       -5.46375244160474        2.74413903418493
H           -3.15900275932036       -5.15423832144365        3.01568589115176
H           -4.21670993615403       -3.85395464655475        2.47446664103275
C           -4.13534798708120       -1.81329366713185        4.73787317040227
H           -4.58276889371223       -0.94790804507820        5.22562723030622
C           -3.27803648016582       -1.58560488229953        3.74233194398053
H           -2.78787332619272       -2.40510981086174        3.25318444373616
H           -3.03135711997653       -0.59240938581447        3.39947708628068
C           -4.80734615696351       -0.24628720180769        9.85611765173925
H           -5.18609048626299        0.14749935724788        8.90933585634453
H           -3.71528434948168       -0.14958888135647        9.81832640848799
H           -5.16375252496707        0.41685895048338       10.64634940854812
C           -5.69938415211487       -1.80556724367791       12.61019878504881
H           -6.42422756993960       -2.25142318611594       13.29054697318391
C           -4.92127088595546       -0.84124867694406       13.10560911106315
H           -4.16059414430685       -0.38670788942817       12.50026666452400
H           -5.01100413165229       -0.49003077145074       14.12279970118771
C           -6.93640144554530       -6.71021359716983       14.01923846789942
H           -7.84738209279697       -6.10803930858010       14.10004518917927
H           -6.13321380193470       -6.12298940259529       14.47744104941848
H           -7.08148628523465       -7.59572925033036       14.63914962600969
C           -6.61778271404369       -9.66971064567166       12.52472033359114
H           -6.82057679224587       -9.66056848934920       13.59336106409658
H           -5.69671170683963      -10.23523047930503       12.36333857123651
H           -7.42639681957278      -10.21994859199406       12.03571158395560
C          -11.07424208795348       -4.26764421386515        7.63710411669737
H          -11.78193332281303       -4.87161288740116        8.20593626988760
H          -11.47307634009299       -4.13522526065261        6.63172663982464
H          -10.99070049705919       -3.29659056465947        8.11303552765419
N           -9.56037961303941       -6.16706806162349        7.04724633420727
H          -10.28061446625076       -6.71731301255979        6.60466202509070
C           -9.74307197422518       -4.93054367944312        7.60307775161781
C           -8.26539828323325       -6.51538345661190        7.21708791275827
H           -7.85060537911552       -7.43895250256970        6.86566133852188
N           -7.61099209291173       -5.57448119733720        7.85796141879865
C           -8.51424808608716       -4.57620173261858        8.09219717259246
H           -8.21895493162961       -3.67670428222675        8.59555209762410
O           -3.37927764946255       -5.38810651921758        9.25497556555730
H           -3.21978141226555       -4.48906754515322        9.54962050062783
H           -2.64216724183733       -5.99923047591238        9.30469260521297
78
 energy: -116.040903751984 gnorm: 0.029939144785 xtb: 6.7.1 (edcfbbe)
Fe          -5.59784811409626       -5.69179553994689        8.56734395918767
N           -5.42726706377933       -7.51286796891024        7.68316667827860
N           -5.04781045685066       -4.76566578040646        6.81287131443397
N           -5.67036370021687       -3.89333475358563        9.53405977481227
N           -6.08721173822499       -6.65808404775801       10.34296742715517
C           -5.65991542172471       -8.73276623499581        8.24440780486907
C           -5.61860163164571       -9.76313264697484        7.21960347889246
C           -5.34133961909294       -9.13245564642597        6.04670605531458
C           -5.21143271110379       -7.71667427888213        6.35471949278389
C           -4.83437734787888       -5.36976464415640        5.61164318073379
C           -4.46869350040092       -4.37965278012327        4.61549043843608
C           -4.47437740289280       -3.16414508986190        5.25737452097241
C           -4.86339866465978       -3.43160524007969        6.64628553050600
C           -5.27581235374831       -2.69885847816348        9.00569319335221
C           -5.23342992757706       -1.69588090608692       10.05307103461203
C           -5.62476780773582       -2.31797593863792       11.21238104080978
C           -5.91140805201833       -3.70015770824821       10.85538078697556
C           -6.36353514521416       -6.05142689825258       11.52517620666379
C           -6.62662708525720       -7.05306353825635       12.55402111446588
C           -6.48309787003855       -8.26415947309865       11.95248369853233
C           -6.15238206500940       -7.99933671708915       10.55826556924217
C           -5.94554125033239       -8.96572600532805        9.58408833986128
H           -6.03205535213428       -9.99882004265783        9.90236379888795
C           -4.93776064259806       -6.74089357276630        5.40628079331558
H           -4.78581250204846       -7.09530972329177        4.39376284363311
C           -4.96290730523794       -2.48696545683564        7.66352085008109
H           -4.75709433641258       -1.46361665576206        7.37056917086731
C           -6.31638381637214       -4.68373230078885       11.75140553521753
H           -6.59140273623674       -4.37853134333741       12.75541583738218
C           -5.19084109575216       -9.71761118587919        4.67763392622509
H           -5.33806603367351      -10.79497498915302        4.69323260375607
H           -4.19425887975256       -9.51993485817328        4.28156034839794
H           -5.91528682706316       -9.28457733825743        3.98586453895492
C           -5.86577721351286      -11.22247987871449        7.45870260595393
H           -6.67711024406115      -11.37340833225920        8.16951171629167
H           -4.97517059542050      -11.70789738248251        7.86177494309113
H           -6.13204995108395      -11.72966047645406        6.53305705903664
C           -4.17562986813721       -4.71290931730311        3.17864078221504
H           -4.87917883912189       -5.45583051808978        2.79983604193790
H           -3.17239150049979       -5.13417034987573        3.06859190734264
H           -4.24132267279971       -3.83754226859625        2.53525483970502
C           -4.13652527034308       -1.84845534357396        4.74537568833374
H           -4.59733806295588       -0.99842577258616        5.23843856169982
C           -3.28413279607664       -1.60378310691331        3.75008030774546
H           -2.76293529224528       -2.40433261318118        3.25507624272821
H           -3.05474592944750       -0.60563112372728        3.41465440523621
C           -4.81753658825444       -0.26783718961756        9.84816176714228
H           -5.19985533596202        0.11552337354038        8.90287082771919
H           -3.72808414354156       -0.18053269219297        9.82223115857957
H           -5.18700038691750        0.37132094951782       10.64791959109353
C           -5.69910584903778       -1.80174240439441       12.57095906399501
H           -6.42635558605390       -2.26275459818950       13.23181922526250
C           -4.92420148017630       -0.84476032773756       13.08068858900678
H           -4.14521916471186       -0.38341735230360       12.49960575068213
H           -5.02090018327558       -0.50825518544536       14.10016972462179
C           -6.93544673431935       -6.71946576137177       13.98443870287775
H           -7.84558102181058       -6.12112347909571       14.05800721020683
H           -6.12531025464571       -6.13945698999724       14.43152695970988
H           -7.07411237093668       -7.61445524913869       14.58771053236232
C           -6.61381128238170       -9.64517382294980       12.51845716103006
H           -6.81976159429756       -9.62566586339331       13.58582340229260
H           -5.69470951457960      -10.21139741534605       12.36115169244834
H           -7.42305145735968      -10.18965312382590       12.02868734140458
C          -11.06823141570110       -4.26573911338170        7.63655776199579
H          -11.78096094806620       -4.86673575609223        8.20183905301068
H          -11.46190864847131       -4.13276186166137        6.62971917855905
H          -10.98408405453782       -3.29407392370521        8.11067373014078
N           -9.56087663925352       -6.16875623162797        7.05017324548444
H          -10.27705622494004       -6.71542416826128        6.59842604361730
C           -9.74159150497833       -4.93198509539480        7.61180772725140
C           -8.26928524080656       -6.51953137817213        7.23327200977871
H           -7.85397446099684       -7.43953818450888        6.87797116722193
N           -7.61652847345974       -5.58735086804892        7.88103147618563
C           -8.51684510973817       -4.58651229544708        8.11123485751648
H           -8.22156564403980       -3.68684067810870        8.61034374878074
O           -3.39529479576496       -5.42418404222398        9.23856898590878
H           -3.21623547629442       -4.53086974792495        9.54213934347917
H           -2.64110172220335       -6.01582525757090        9.30220698170728
78
 energy: -116.046457697739 gnorm: 0.018011298010 xtb: 6.7.1 (edcfbbe)
Fe          -5.59549342932297       -5.69388755361555        8.56791235858701
N           -5.42492806820371       -7.49972356939877        7.68076919849294
N           -5.05719843016852       -4.77376773235438        6.84630364215239
N           -5.66577818546835       -3.90840012146292        9.52048039008700
N           -6.07597345290100       -6.63743130476701       10.32119145420531
C           -5.66825168348906       -8.71307400707019        8.23483197282007
C           -5.60977980331705       -9.75107550658520        7.22368618660981
C           -5.33163879146398       -9.12247394867350        6.04787154996900
C           -5.22163961609005       -7.70960755108356        6.35561478466256
C           -4.84195249089001       -5.37394398186507        5.64617568024855
C           -4.47318210894043       -4.39431387271233        4.65246262472244
C           -4.47076352022569       -3.17833421497116        5.28699011263731
C           -4.86319040731351       -3.44379116622257        6.66835803390852
C           -5.28800432109659       -2.71121702925418        8.99534232553751
C           -5.23312409862160       -1.70729005517836       10.03182019214223
C           -5.62782963722102       -2.32433867824412       11.19396534381162
C           -5.91931989902534       -3.70285494681890       10.83539152134538
C           -6.35564115812539       -6.03841579994417       11.50454548996822
C           -6.62034972994743       -7.03758946501056       12.52707359533380
C           -6.47489787695485       -8.24902309679068       11.92504664039748
C           -6.14511895768329       -7.97664695021242       10.53655913190569
C           -5.95641514373736       -8.94603429055374        9.56985880407554
H           -6.05211712223218       -9.97670582236882        9.88034017218434
C           -4.94321379261869       -6.73633300540637        5.41289797760157
H           -4.77170254466544       -7.08139130082515        4.40300861941140
C           -4.95775163149144       -2.48831337036532        7.66461243153466
H           -4.73002584872078       -1.46814507550518        7.38789856786689
C           -6.30595880287980       -4.67698710414721       11.74201856168568
H           -6.53922202419503       -4.35622609116744       12.75001518553970
C           -5.18516926591066       -9.70890012463133        4.68714195525792
H           -5.33386774033176      -10.78534318056756        4.71202986759155
H           -4.18937676733132       -9.51110030095260        4.29241785470827
H           -5.91261684509479       -9.27566236664895        4.00028074528703
C           -5.85516149810243      -11.20217975771049        7.46209935045005
H           -6.67255943805263      -11.34551355895961        8.16626840265626
H           -4.96626628355796      -11.68320040038468        7.87145387942235
H           -6.11435023113085      -11.70610232068250        6.53327714178850
C           -4.19188706473150       -4.71154496442068        3.22216134401567
H           -4.89436879749353       -5.45591402542454        2.84923979781714
H           -3.18450511193010       -5.11791547449214        3.11043600201686
H           -4.27326766120738       -3.82350745680822        2.59974462201872
C           -4.13569803544687       -1.87401449622612        4.76140518149000
H           -4.61758116877955       -1.03605577090469        5.25121000772941
C           -3.28515914174595       -1.62050260410240        3.76927033362349
H           -2.73964254985418       -2.40325809480829        3.26740312370501
H           -3.08668208456489       -0.61658824241895        3.42995572110442
C           -4.82929357046726       -0.28769774970220        9.83463803496192
H           -5.21248239282217        0.09483406385061        8.89102810895653
H           -3.74165463769210       -0.19743719961979        9.81817953378861
H           -5.21238384903118        0.33133779333093       10.64283795854199
C           -5.69939089991372       -1.80249933980211       12.53968974364047
H           -6.44099223865958       -2.26535778852804       13.17969836825550
C           -4.92478762220707       -0.85307960474572       13.05755067871756
H           -4.13518155014795       -0.38255526303429       12.49520158154940
H           -5.03785583482304       -0.52151810095243       14.07662558768569
C           -6.93327870260021       -6.72239895557408       13.95063753321595
H           -7.84458720276324       -6.12891440000962       14.02317023526837
H           -6.12123138333201       -6.14875473348084       14.39850091583602
H           -7.06926422578573       -7.62951225778755       14.53474300475795
C           -6.61011864806232       -9.61927766058801       12.50333253923534
H           -6.81763929701213       -9.58137221909527       13.57041136692663
H           -5.69202589570351      -10.18833493607999       12.35488465668925
H           -7.42242874971603      -10.16195849369283       12.01845763243555
C          -11.06044188527006       -4.26122766985612        7.63597259843759
H          -11.78191016245789       -4.85710969563413        8.19686665254429
H          -11.44510490411065       -4.12815229112805        6.62504130341006
H          -10.97466277876478       -3.28805055536959        8.10843582239246