78
 energy: -115.978393324744 gnorm: 0.272733337830 xtb: 6.7.1 (edcfbbe)
Fe          28.04300000000000       91.81399999999999       52.45100000000000
N           28.95700000000000       93.53100000000001       51.89100000000000
N           29.21300000000000       91.73199999999999       54.11200000000000
N           27.01100000000000       90.18400000000000       53.09199999999999
N           26.82200000000000       91.91799999999999       50.81900000000000
C           28.66400000000000       94.29300000000001       50.77700000000000
C           29.48600000000000       95.48399999999999       50.77600000000000
C           30.26500000000000       95.43599999999999       51.88499999999999
C           29.94800000000000       94.20500000000000       52.57100000000000
C           30.18000000000000       92.63900000000000       54.48800000000000
C           30.79700000000000       92.21700000000000       55.72099999999999
C           30.21600000000000       91.04100000000000       56.07400000000000
C           29.18400000000000       90.76799999999999       55.09699999999999
C           27.25400000000000       89.44599999999998       54.23800000000000
C           26.20300000000000       88.47100000000000       54.42399999999999
C           25.33900000000000       88.60800000000000       53.38100000000000
C           25.88300000000000       89.63000000000000       52.51100000000000
C           25.77900000000000       91.07399999999998       50.49800000000000
C           25.34200000000000       91.34600000000000       49.14900000000000
C           26.00300000000000       92.45000000000000       48.73399999999999
C           26.86800000000000       92.86399999999999       49.82000000000000
C           27.70600000000000       93.97799999999999       49.81000000000000
H           27.60500000000000       94.66600000000000       48.97099999999999
C           30.51900000000000       93.78600000000000       53.77300000000000
H           31.30400000000000       94.41500000000001       54.19200000000000
C           28.27400000000000       89.70900000000000       55.15500000000000
H           28.36900000000000       89.02300000000000       55.99600000000000
C           25.32400000000000       90.02900000000000       51.29600000000000
H           24.45600000000000       89.47400000000000       50.94100000000000
C           31.28800000000000       96.48200000000000       52.34800000000000
H           31.18400000000000       97.40100000000000       51.73200000000000
H           32.31700000000000       96.08100000000000       52.22600000000000
H           31.10500000000000       96.73999999999999       53.41300000000000
C           29.45900000000000       96.57599999999999       49.72500000000000
H           28.71700000000000       97.35100000000000       50.01400000000000
H           29.16600000000000       96.14500000000000       48.74400000000000
H           30.46200000000000       97.04800000000000       49.64800000000000
C           31.90500000000000       92.99600000000000       56.43900000000000
H           31.78700000000000       94.08199999999998       56.23500000000000
H           32.89800000000000       92.66500000000001       56.06699999999999
H           31.83400000000000       92.82500000000000       57.53500000000000
C           30.50300000000000       90.19499999999999       57.15900000000000
H           29.72100000000000       89.47799999999998       57.44300000000000
C           31.70700000000000       90.13000000000000       57.97500000000000
H           32.55300000000000       90.80400000000000       57.77600000000000
H           31.78400000000000       89.40600000000001       58.79900000000000
C           26.07600000000000       87.57299999999999       55.64599999999999
H           26.49600000000000       88.09300000000000       56.53400000000000
H           26.64100000000000       86.63099999999999       55.48000000000000
H           25.00500000000000       87.34599999999999       55.83500000000000
C           24.08800000000000       87.98900000000000       53.19200000000000
H           23.26500000000000       88.60800000000000       52.80799999999999
C           23.76000000000000       86.60200000000000       53.45199999999999
H           24.52400000000000       85.91100000000000       53.83800000000000
H           22.74400000000000       86.22400000000000       53.26700000000000
C           24.36300000000000       90.52800000000001       48.31500000000000
H           23.33000000000000       90.90000000000001       48.48499999999999
H           24.41500000000000       89.45999999999999       48.61600000000000
H           24.61100000000000       90.63100000000000       47.23700000000000
C           25.87600000000000       93.09000000000000       47.35399999999999
H           24.81300000000000       93.06699999999999       47.03100000000000
H           26.48800000000000       92.52400000000000       46.61999999999999
H           26.21600000000000       94.14699999999999       47.39800000000000
O           26.75300000000000       93.24900000000000       53.59000000000000
H           27.09700000000000       94.12200000000000       53.40000000000000
H           26.06100000000000       93.06000000000000       54.11500000000000
C           30.40000000000000       88.02800000000001       48.85500000000000
H           30.64399999999999       87.02000000000000       49.25299999999999
H           31.23600000000000       88.37200000000000       48.20900000000000
H           29.46300000000000       87.96400000000000       48.26100000000000
N           31.16300000000000       89.32099999999998       50.96500000000000
H           32.07100000000000       88.90700000000000       51.03599999999999
C           30.20900000000000       89.00599999999999       50.02000000000000
C           30.64399999999999       90.27400000000000       51.75600000000000
H           31.19600000000000       90.73800000000000       52.57299999999999
N           29.43300000000000       90.54900000000001       51.41399999999999
C           29.07000000000000       89.79199999999999       50.28699999999999
H           28.10300000000000       89.87400000000000       49.81000000000000
78
 energy: -116.032793381391 gnorm: 0.102517049844 xtb: 6.7.1 (edcfbbe)
Fe          28.04434987448183       91.81023452287799       52.45260570551179
N           28.96070840559823       93.52895069102333       51.88615200340468
N           29.21028314272735       91.73330742619451       54.11828287743750
N           27.01043355120246       90.18105758922624       53.09157212647244
N           26.80436106396892       91.93655651666278       50.83478259562346
C           28.66311192874771       94.28892289691333       50.78298906624205
C           29.48460509620511       95.48255614656013       50.77374694294536
C           30.26792090234225       95.43485334049981       51.88668790532815
C           29.93945353012611       94.20303470151593       52.57164819855426
C           30.17769436614830       92.63559496658861       54.48270567484520
C           30.81045745368422       92.22357206565140       55.71137518848029
C           30.22799855536897       91.03650003385914       56.08177493986049
C           29.19018155555585       90.76793312690006       55.08938292734796
C           27.24655894636746       89.46566813457797       54.24063762595652
C           26.21253432538298       88.47342368912715       54.43213880991630
C           25.34023871310728       88.59686764374560       53.38164422267342
C           25.87627776468409       89.65063327162257       52.52950542691049
C           25.80879489452348       91.05577752991721       50.48985728880434
C           25.34064719558697       91.34426990063356       49.15009508302797
C           26.00298583559773       92.45640012351620       48.73325398270969
C           26.89116410154352       92.84590260856282       49.81268775174856
C           27.71705708600472       93.96436891559085       49.81394828617464
H           27.60979351564111       94.65396840541091       48.98260474799980
C           30.51079897049773       93.78208884314992       53.76673971973980
H           31.29273375460102       94.40937121925369       54.18212728615968
C           28.28033556412905       89.71651763143666       55.14126816704377
H           28.36767546835420       89.03403810220743       55.98041582955951
C           25.33867794825786       90.02995933031282       51.30264903189087
H           24.47230556589187       89.47835836715227       50.94886055199713
C           31.27544610489085       96.46637339125938       52.34364948943011
H           31.18407882902970       97.37936767358207       51.74521219982873
H           32.29770516390680       96.08454039430605       52.23343359481836
H           31.10994144949073       96.73058102707775       53.39422975941826
C           29.45523336437411       96.56594814500366       49.73218668117138
H           28.72665287008534       97.34020190315819       50.00569959905881
H           29.17387651869692       96.15630682381645       48.75731492240310
H           30.44007580890097       97.03774176493354       49.64461934091125
C           31.89270151570919       92.99282294982063       56.42727212558318
H           31.78965081218290       94.06608524980341       56.23720176231140
H           32.88146958105734       92.67242629271823       56.07583358085875
H           31.83107554438314       92.82650144652736       57.50881816442995
C           30.52748334423166       90.18994111504253       57.19019037730556
H           29.75065299977059       89.47435886733379       57.45525139483219
C           31.66604999375926       90.13932483235656       57.94944265344628
H           32.51841042229774       90.78160416697429       57.76212141105442
H           31.75967402724714       89.42723809991301       58.76286991957249
C           26.08114410777421       87.58312483911833       55.63709687153971
H           26.48788523252310       88.08201029193246       56.52334817595375
H           26.63089345534557       86.64619712657759       55.48516219055247
H           25.02690373571161       87.34662498681580       55.82332033463037
C           24.07773644328682       87.94785442592780       53.18741660638712
H           23.27195775265291       88.57382625474955       52.80065641825303
C           23.77197256154620       86.64583781209687       53.45232758513318
H           24.51537867378418       85.94765618798799       53.82105229422874
H           22.77496439641169       86.25645566106830       53.27238671924651
C           24.36807110415287       90.53427006877345       48.33146045938123
H           23.34219779873833       90.89149417726567       48.48524265969811
H           24.41244791963210       89.47643116899161       48.61022853817570
H           24.60570217581634       90.62773826638947       47.26560723101668
C           25.87673876527507       93.09211306927806       47.37167681067032
H           24.83251468487652       93.07118512226270       47.03884913909252
H           26.47829636385544       92.54032594814151       46.63754948674380
H           26.21371192018118       94.13224088807422       47.39248479026269
O           26.76154213525105       93.24463900808169       53.57265208463266
H           27.08671380759083       94.12897581839366       53.40941575967287
H           26.03264548781004       93.06584348102542       54.13764545756395
C           30.40144847672739       88.03529083456880       48.87298965629007
H           30.64266621892155       87.03434491883044       49.24929148219504
H           31.22019271168987       88.36626244352874       48.22259646581887
H           29.48439259802221       87.97155951431806       48.28066906321467
N           31.15279529711959       89.31921145666628       50.94320922215993
H           32.06534473363760       88.90172293287893       51.01661543777125
C           30.19738595436447       89.00701671790512       50.00700774370487
C           30.63169101183070       90.26932731946587       51.75168779513949
H           31.17946824029149       90.72490694358946       52.56280159461049
N           29.41518973359967       90.56330619100541       51.40446961302111
C           29.09927208204352       89.78923271431829       50.30137638655754
H           28.13841699319301       89.86692152565431       49.82721898588076
78
 energy: -116.043458757679 gnorm: 0.041160790062 xtb: 6.7.1 (edcfbbe)
Fe          28.04487873028178       91.80991751334308       52.45288596226245
N           28.96348922280538       93.52336866876956       51.88156242104033
N           29.21188044822809       91.73160438269906       54.11467690636009
N           27.00376234441896       90.19587699219359       53.10107110613711
N           26.81434835595500       91.93194315449951       50.83392102201890
C           28.66684755764611       94.27787810859562       50.78537510142727
C           29.48165181941216       95.47631128651483       50.77191779687001
C           30.26569280977290       95.42897007082821       51.88692258255778
C           29.93242912331794       94.19581484371018       52.56886892003210
C           30.17575193962961       92.62939539050701       54.47208957460455
C           30.81724753611596       92.22268173488078       55.69741789699927
C           30.23302177299248       91.03365846099531       56.07422145546654
C           29.19686688345137       90.76895990270975       55.07563008966577
C           27.24132893352671       89.48971931960017       54.24313449658308
C           26.21714358804765       88.48899766793519       54.43941254377474
C           25.34485086997273       88.60813933790814       53.38594172659826
C           25.87976068651724       89.67079913187820       52.54303495438786
C           25.83634094552850       91.04580907421372       50.48853804208434
C           25.35089778130841       91.33808778036924       49.15492736601719
C           26.01206956896359       92.45495339994224       48.73689894590501
C           26.91095289479233       92.82824489085591       49.81199863138879
C           27.72892112345675       93.94835358770870       49.81697139716823
H           27.62262886516101       94.63468364224599       48.98746400005261
C           30.50454414679622       93.77604165910047       53.75847346777953
H           31.28161815690811       94.40447987725202       54.17175823614230
C           28.28792387844446       89.72413944856251       55.12822953849368
H           28.37111495970067       89.04296359717043       55.96434661916687
C           25.35596630021107       90.03408005202165       51.30973710192804
H           24.49627974828827       89.47942888066328       50.95487871386658
C           31.26277413057706       96.44589530167082       52.34233601154504
H           31.17649227838630       97.35441210552767       51.75096533315563
H           32.28105356007605       96.07012853433085       52.23996457444017
H           31.10426177272350       96.70947777655827       53.38672536609798
C           29.44941547805657       96.55337878764384       49.73697565800489
H           28.72561876573188       97.32533830367520       50.00334752873167
H           29.17577760565345       96.15394150047356       48.76461234106340
H           30.42541327147278       97.02531192825158       49.64700873796298
C           31.88006598261371       92.98854900250905       56.41142429605062
H           31.78424768763255       94.05583683768283       56.22753676031970
H           32.87112261778363       92.67632996841475       56.07768740835018
H           31.81488575556235       92.82262227442696       57.48457008651177
C           30.53473258220460       90.18295330693923       57.19914380558338
H           29.75160255585292       89.47768025671093       57.45535032725607
C           31.63719717431165       90.14125824438747       57.92036155353000
H           32.49368183984912       90.76654767484904       57.74249112522457
H           31.73709194949066       89.44817025261041       58.74016919493425
C           26.08813263130341       87.59429992170392       55.62649870824031
H           26.48427105741771       88.07743300935010       56.51687816716288
H           26.63099614341402       86.66015127781779       55.47889043974879
H           25.04145797004897       87.35087897122186       55.80219357444400
C           24.07851969900264       87.93354621016607       53.17823467641093
H           23.28954448396638       88.56363575891885       52.77646066178775
C           23.79443966461532       86.67624131246134       53.43975292085964
H           24.52198707476890       85.97719473601205       53.81479501544799
H           22.80311460031858       86.28011289677633       53.28474435598537
C           24.37423664360020       90.53833009060436       48.35372178711973
H           23.35333563437625       90.89172237698247       48.50286223631851
H           24.41328463086391       89.48628178430504       48.62377499801288
H           24.60500142696790       90.62682509586733       47.29332804576438
C           25.88128474618621       93.09707375666504       47.39352323229277
H           24.84546056634706       93.07582712547507       47.05910332144029
H           26.47841867515955       92.55422914583490       46.65795051716579
H           26.21718985966178       94.12902583694451       47.40393614155902
O           26.74065399617268       93.23418276835208       53.55106536117356
H           27.05474485399618       94.13423512200082       53.44275331133759
H           26.01911230291089       93.07876305222884       54.15897421735183
C           30.39905495300101       88.04363520194700       48.88884830033973
H           30.64167690948615       87.05097258369675       49.26463777504272
H           31.21257522663586       88.36906461447728       48.24106865102795
H           29.49300358165929       87.97673379537127       48.29569228151674
N           31.14394489542357       89.32399183323260       50.92600651007687
H           32.05848393023040       88.90645072583958       50.99843203413594
C           30.18540404696872       89.01320752313656       49.99658092789391
C           30.62203830514353       90.26558732172046       51.74876037578523
H           31.16420018177086       90.70916708076614       52.55971676821613
N           29.39750296745573       90.56558697449275       51.40382523215762
C           29.11331829113982       89.79519508195456       50.31007472242364
H           28.15596405035626       89.86328309933914       49.83693800621763
78
 energy: -116.046980281946 gnorm: 0.021801292819 xtb: 6.7.1 (edcfbbe)
Fe          28.04123041433493       91.81521516001978       52.45431263129505
N           28.96587747642184       93.51397069777660       51.87649189527175
N           29.20989553545271       91.73291879481633       54.10589385051781
N           27.00475582939981       90.21227211005174       53.10576160809430
N           26.82857438673436       91.92767159713016       50.83464437266117
C           28.67488311373236       94.26498392873293       50.78043590026600
C           29.48199536208935       95.46658885475584       50.76813887298415
C           30.26243417188380       95.41975267957029       51.88429205994036
C           29.92946489217254       94.18737417722917       52.56415559462904
C           30.17612099637780       92.62473867906124       54.46040202740610
C           30.81918073251628       92.21692533721964       55.68316726162076
C           30.23052403286470       91.03163263798297       56.05943175712613
C           29.19897234100586       90.76979829286235       55.06222280624280
C           27.23868201493590       89.50765774099619       54.24530155590967
C           26.21728539769989       88.50596388830333       54.44053334667248
C           25.35089823915016       88.62610416021499       53.38443498923910
C           25.88629180109475       89.68683922916264       52.54694231331116
C           25.85736456426869       91.04015981966360       50.48802226359894
C           25.36463436487318       91.33314729390810       49.15951575555174
C           26.02479256555518       92.44942913669354       48.74031527335436
C           26.93103616068425       92.81444085783710       49.80888599396756
C           27.74688998717797       93.93245700613933       49.80816123951365
H           27.64362702427222       94.61483028842294       48.97690801454301
C           30.50363968284368       93.77158788401178       53.75108466977736
H           31.27852488759721       94.40157891001144       54.16287960994143
C           28.29024536260939       89.72937660132878       55.12237861351462
H           28.37653615754077       89.04502198454919       55.95364517149979
C           25.37067080694031       90.03594388258729       51.30969015798915
H           24.51743205062324       89.47549354962989       50.95318314240398
C           31.25709981035465       96.42920321974456       52.34615007648591
H           31.17507509483383       97.33818288745867       51.75644025219606
H           32.27376422930589       96.04887032492454       52.24874774680523
H           31.09514210305519       96.68818578351596       53.39064684625816
C           29.44425890218025       96.54244164152004       49.73558484395220
H           28.71605896577111       97.30996647120188       50.00097637714704
H           29.17485115222061       96.14366210560949       48.76219015552688
H           30.41754530009115       97.01888221269384       49.64733159882027
C           31.87312318129837       92.98687794017779       56.39930133439657
H           31.77587097159374       94.05317964792197       56.21214037418279
H           32.86869327633650       92.67815723128507       56.07620084690356
H           31.79722721517014       92.82142656754016       57.47108860015421
C           30.51818833689406       90.18125789403145       57.19175048968354
H           29.72917175985155       89.48371409496606       57.44889464591973
C           31.63227753668846       90.14320325016118       57.91416161346373
H           32.49640569441443       90.75061699820697       57.71498503832964
H           31.73354196119724       89.45643240202675       58.73827248679130
C           26.09210354521457       87.60331843372018       55.61877810737503
H           26.48016329006226       88.07894849267457       56.51667433647243
H           26.64085939301746       86.67399464471518       55.46572069529734
H           25.04629390832312       87.35100929695588       55.78350043259142
C           24.08674587335558       87.94740381268304       53.16353156138659
H           23.30577191540373       88.57220125960283       52.74014082737818
C           23.80613933202917       86.68418808172949       53.45360956431631
H           24.54124244327381       85.99132728705177       53.82251733977135
H           22.82341014822920       86.27552024180139       53.28321840856016
C           24.37622155631396       90.53804065979796       48.37416072896256
H           23.35915436364461       90.89664536098880       48.53325938304352
H           24.41259665166614       89.48692284011962       48.64649451664559
H           24.59775657796498       90.62303196065820       47.31218392111337
C           25.88749346156513       93.10467408849946       47.40773269599848
H           24.85068352116905       93.08609018846322       47.07891203394038
H           26.48297408999649       92.56918712774103       46.66599494277034
H           26.22417860928296       94.13588232166094       47.42501671706254
O           26.67863969241894       93.23165916895584       53.51009079540997
H           27.02927987683638       94.13633689831239       53.49929280113724
H           26.01386048208531       93.07863779327462       54.19598893792598
C           30.39659833533652       88.04989225743336       48.89734664471467
H           30.64189055185389       87.06269042572950       49.28456040952554
H           31.21162769849301       88.37265424751446       48.25099598779543
H           29.49323417895871       87.97510888907988       48.30212768657568
N           31.13805756605578       89.33573659771019       50.92078940034862
H           32.05397303075053       88.92107439863679       50.98737312114577
C           30.17750508093080       89.02423007827274       49.99460198874051
C           30.61455153948812       90.26817541450802       51.75201797595072
H           31.15287272320420       90.70136457312695       52.56889381163361
N           29.38686755285793       90.56866085767254       51.40992614204742
C           29.10546835181730       89.80146906373562       50.31769150569035
H           28.14902881429039       89.86178738351747       49.84376050281222
78
 energy: -116.047527532705 gnorm: 0.058351762738 xtb: 6.7.1 (edcfbbe)
Fe          28.03494923071540       91.81936177695005       52.45330803650802
N           28.96308569740154       93.50118321548865       51.87315342692855
N           29.19612309124533       91.74167617291170       54.09926963716119
N           27.00530927233311       90.23527088581461       53.11140068268653
N           26.85359477999907       91.91647812477534       50.83217252804129
C           28.68321000039747       94.24832978846722       50.77419383075319
C           29.48453583301224       95.45178841793245       50.76176734448178
C           30.25778562183959       95.40732372631348       51.88077334884071
C           29.92304750614243       94.17682377776434       52.55952639466090
C           30.17318989814655       92.62187919271270       54.44859663417503
C           30.82225006649843       92.20891640612437       55.66522759705457
C           30.22993006577393       91.02720109332765       56.03832838782473
C           29.19587033622916       90.77401434120107       55.05006249820075
C           27.23477053928598       89.52803175887240       54.24829522513212
C           26.21744187120192       88.52346265995153       54.43931160108635
C           25.35832671266884       88.64553810847502       53.37978181322033
C           25.89180046777518       89.70711547470412       52.55058731881446
C           25.88161100528048       91.03452589323629       50.48786935158115
C           25.38336957980925       91.32559348012897       49.16395894357672
C           26.04337452902080       92.43938150072313       48.74272367762330
C           26.95507202494752       92.79732079609973       49.80511396272839
C           27.76981456484088       93.91254936603757       49.79361753302573
H           27.67662059421320       94.58591129119490       48.95516023999257
C           30.50262032147808       93.76785898422034       53.74359565460447
H           31.27989870931363       94.39691595709145       54.14990323107262
C           28.29012107658643       89.73430164562957       55.11903330577336
H           28.38421384697449       89.04183720437490       55.94103387130063
C           25.38552586850061       90.03807733851970       51.30790603271096
H           24.54196464916745       89.46809571756070       50.94765641954617
C           31.25259799564153       96.40925706312953       52.35359929485872
H           31.18085506137046       97.32077971918392       51.76550408775662
H           32.26772034218025       96.01989081940896       52.26409817188443
H           31.08252889116503       96.66342979488255       53.39906684371346
C           29.43930761150319       96.52690583337943       49.73045397036437
H           28.70083666541678       97.28590241787417       49.99559350991015
H           29.17551583486474       96.12588720141667       48.75518849522427
H           30.40884786794958       97.01387123993200       49.64604126546622
C           31.86796327566157       92.98481585830886       56.38537866336968
H           31.76591518602156       94.05066445434348       56.19181131023806
H           32.86916593970374       92.68063211136574       56.07333906172815
H           31.77930980027073       92.82031991626157       57.45744315454550
C           30.50251275566092       90.17571338194226       57.17371712208311
H           29.70009232884866       89.50262677063448       57.45076182600615
C           31.62880328052886       90.13290669824592       57.89083334258309
H           32.49031458461447       90.73662386851119       57.67519460022409
H           31.71965062548111       89.46836087132333       58.73538461586771
C           26.09696890590815       87.61262021136531       55.60981302619863
H           26.47365137061653       88.08373040376910       56.51610999068652
H           26.65944122276913       86.69156625253639       55.44874380952560
H           25.05150964912464       87.34679112171941       55.76149614433776
C           24.10230490598181       87.96157904941978       53.13803549774063
H           23.32681771801982       88.57500918992308       52.69230653726478
C           23.83133041927324       86.69222897137922       53.44189184409305
H           24.56625036899986       86.02531862842645       53.85792330738351
H           22.84960680816006       86.27671489001436       53.28200594826900
C           24.37597718512610       90.53565100836668       48.40021390101056
H           23.36495216180573       90.90482832340885       48.57958053619127
H           24.40872444795293       89.48518335080290       48.67967881967942
H           24.57899937467026       90.61392951142925       47.33301980404669
C           25.89647044374997       93.11455836638883       47.42248040048513
H           24.85645405041540       93.09993997599054       47.10208804796521
H           26.49028410817717       92.59354470211528       46.66761817051530
H           26.23112666808838       94.14735764821940       47.45756409275462
O           26.58399028572953       93.23105781425778       53.44096638873534
H           26.99987933894812       94.12529657494760       53.57537488227914
H           26.03606032571291       93.08006370354093       54.26662638454769
C           30.39339725008915       88.05923710951841       48.90765770623497