78
 energy: -116.058076671209 gnorm: 0.000086929467 xtb: 6.7.1 (edcfbbe)
Fe          27.94000852632327       91.85708412931831       52.47199226809450
N           28.91785205064330       93.51062866558061       51.86984639472857
N           29.08082862835397       91.80535234493435       54.13422125141116
N           26.93743322030043       90.25511109137362       53.10653010029649
N           26.78462399962182       91.95698758354199       50.85319744741930
C           28.72542973040068       94.19512648757521       50.71091145605174
C           29.65146874400002       95.29981220916181       50.60961693540421
C           30.41349776499797       95.26624581307742       51.73643687614493
C           29.94505231262723       94.13808976133903       52.50902671340060
C           30.08631277625727       92.66328072958871       54.47015603079366
C           30.70667819839885       92.26651633947354       55.70618540997176
C           30.06157859733728       91.12707051872417       56.11287073399014
C           29.04369607561656       90.86550928604497       55.11548194537443
C           27.17836932757506       89.53301950692243       54.23447718403623
C           26.26023613469265       88.42646207581043       54.34185350502711
C           25.44965772126707       88.49271962617296       53.24076867224618
C           25.89411686208689       89.65051704626244       52.48756454596585
C           25.76609051782209       91.11994067130084       50.52928938001625
C           25.17106787235971       91.49994450994933       49.26531599642729
C           25.86037889950416       92.58807258614623       48.83287259584640
C           26.86524356378477       92.85774021255118       49.83968974993905
C           27.76918352301639       93.89894922507895       49.75762012467726
H           27.72374064877586       94.53270084690881       48.88531614255167
C           30.48735315380481       93.75849498968894       53.72167456456749
H           31.30643440759074       94.34858935361754       54.10358133663373
C           28.16764795549144       89.79871557928573       55.16397032799467
H           28.26343609193478       89.11528656927177       55.99359040994935
C           25.34285937433788       90.04133945797625       51.28143690470981
H           24.52265519575471       89.45683905624520       50.89320517905462
C           31.52020638143477       96.17236130855062       52.15622447856808
H           31.68473457103893       96.95022234160274       51.41478652965802
H           32.44922333215511       95.61475391180394       52.27946705131748
H           31.28551696804867       96.65057689257620       53.10767133071820
C           29.70143829710844       96.25214834565757       49.46458075381168
H           28.74900934238096       96.77153977691941       49.35625194016783
H           29.90376808826772       95.72132741750271       48.53410478161002
H           30.48149474521541       96.99513339363968       49.61188241606300
C           31.78532362245273       93.01885667225169       56.40513806898546
H           31.63773012239396       94.09279484624231       56.30007489606540
H           32.76543780368331       92.77147095470727       55.99334756139165
H           31.78656878449076       92.76994174436416       57.46441813112183
C           30.27937176981876       90.32846996108843       57.29834463423577
H           29.39521352800929       89.86235487663004       57.71748448338836
C           31.45319064256797       90.12484258067096       57.88770797823322
H           32.37122545727709       90.52186826844022       57.49094141851985
H           31.53883239471154       89.52707041408701       58.77994629880952
C           26.19422065689518       87.47403408860501       55.48431643673839
H           26.36593947862411       87.99087100795481       56.42736577839840
H           26.95011704691147       86.69313508179209       55.38490320355688
H           25.21452715846181       87.00205938270317       55.52013841755317
C           24.34397663832200       87.63959716958996       52.86479622937729
H           23.52505495032033       88.13334608252686       52.35458507128011
C           24.26864075526046       86.33161203981867       53.08839225827391
H           25.07174573797851       85.78187776023742       53.54759599056884
H           23.40550096690679       85.75810627427978       52.79336585814386
C           24.02607383071600       90.79021911751674       48.62826629984050
H           23.15448858367170       90.80767743659591       49.28272166027644
H           24.28067862625848       89.74827176674083       48.43211319827375
H           23.75550067707148       91.25984766456590       47.68574790309401
C           25.67497315128750       93.39347418856966       47.59273418039938
H           24.86610473291778       92.99124277703977       46.98780996202223
H           26.58585170672302       93.39072184187822       46.99356017028146
H           25.43606063546975       94.42805772835034       47.84016187220075
O           26.55469989726348       93.26732441961828       53.63632299970983
H           26.87664517814673       94.11249894418734       53.30420033996332
H           26.91409578345367       93.15626947543805       54.52324445180300
C           30.40810393273991       87.92670917674293       49.38493799661219
H           31.01220700297263       87.18243090945205       49.90370149358415
H           30.94400286227738       88.23524235076138       48.48739860828336
H           29.46939804827786       87.46839234421452       49.09012838581044
N           31.13695113870951       89.87349230564247       50.78144091002076
H           32.12350961786599       89.74529689946445       50.62708949539849
C           30.13720023422121       89.09177773473242       50.26455852008074
C           30.55707671882177       90.83647455477166       51.53253184405649
H           31.09914081672829       91.59385056480042       52.05990244809929
N           29.25220175060714       90.71235350432958       51.52239055162834
C           28.97550329417330       89.63138597041772       50.73762784381443
H           27.96659066423182       89.31646945699231       50.56787668546752
