78
 energy: -116.058054546156 gnorm: 0.000041755525 xtb: 6.7.1 (edcfbbe)
Fe          35.42405563921306        4.36649484267942       10.21807161972458
N           37.25557836327499        3.99816900423113        9.52757509113155
N           35.05539163975856        5.55268210901687        8.65927095981685
N           33.60819819897028        4.79409607162034       10.97926844099272
N           35.79801093937336        3.19618974170004       11.81371776108367
C           38.21481791047101        3.22841294788561       10.10490901689642
C           39.42136896874922        3.22601963769493        9.30538178208181
C           39.16252177441897        4.00821082009325        8.22472207999926
C           37.80279865649131        4.47968058856308        8.38118394989130
C           35.88365021745113        5.79683868674570        7.61026262179304
C           35.25986544381349        6.67923455226759        6.65603543271208
C           34.02190317666462        6.97625520682779        7.15899039161387
C           33.91766613206298        6.25105673328125        8.41224794786560
C           32.67062357373331        5.61836676250315       10.43233169565589
C           31.48803665755656        5.66394336387414       11.25121072624077
C           31.72077295214270        4.82607221316717       12.31110550160841
C           33.05615696417455        4.29757758968247       12.11746983533252
C           34.93470638990834        2.88092063901892       12.81781254333595
C           35.54088726979279        1.94454825671024       13.73655195093431
C           36.79370644124381        1.70099499410216       13.26393341701779
C           36.93377392072329        2.48809826765143       12.06069558422943
C           38.07475688444219        2.51283557344488       11.27985589052663
H           38.91616872847432        1.92207830507527       11.60873416355799
C           37.16930667631394        5.30381565620308        7.47429589604389
H           37.72809547161587        5.60253115004676        6.60060063711353
C           32.81143250677742        6.30407185073045        9.23769396888891
H           31.98267094591834        6.91860201583554        8.92094831353030
C           33.65917163971676        3.39075113466201       12.96965890797292
H           33.08870409341974        3.04877998198733       13.81930611271117
C           40.04776753399119        4.35957219888691        7.07873493400214
H           41.02292683846765        3.89035675746471        7.18418310599617
H           40.19022152308145        5.43882512549348        7.02392471507153
H           39.60743142842269        4.02840036920414        6.13784209762192
C           40.66641079703069        2.48880335875522        9.66361939638463
H           40.47506129700055        1.41715138312098        9.72990138398583
H           41.04522194915226        2.82435497113075       10.62916576425136
H           41.44012107269417        2.65185072580696        8.91752020177888
C           35.85843055757757        7.10096770890517        5.35983660524774
H           36.41743899819741        6.28226278669531        4.90920061962444
H           36.54256204878153        7.93896968821856        5.50249415020714
H           35.07573375393383        7.41041283295369        4.67003582257457
C           32.97839414906068        7.80357934917591        6.59515353077808
H           31.96318616565057        7.48432086864488        6.80231158551307
C           33.17055788011560        8.89979708196049        5.86846359326165
H           34.15305501035834        9.29161628287617        5.67200239904524
H           32.34342721417983        9.46150652844431        5.46677760107245
C           30.30067593763984        6.52490527431740       10.99482015385604
H           29.62097724675212        6.05111172592026       10.28442131182504
H           30.60345805831608        7.48606411996693       10.58192256162970
H           29.75917198011431        6.69930251021190       11.92250775226685
C           30.86920616823837        4.51959403998574       13.43868661064643
H           31.38245248113813        4.32474120255027       14.37347206245014
C           29.54197061552787        4.45401998049764       13.40933459979319
H           28.98099357058885        4.59015168362428       12.50142504249448
H           28.96961112210471        4.23362668687118       14.29518779053627
C           34.86621848473956        1.39776464866597       14.94763627407134
H           33.94511759408008        0.88314014807659       14.67343836361228
H           34.61069757065913        2.20020123695833       15.64040708708878
H           35.51194832422168        0.69274367572560       15.46545985545852
C           37.85792087683495        0.81717728504086       13.81892926633931
H           37.51901064920556        0.32784649443872       14.72869095021120
H           38.75237369987391        1.39485609123901       14.05339392270966
H           38.13373830988932        0.04729115576314       13.09765151499950
O           36.19942548061295        6.11628402450637       11.48203960009396
H           35.36751269061066        6.50087278416082       11.77896426766661
H           36.56521552231821        5.62353380266984       12.22467606621614
C           32.23520555413126        0.88716203261800        7.25269789129302
H           31.76889452212427        0.05820457573278        7.78502532116032
H           32.61719622016650        0.51116979641235        6.30365448718619
H           31.47949147551456        1.63946277338432        7.05007775616533
N           34.42197357954868        0.76799443798057        8.46753904958515
H           34.59539634806077       -0.20363695464810        8.26894887969654
C           33.32729466129508        1.48527337142191        8.06143977742542
C           35.21581701911301        1.59946682120828        9.17934433154534
H           36.14550549882757        1.30887713449307        9.62337300415799
N           34.69053308065725        2.79858884469274        9.24854770777186
C           33.51603185820593        2.74337755534363        8.55721195243131
H           32.88921740449542        3.60575432511251        8.46406504087106
