78
 energy: -116.006602940490 gnorm: 0.207873026011 xtb: 6.7.1 (edcfbbe)
Fe         -39.42200000000000      -72.41000000000000       -1.23600000000000
N          -38.83900000000000      -74.08999999999999       -2.12400000000000
N          -41.12500000000000      -72.40600000000001       -2.36400000000000
N          -40.06999999999999      -70.84999999999999       -0.21100000000000
N          -37.74900000000000      -72.48900000000000       -0.05300000000000
C          -37.65200000000000      -74.78900000000000       -1.94700000000000
C          -37.60700000000000      -75.98999999999999       -2.75900000000000
C          -38.81200000000000      -76.00900000000000       -3.48900000000000
C          -39.52500000000000      -74.81599999999999       -3.10900000000000
C          -41.48900000000000      -73.27599999999998       -3.33000000000000
C          -42.69600000000000      -72.88300000000000       -4.00700000000000
C          -43.05100000000000      -71.67000000000000       -3.41400000000000
C          -42.05899999999999      -71.41300000000000       -2.39400000000000
C          -41.20900000000000      -70.08399999999999       -0.45700000000000
C          -41.41300000000000      -69.04599999999999        0.53200000000000
C          -40.30900000000000      -69.15300000000001        1.40700000000000
C          -39.48900000000000      -70.23099999999999        0.90000000000000
C          -37.40100000000000      -71.60700000000000        0.90800000000000
C          -36.04700000000000      -71.80199999999999        1.36600000000000
C          -35.56100000000000      -72.89700000000001        0.63200000000000
C          -36.66800000000000      -73.26600000000001       -0.23700000000000
C          -36.61900000000000      -74.36900000000000       -1.11200000000000
H          -35.69300000000000      -74.94299999999998       -1.13800000000000
C          -40.76600000000000      -74.44600000000000       -3.63700000000000
H          -41.21800000000000      -75.12899999999999       -4.35600000000000
C          -42.09900000000000      -70.33299999999998       -1.51900000000000
H          -42.89800000000000      -69.60800000000000       -1.67000000000000
C          -38.26000000000000      -70.59200000000000        1.39900000000000
H          -37.90699999999999      -70.03700000000001        2.26800000000000
C          -39.26900000000000      -77.05600000000000       -4.45500000000000
H          -38.50000000000000      -77.85499999999999       -4.52700000000000
H          -39.41299999999999      -76.60299999999998       -5.45900000000000
H          -40.22200000000000      -77.50400000000000       -4.10000000000000
C          -36.55400000000000      -77.03899999999999       -2.71500000000000
H          -36.00700000000000      -76.97499999999998       -1.75000000000000
H          -35.83500000000000      -76.88499999999999       -3.54800000000000
H          -37.02100000000000      -78.04399999999998       -2.79800000000000
C          -43.34800000000000      -73.63900000000000       -5.08500000000000
H          -43.14900000000000      -74.72400000000000       -4.95000000000000
H          -42.94200000000000      -73.31800000000000       -6.06800000000000
H          -44.44500000000000      -73.46699999999998       -5.05300000000000
C          -44.17499999999999      -70.79000000000001       -3.73600000000000
H          -44.56100000000000      -70.11099999999999       -2.96100000000000
C          -44.77800000000000      -70.75400000000000       -4.93300000000000
H          -44.43800000000000      -71.40900000000001       -5.74900000000000
H          -45.62000000000000      -70.06900000000000       -5.11400000000000
C          -42.59499999999999      -68.16500000000001        0.62300000000000
H          -43.51300000000000      -68.75400000000000        0.41300000000000
H          -42.51200000000000      -67.34699999999999       -0.12500000000000
H          -42.66700000000000      -67.73800000000000        1.64600000000000
C          -40.02499999999999      -68.40000000000001        2.62500000000000
H          -39.55100000000000      -68.93899999999999        3.45700000000000
C          -40.27700000000000      -67.12200000000000        2.84500000000000
H          -40.75000000000000      -66.50400000000000        2.06700000000000
H          -40.01700000000000      -66.65900000000001        3.80900000000000
C          -35.34200000000000      -71.00500000000000        2.36100000000000
H          -35.77900000000000      -71.19400000000000        3.36500000000000
H          -35.44600000000000      -69.92599999999999        2.12000000000000
H          -34.26800000000000      -71.28800000000000        2.37700000000000
C          -34.22499999999999      -73.55899999999998        0.71600000000000
H          -33.75000000000000      -73.31399999999998        1.69000000000000
H          -33.57200000000000      -73.19300000000000       -0.10500000000000
H          -34.34700000000000      -74.66100000000000        0.64200000000000
O          -40.47000000000000      -73.61600000000000        0.06100000000000
H          -40.30399999999999      -74.51500000000000       -0.22200000000000
H          -40.97700000000000      -73.36600000000000        0.74700000000000
C          -36.05600000000000      -68.72000000000000       -3.82100000000000
H          -36.47000000000000      -67.71700000000000       -4.05900000000000
H          -35.48900000000000      -69.09399999999999       -4.70000000000000
H          -35.38100000000000      -68.63200000000001       -2.94300000000000
N          -38.16100000000000      -69.95499999999998       -4.38600000000000
H          -38.26200000000000      -69.54999999999998       -5.29500000000000
C          -37.16700000000000      -69.65300000000001       -3.50700000000000
C          -38.97600000000000      -70.88400000000000       -3.82400000000000
H          -39.84400000000000      -71.31800000000000       -4.32000000000000
N          -38.53499999999999      -71.16400000000000       -2.58500000000000
C          -37.41500000000000      -70.40800000000000       -2.36900000000000
H          -36.88200000000000      -70.46400000000000       -1.42800000000000
78
 energy: -116.038194494904 gnorm: 0.078651601818 xtb: 6.7.1 (edcfbbe)
Fe         -39.42083694890221      -72.39499854634624       -1.24707613425585
N          -38.82991461899459      -74.08105803684427       -2.14970250148494
N          -41.11677623827580      -72.39075894837798       -2.36770210840877
N          -40.06928775097811      -70.82560904260539       -0.21914535577075
N          -37.74951125219839      -72.47648510368450       -0.07264024314756
C          -37.65927370212530      -74.77593159010502       -1.95169393732668
C          -37.62971074922877      -75.98025027909603       -2.75022641119389
C          -38.80499057886190      -75.99710602636787       -3.46988055332006
C          -39.52987158558810      -74.80964836569503       -3.09415481931065
C          -41.47822581914029      -73.28275691655459       -3.32056381970923
C          -42.68341816452443      -72.87207167321615       -3.99373207649485
C          -43.04522642653464      -71.66702405818248       -3.41474561153569
C          -42.05795539705299      -71.40753589751168       -2.38547961789768
C          -41.20944961852476      -70.09581860620315       -0.45704691581497
C          -41.39209223289749      -69.06365532731887        0.53435456447466
C          -40.31307888708037      -69.16525635104335        1.39960998088563
C          -39.49492624235664      -70.24784759061646        0.89610134375425
C          -37.41121992287807      -71.59829124661040        0.90099845329942
C          -36.05894247662903      -71.81746700229083        1.35104569915000
C          -35.58485701611699      -72.89228593402737        0.62791274006872
C          -36.67384576640217      -73.27674060976439       -0.24722871819325
C          -36.62971696628948      -74.36707695313252       -1.11531380576225
H          -35.71046395032648      -74.94071500356513       -1.13574391213858
C          -40.76061431349662      -74.44485784809878       -3.62316195537844
H          -41.19633039838428      -75.11653276732315       -4.35466690717459
C          -42.09397519248523      -70.33266654184688       -1.51061569124896
H          -42.89329505673883      -69.61523287033022       -1.65253769726003
C          -38.25947596947420      -70.60107599260242        1.39969719895313
H          -37.89842591263626      -70.03736292999947        2.25352206294433
C          -39.26131558478146      -77.04006996499727       -4.44008070845953
H          -38.51577245375749      -77.83673594086071       -4.52644385674035
H          -39.41456915796211      -76.61146244221564       -5.43723224987297
H          -40.20592102061040      -77.49126175595296       -4.11264773434667
C          -36.56567251810591      -77.02536253413624       -2.71500443275691
H          -36.01370806198040      -76.98206660100716       -1.77090627941205
H          -35.84771386020284      -76.89232068121457       -3.53392352012562
H          -37.00477931059792      -78.02504888082269       -2.80231256135034
C          -43.34701534148434      -73.63691646790323       -5.07590268966556
H          -43.16100409403902      -74.70999076377480       -4.96099198359620
H          -42.96028767060191      -73.33324146508480       -6.05768708739469
H          -44.42930846846031      -73.47302922503206       -5.05982405831505
C          -44.16929880663198      -70.80436714001765       -3.73968522540099
H          -44.53293391078179      -70.13052656279338       -2.96443249190255
C          -44.77596402839234      -70.76044850026135       -4.92678707002791
H          -44.44549321085609      -71.37894136654539       -5.74971200352398
H          -45.60433197208184      -70.08619797329106       -5.11089509656104
C          -42.58018446896067      -68.17504248582011        0.62369180338705
H          -43.49786221950706      -68.73808573065972        0.41579629285753
H          -42.51694366935460      -67.35771223510127       -0.10626205298860
H          -42.66382598532275      -67.74187905907326        1.62536574725885
C          -40.02985974096311      -68.41263482117219        2.61269452526793
H          -39.54707222920410      -68.95809432033474        3.42478286904695
C          -40.28811378586968      -67.12742209308803        2.83512602105946
H          -40.73726213852089      -66.49981693490784        2.07545654546034
H          -40.03315207675636      -66.66174574529651        3.78115539757450
C          -35.34596843345316      -71.01012117400688        2.36261300374132
H          -35.76626279507073      -71.17987942405507        3.36217381787026
H          -35.43485172481679      -69.94105731275110        2.13707934225646
H          -34.28408938326629      -71.27286190203881        2.38723561350030
C          -34.24554936468238      -73.54856341705887        0.71499437453870
H          -33.76000489064140      -73.31823321459056        1.66929104811099
H          -33.58529889660129      -73.20630460405032       -0.09190360224831
H          -34.34047770992780      -74.63696186222506        0.64130129498856
O          -40.45172372908465      -73.63639531487696        0.06996634107849
H          -40.32409941286380      -74.54618829690550       -0.19912469345829
H          -41.00521226741895      -73.38317089647036        0.78787506801350
C          -36.06044509367631      -68.71571685160855       -3.81948363985323
H          -36.45444996962260      -67.72163583202236       -4.05849638341999
H          -35.48997049666924      -69.07708988646750       -4.68267341673283
H          -35.39002976285673      -68.63056564169514       -2.96222012976613
N          -38.15480230829521      -69.96154689099207       -4.38449821455558
H          -38.26035905709612      -69.55508857882138       -5.29854209224081
C          -37.16394669084408      -69.65518774541331       -3.50074827900629
C          -38.96474488198125      -70.88274678514745       -3.81390390492546
H          -39.82399227134108      -71.30961265415863       -4.29921666960362
N          -38.53216860566780      -71.16997760886028       -2.59709785663316
C          -37.41977107499073      -70.41252653710310       -2.38434003791765
H          -36.89170623822164      -70.46402781795510       -1.45080233391125
78
 energy: -116.046933443097 gnorm: 0.024320064785 xtb: 6.7.1 (edcfbbe)
Fe         -39.42060544204238      -72.39013494075475       -1.25184364826116
N          -38.82250492082335      -74.07741902695805       -2.16800885361408
N          -41.10542815831986      -72.37905972311819       -2.36653426888284
N          -40.07124157518617      -70.81405407720030       -0.22170886608509
N          -37.74931721598421      -72.45728679766226       -0.09797350377144
C          -37.66242714042448      -74.76220157210098       -1.95846427145833
C          -37.64319681235771      -75.97464984581693       -2.74415129856986
C          -38.80115867206731      -75.99215388750584       -3.45516673639064
C          -39.52608368054924      -74.79756013932557       -3.09020534916185
C          -41.46219845403612      -73.28380971345867       -3.31598674403107
C          -42.66897097079681      -72.86678796145588       -3.98466616806411
C          -43.03415955735347      -71.66820714680065       -3.41734787486017
C          -42.05014862794464      -71.40319345509424       -2.38148417583579
C          -41.20610507223677      -70.10362157551656       -0.46102940179480
C          -41.38126367200999      -69.07574435707240        0.53421044810168
C          -40.31712001532933      -69.17495693438242        1.38990168479653
C          -39.49616514416153      -70.25771787904243        0.88237228982502
C          -37.41807088136463      -71.58392202290621        0.88698714934745
C          -36.06800128503566      -71.82661531704368        1.34217337222617
C          -35.60333541107228      -72.88717892018384        0.62643846104913
C          -36.67735489199846      -73.27503721136326       -0.26283804231163
C          -36.63593977118258      -74.35904994093592       -1.12137528038937
H          -35.72732170917098      -74.94292992537973       -1.12782039875482
C          -40.74905362146953      -74.43611702374017       -3.62170972593683
H          -41.17477324432125      -75.10160640350085       -4.35899399184841
C          -42.08818001602844      -70.33191506569548       -1.50718612133096
H          -42.89653785979034      -69.62629073791209       -1.63132430908691
C          -38.25489298170815      -70.59955138188970        1.38943544414096
H          -37.89192299639618      -70.03265206958376        2.23530108942904
C          -39.26170066842149      -77.02789589142100       -4.42757333006607
H          -38.52317504423996      -77.81922661107414       -4.51743687680940
H          -39.41450526692945      -76.59801658793701       -5.41646624372276
H          -40.20393767381621      -77.47359591462624       -4.10945075508824
C          -36.57129421438309      -77.01464356552464       -2.71577465236200
H          -36.02008656494886      -76.97797573562858       -1.78065861635735
H          -35.86168456579020      -76.87927751735688       -3.53200746462204
H          -37.00263424489073      -78.00891850050886       -2.81089092459673
C          -43.34549262149949      -73.63736538833894       -5.06630753108699
H          -43.16519437123259      -74.70345450561931       -4.95540648930008
H          -42.97034319696446      -73.33935562539754       -6.04730004565736
H          -44.41908968972077      -73.46913214771196       -5.04863957701756
C          -44.15347487664510      -70.81381249073483       -3.74366132180879
H          -44.50299253490028      -70.15577315946561       -2.95718048030670
C          -44.76574191773489      -70.75773606277575       -4.92433913300247
H          -44.45101426640308      -71.35422247159909       -5.75854987495585
H          -45.59891336003603      -70.10039411019572       -5.09810816722515
C          -42.57060050532835      -68.18064648329958        0.62435839145820
H          -43.48401716327137      -68.73589970612456        0.41640299070966
H          -42.50667405361212      -67.36535719503576       -0.09703638883973
H          -42.65002472330539      -67.74994168392588        1.61853165147145
C          -40.02762546142348      -68.42387210700581        2.59560861174634
H          -39.54223127408524      -68.98047827793982        3.39079643911340
C          -40.29156887679743      -67.13769718347686        2.81670700221734
H          -40.73652819545453      -66.50472665739059        2.07187839938736
H          -40.05109810796136      -66.67188635832387        3.75666531694098
C          -35.35212268645525      -71.01383453093973        2.36694731276621
H          -35.77037979116403      -71.17780454016459        3.35995969795118
H          -35.43517792648962      -69.95161260824335        2.14214342865326
H          -34.29750470397352      -71.27126147946976        2.39403880767886
C          -34.26458531511832      -73.54298395680328        0.71290475982398
H          -33.77969734494473      -73.31214483419899        1.65806186110787
H          -33.60954409007804      -73.20713796864882       -0.09200057174514
H          -34.35348436057533      -74.62421661563498        0.63832606791371
O          -40.41052447231163      -73.66586111346935        0.12210473688747
H          -40.38166301809100      -74.59011879844967       -0.15403378789887
H          -41.03990399225425      -73.41815011527535        0.80754985911992
C          -36.06173254288903      -68.70978116005178       -3.81793356307557
H          -36.45221386562925      -67.72270046997613       -4.05642819797462
H          -35.49025502730233      -69.06516696292697       -4.67391057459458
H          -35.39561295528049      -68.62615628892344       -2.96831543293021
N          -38.14766989064285      -69.96834702893365       -4.38747952737133
H          -38.25703993792448      -69.56402315814461       -5.30440890909400
C          -37.15818200973575      -69.65746877821870       -3.49704490508930
C          -38.95243862594204      -70.88556164792097       -3.80735587245003
H          -39.80823782464280      -71.30866284465920       -4.28570962729779
N          -38.53248222167137      -71.17254442264502       -2.60055263165810
C          -37.41908249464784      -70.41695902078925       -2.39335554988162
H          -36.89034166127804      -70.46477466367256       -1.46566921953664
78
 energy: -116.049045821806 gnorm: 0.052859806774 xtb: 6.7.1 (edcfbbe)
Fe         -39.41742546699834      -72.39147598677847       -1.25040555395306
N          -38.81316286915637      -74.07007538329196       -2.17993541179743
N          -41.09669357738127      -72.37701180090217       -2.35911423273145
N          -40.06828154139416      -70.80925105235228       -0.22743988256919
N          -37.74743181806503      -72.43914707699069       -0.11987364820111
C          -37.66084467750309      -74.75357219797830       -1.96180153981774
C          -37.64464411268857      -75.97211596345734       -2.73997395355728
C          -38.80001868667203      -75.99049389692841       -3.44902818279911
C          -39.52086719019340      -74.79004503569962       -3.08844349970673
C          -41.44912204779400      -73.28294759008917       -3.31319793978990
C          -42.65498213678759      -72.86619111024450       -3.98243110183339
C          -43.02228078583699      -71.67068146397698       -3.42026266709991
C          -42.04254543690913      -71.40386482283508       -2.37920511303045
C          -41.20662823672524      -70.10995649216892       -0.46306782774771
C          -41.38020197228217      -69.08039093067237        0.53107416390097
C          -40.31740716481712      -69.17857551030255        1.38201504170136
C          -39.49499568911202      -70.26060582550861        0.87049655069347
C          -37.42005067060239      -71.57064834745037        0.87220144573846
C          -36.07325588290839      -71.82549912713411        1.33776798423760
C          -35.61210334760513      -72.88230723989378        0.62391423496040
C          -36.67861551976019      -73.26582890242476       -0.27613305620086
C          -36.63657790549127      -74.35248877093163       -1.12427092403121
H          -35.73601403852795      -74.94734947898142       -1.11829533123525
C          -40.73981105097768      -74.43032676245289       -3.62411259536359
H          -41.15745085426478      -75.08931970576288       -4.37014470059312
C          -42.09020179307014      -70.33612457157133       -1.50362670484037
H          -42.90534540419906      -69.63760658474624       -1.61583279332967
C          -38.25074596530842      -70.59207470344482        1.37886274898845
H          -37.88637404833198      -70.02027253248541        2.21895170799376
C          -39.26770030266697      -77.02006653330120       -4.42148631916192
H          -38.53218755394514      -77.81232049345918       -4.51415136333416
H          -39.41894076246353      -76.58163256818160       -5.40578294678847
H          -40.21149904661915      -77.45955034278960       -4.10361851061340
C          -36.56943938796797      -77.00824777296371       -2.71750349958900
H          -36.01877379296928      -76.97658304292288       -1.78347363151017
H          -35.86489956200862      -76.86091726911584       -3.53457179058819
H          -36.99912189116356      -78.00140885042831       -2.82226036983600
C          -43.34264571370515      -73.63977212300858       -5.05824625943620
H          -43.16771827947685      -74.70524722682735       -4.94403034316095
H          -42.97484246986765      -73.34567113751675       -6.04201410793544
H          -44.41380592695296      -73.46209144240076       -5.03072227799726
C          -44.14367839577618      -70.82262633720531       -3.74130069059339
H          -44.48305346374939      -70.17416955372961       -2.94403038345283
C          -44.76344553456866      -70.75715690761825       -4.91699877258290
H          -44.44459187741025      -71.32539024128369       -5.77089005313692
H          -45.59693836317975      -70.09849318573032       -5.07976766154977
C          -42.56741615798077      -68.18189646450520        0.62387071096115
H          -43.48069985070624      -68.73434333971673        0.41573070149104
H          -42.49755943401303      -67.36628201556803       -0.09460473765530
H          -42.63955208540987      -67.75521707696784        1.61918040261284
C          -40.02599289024027      -68.43158088398619        2.58546834297428
H          -39.53228343634855      -68.99518057371561        3.36842924338571
C          -40.29927881905116      -67.14804240982490        2.80451842747699
H          -40.73538204667927      -66.51174116052519        2.05776496291720
H          -40.05841688867825      -66.67719810474425        3.74072072424178
C          -35.36103065535287      -71.01458828343043        2.37286474636264
H          -35.78582230357141      -71.17973369660926        3.36125525037392
H          -35.44118973750688      -69.95369537183387        2.14647479263773
H          -34.30793922975825      -71.27411830138823        2.40442077223558
C          -34.27669769438442      -73.54211967000758        0.70942346260120
H          -33.79135662695654      -73.30655852549710        1.65158125516050
H          -33.62803131191097      -73.20879495681763       -0.10034380559082
H          -34.36939819946775      -74.62199753161313        0.63768498437913
O          -40.33649692547712      -73.69861144841924        0.20802366301864
H          -40.46946748399081      -74.62365159603991       -0.13359187189993
H          -41.09332728323293      -73.45377405327316        0.80195916627479
C          -36.06162477798070      -68.70498960524037       -3.81727209414157
H          -36.45766947515582      -67.72074820292326       -4.05456062985296
H          -35.48629514709253      -69.05499424474330       -4.67205666708926
H          -35.39752170123580      -68.61867258852271       -2.96665376388398
N          -38.14064128140551      -69.97561885377534       -4.39369727826280
H          -38.25119165965122      -69.57525683433276       -5.31201188492432
C          -37.15227366578758      -69.66086392772125       -3.49826442221490
C          -38.94416183484069      -70.89038020548554       -3.80792403634515
H          -39.80118400554142      -71.31273225804037       -4.28391110664813
N          -38.52914923069514      -71.17703442186716       -2.60193141909257
C          -37.41515252201189      -70.41898068287036       -2.39639006354057
H          -36.88343342202905      -70.46300881405374       -1.47099606468193
78
 energy: -116.050829617691 gnorm: 0.020653878570 xtb: 6.7.1 (edcfbbe)
Fe         -39.41861455420482      -72.39493662796828       -1.24728625473407
N          -38.80969381353858      -74.06474204880010       -2.18261981524480
N          -41.09420485580858      -72.37953176757922       -2.35304002850215
N          -40.06813637130609      -70.81123979653897       -0.23083696691093
N          -37.74886739558590      -72.42895939210500       -0.13274502188273
C          -37.65993351694739      -74.75006193418484       -1.96243687434924
C          -37.64257014326851      -75.97109138808017       -2.73793147624383
C          -38.80103672581634      -75.98982248289511       -3.44793482782914
C          -39.51742310845935      -74.78607682409920       -3.08933856534493
C          -41.44283929740111      -73.28080084296020       -3.31425650434037
C          -42.64654590738391      -72.86610118000998       -3.98584490798094
C          -43.01444276629029      -71.67105105933530       -3.42375465863743
C          -42.03951080657914      -71.40589119440459       -2.37878754671599
C          -41.20950508659132      -70.11285042973108       -0.46400845820225
C          -41.38377971012082      -69.08085913663163        0.52794979187786
C          -40.31629899094654      -69.17835727026774        1.37663375242940
C          -39.49467691389154      -70.25979474881190        0.86328581104909
C          -37.42156261338907      -71.56332246281988        0.86158095480557
C          -36.07774435049765      -71.82137814461142        1.33610765935561
C          -35.61684793749268      -72.87982467221175        0.62180807821528
C          -36.68151008081995      -73.25749208546216       -0.28349923610769
C          -36.63671983645264      -74.34897175831244       -1.12487407955922
H          -35.74046430799265      -74.95089960087836       -1.11071314856255
C          -40.73443570921981      -74.42643306173684       -3.62977254934450
H          -41.14706048773444      -75.08104195240212       -4.38255378301536
C          -42.09552349969512      -70.34011937248863       -1.50178326704861
H          -42.91398116420449      -69.64449138016953       -1.60832977737651
C          -38.24918878548021      -70.58436309186806        1.37044058686653
H          -37.88346766233749      -70.00894754063711        2.20740660195442
C          -39.27458242883877      -77.01551832524555       -4.41964906280859
H          -38.54084215640270      -77.81133877479610       -4.51404942330590
H          -39.42404240535315      -76.56961270432228       -5.40238719545493
H          -40.22120173327054      -77.44990021805160       -4.09915123526309
C          -36.56640211759102      -77.00455882636538       -2.71992717795049
H          -36.01652662962346      -76.97717110033889       -1.78361234830397
H          -35.86285807760802      -76.84517546270830       -3.53744554435106
H          -36.99574853865936      -77.99864293732830       -2.83333004880379
C          -43.34094854619946      -73.64062055717760       -5.05510156098007
H          -43.17053234971800      -74.70787499972903       -4.93527580755110
H          -42.97680869419292      -73.35049375315060       -6.04241404678129
H          -44.41228364540859      -73.45426444127062       -5.01832218915840
C          -44.13672933414531      -70.82333039252032       -3.74002526901497
H          -44.47704146023192      -70.18574031940416       -2.93324212601595
C          -44.75816361325600      -70.74849284616997       -4.91457956010050
H          -44.43854598677856      -71.30540306490860       -5.77888131755955
H          -45.59896857949116      -70.09258469775180       -5.06518926748023
C          -42.56739334601354      -68.18051182722688        0.62298897572932
H          -43.48274842992632      -68.73131307435565        0.41396237349090
H          -42.49152610543572      -67.36328433406176       -0.09476515767067
H          -42.63428360589207      -67.75728015085883        1.62189833639389
C          -40.02225392322541      -68.43357280058704        2.57896067827284
H          -39.52579155302872      -69.00094839286955        3.35778305760424
C          -40.30076061806599      -67.15224329798238        2.79516718531839
H          -40.73929871861031      -66.51852658811023        2.04472353231979
H          -40.06385280967963      -66.67827524366790        3.73283272556356
C          -35.37103514097107      -71.01557148609626        2.37771400503765
H          -35.80424844872702      -71.18374984064923        3.36326804920684
H          -35.44845536112111      -69.95321372934845        2.15119911493650
H          -34.31734687886775      -71.27948621163934        2.41514643938695
C          -34.28476484267351      -73.54398843314804        0.70698440147154
H          -33.79761281384390      -73.30323709022413        1.64841916985081
H          -33.64022740108226      -73.21324647389972       -0.10877384524655
H          -34.38363979126137      -74.62494350773795        0.64026924666950
O          -40.37109998615266      -73.72182660497158        0.20629244697095
H          -40.43498347833697      -74.63596143147647       -0.06895837188888
H          -41.08266790758810      -73.49194836393254        0.82212882465710
C          -36.06037227853086      -68.70266264973897       -3.81589052490487