78
 energy: -116.058077889854 gnorm: 0.000069706127 xtb: 6.7.1 (edcfbbe)
Fe         -39.41055483914587      -72.41056687284613       -1.19273976842356
N          -38.80559542309152      -74.07477482694082       -2.15069542979133
N          -41.09645528496068      -72.40399807249727       -2.29951314903447
N          -40.04627092671999      -70.79760077143924       -0.20895683342602
N          -37.76755703916576      -72.46629203648617       -0.06900783839007
C          -37.63400644034082      -74.74025268909099       -1.96838989191801
C          -37.53600536487552      -75.86110257775927       -2.87515835513276
C          -38.67778719540922      -75.85679184174603       -3.61531276577421
C          -39.45633218986517      -74.73026940302786       -3.15281107738968
C          -41.44114150394206      -73.28628601832348       -3.28067719900674
C          -42.69575551118766      -72.91943695972269       -3.88182102836345
C          -43.10505226975882      -71.77315477877315       -3.25061594331524
C          -42.09010344794138      -71.47738199591535       -2.25981422305635
C          -41.18856234598763      -70.09541938977175       -0.44088262303993
C          -41.29158160612874      -68.97132969376575        0.45620555075698
C          -40.17305633801502      -69.00629263630300        1.24456476756259
C          -39.41401336023326      -70.16350639340706        0.80857087001949
C          -37.43456528271708      -71.60515741448039        0.92624458230561
C          -36.15454092837255      -71.95762288835999        1.50366224994585
C          -35.72188111997960      -73.05399967677883        0.82769096454485
C          -36.74438972472146      -73.35587368224633       -0.15183115424650
C          -36.66633584789086      -74.41349107401514       -1.03687747903365
H          -35.78512609149666      -75.03512992792503       -0.99636611054564
C          -40.68521050828770      -74.37817101960435       -3.67678762911572
H          -41.07539425783257      -74.98920014765851       -4.47638307306025
C          -42.13494528171613      -70.39373387109794       -1.40451459243129
H          -42.97573884021013      -69.72354378461350       -1.49633066038459
C          -38.19199171419934      -70.52766282392149        1.34283028867711
H          -37.79496611657930      -69.92175776117752        2.14304614196562
C          -39.10670884966822      -76.78912916157333       -4.69644051716981
H          -38.35759061976214      -77.55941448319936       -4.86183213946540
H          -39.25667735391811      -76.25063092220198       -5.63276702752407
H          -40.04623478054528      -77.27624430618253       -4.43369706836476
C          -36.37964253132066      -76.79940993190607       -2.92940459152270
H          -36.24753978858102      -77.30057895636837       -1.97021745723188
H          -35.45996586727414      -76.26038432100040       -3.15768183743378
H          -36.53112600418049      -77.55783605407403       -3.69364661773969
C          -43.40674655204575      -73.70315942170051       -4.92981877077807
H          -43.28204791504277      -74.77228786407333       -4.76380697746334
H          -43.02056261284747      -73.46906264528729       -5.92351781029662
H          -44.46948038806620      -73.47007247096681       -4.91216389919056
C          -44.30635085267311      -70.99583413485880       -3.45838344316005
H          -44.71272597629758      -70.51739295749287       -2.57486087827087
C          -44.92410544645342      -70.82474707145045       -4.62276481283693
H          -44.54185286142933      -71.23504047878680       -5.54111303513784
H          -45.82649888739373      -70.24134071817059       -4.70073261425890
C          -42.44523306572403      -68.03280609121266        0.52650335323124
H          -43.38461398092755      -68.56582836341013        0.38717925774737
H          -42.37313306315107      -67.26779883116009       -0.24847830426236
H          -42.46614775232998      -67.53959646726231        1.49608256900214
C          -39.78516682127664      -68.12502436097111        2.32372231912262
H          -39.25120010170479      -68.59456997008280        3.14172089502923
C          -40.02461541901505      -66.81873853268874        2.37643039141409
H          -40.50855979575400      -66.29221195587961        1.57230817333805
H          -39.71937110860650      -66.22335843474221        3.22101108436045
C          -35.50457563972304      -71.21773124470940        2.62198706902940
H          -36.13988872174425      -71.22994988120972        3.50773627676803
H          -35.33062186411647      -70.17756064688534        2.34509670149651
H          -34.54907105955981      -71.66767164256787        2.88018982787682
C          -34.46828236947876      -73.84028449670960        1.00442768326860
H          -33.85529059882155      -73.41776808055904        1.79670742675571
H          -33.88452371874960      -73.84384448682717        0.08356632546705
H          -34.69792173317472      -74.87415590677425        1.26324463045527
O          -40.52571187734329      -73.80929947256192        0.24378686198743
H          -40.18343248657926      -74.65584206473727       -0.06343656562903
H          -41.42006037458020      -73.72266696925020       -0.10367418041821
C          -36.44893851741192      -68.47388545217217       -3.80102397137197
H          -36.99301267694891      -67.75410599215276       -4.41243666577487
H          -35.55442425525997      -68.77627548871527       -4.34542677817489
H          -36.14767167073970      -67.98869862472934       -2.87802801738580
N          -37.82503769209362      -70.45885782298032       -4.46249819147937
H          -37.69660142834589      -70.34519491459969       -5.45454002662118
C          -37.29976510848583      -69.65001118270177       -3.48903613590147
C          -38.54392043344645      -71.42512756166127       -3.84829966041478
H          -39.06948608767305      -72.20162130961748       -4.36444270122745
N          -38.50559653415105      -71.27760435575692       -2.54638889489670
C          -37.73493615770346      -70.17769278119044       -2.30722073175375
H          -37.54741379711817      -69.84184968451798       -1.30824911410345
