72
 energy: -105.980016085248 gnorm: 0.000060420481 xtb: 6.7.1 (edcfbbe)
Fe         -21.84811554485342      -46.73395955043028        3.70705574305779
N          -21.53404247739669      -46.59099495916860        1.74653827059511
N          -21.26021296595237      -44.82285029290999        3.94130614248809
N          -22.12073063186816      -46.88184229557376        5.70157539463059
N          -22.33133569218355      -48.65502156094766        3.50525778479767
C          -21.72850256607184      -47.56303710523039        0.82146999881415
C          -21.42079984240443      -47.07634745972346       -0.50685781077810
C          -21.02217812355168      -45.78619659117497       -0.35699089331843
C          -21.09754094751381      -45.50183250146932        1.06024065220252
C          -20.84299747192635      -43.97376705692022        2.96145600701648
C          -20.48317845876665      -42.69662967463467        3.51403217532308
C          -20.66603923850681      -42.79298183868475        4.86791223260427
C          -21.17216517348376      -44.12810905239661        5.10872669446546
C          -22.02810380555845      -45.87205673283918        6.61402000728143
C          -22.39790442071210      -46.33437833106419        7.92553123544815
C          -22.70722294301741      -47.66281783754064        7.79265165607981
C          -22.54263467265511      -47.97469342360595        6.38824409399880
C          -22.66462182856361      -49.52605263901606        4.49291832065110
C          -22.94573249372558      -50.83653489576810        3.94578271948550
C          -22.78978247137607      -50.72817955221201        2.60058284406805
C          -22.40494016598581      -49.35632627681038        2.34601748996591
C          -22.14259588537950      -48.85374262534815        1.08761339127639
H          -22.25029105702692      -49.52514385087686        0.25003126204891
C          -20.77161451654768      -44.28053359864293        1.61316028515308
H          -20.43161447049803      -43.50344973183368        0.94637313651235
C          -21.58463646489361      -44.58949396618156        6.34454981170094
H          -21.54748224366908      -43.89172867939844        7.16559810049912
C          -22.76240684083858      -49.22316668188444        5.83672380732635
H          -23.05512888919376      -50.01848546975322        6.50393645482243
C          -20.58291281232536      -44.80468794347574       -1.38808736179216
H          -20.61260158544915      -45.24779617712341       -2.38026077907520
H          -19.56308064959646      -44.47416420120680       -1.19082213516425
H          -21.22998098413622      -43.92698427581961       -1.38458460047449
C          -21.53598137712409      -47.89284004199141       -1.74736516101246
H          -22.55429254925952      -48.26197029414770       -1.87068065995861
H          -20.86770982374037      -48.75279447942025       -1.70124139661944
H          -21.27609809948731      -47.30406009354617       -2.62355481778639
C          -19.96360347269320      -41.54233706128853        2.72989677335802
H          -20.66692474705709      -41.26134386567173        1.94531300501456
H          -19.01527762417223      -41.79727676931849        2.25589394983141
H          -19.80094886549163      -40.68362582902686        3.37619170874103
C          -20.39594910981513      -41.76882168455581        5.85665065658053
H          -20.64319006258416      -40.75741477176280        5.55246506998817
C          -19.84711821029032      -41.96730570371842        7.04935463407652
H          -19.53176974991609      -42.94225990176066        7.38082525915593
H          -19.67028079828256      -41.15149001533885        7.73025478199468
C          -22.46957657726337      -45.48242406052599        9.14364925946688
H          -22.83738614148726      -44.48747928442869        8.89751623008261
H          -21.48537990841575      -45.37380781345525        9.60262843565938
H          -23.13984995971949      -45.93241347229099        9.87304631534118
C          -23.14972415597583      -48.60407315318923        8.79792429929461
H          -23.84580658233476      -49.36043481142498        8.45526365730005
C          -22.76593606153503      -48.60814582504543       10.07000063381273
H          -22.04237073326412      -47.91000063072523       10.45337845946954
H          -23.14664086289948      -49.33285969232991       10.77020898023567
C          -23.33317911585041      -52.02122231602625        4.76149006115356
H          -24.27353313355551      -51.83621211597580        5.28125893734782
H          -22.57020944729532      -52.23904629507500        5.50899721407706
H          -23.45719376719228      -52.89908736231311        4.13251436269128
C          -22.95678233464645      -51.76289540744621        1.54226993964280
H          -23.72571736109176      -51.46133573871467        0.83089522246429
H          -23.24705758269866      -52.71639799752229        1.97620600269302
H          -22.02482721309792      -51.90356401608442        0.99455848921205
O          -19.72360559375555      -47.32971416457643        4.10446640876628
H          -19.38047700397603      -46.52981747454818        4.51907052029611
H          -19.83983873194513      -47.98415068161078        4.80251645213166
C          -24.27191445461380      -44.88094839935859        2.17759399799136
H          -25.21818217863944      -44.35864870977255        2.27997353357287
H          -24.25660747317190      -45.45159319280624        1.25492807130329
H          -23.43506205358812      -44.19135862703062        2.19666477382484
S          -24.10404027595311      -46.08679623427206        3.54016260988346
H          -24.08382847048937      -45.16704518223197        4.51111119724291
