78
 energy: -115.940296898454 gnorm: 0.282218343192 xtb: 6.7.1 (edcfbbe)
Fe          -5.74800000000000       56.91000000000000       20.76200000000000
N           -6.42700000000000       56.02199999999999       22.37000000000000
N           -6.60100000000000       58.50999999999999       21.47600000000000
N           -5.04200000000000       57.74399999999999       19.10800000000000
N           -4.75900000000000       55.18000000000000       20.25300000000000
C           -6.27000000000000       54.67299999999999       22.65600000000000
C           -6.77100000000000       54.42499999999999       23.99100000000000
C           -7.32900000000000       55.55400000000000       24.43900000000000
C           -7.09700000000000       56.58299999999999       23.44700000000000
C           -7.51700000000000       58.67600000000000       22.47600000000000
C           -7.85300000000000       60.08500000000000       22.54500000000000
C           -7.53000000000000       60.61099999999999       21.36799999999999
C           -6.64700000000000       59.66600000000000       20.73200000000000
C           -5.20800000000000       59.09400000000000       18.81400000000000
C           -4.36700000000000       59.42700000000000       17.68200000000000
C           -3.57100000000000       58.39100000000000       17.48200000000000
C           -3.93900000000000       57.33499999999999       18.41200000000000
C           -4.10400000000000       55.01700000000000       19.04799999999999
C           -3.67100000000000       53.65000000000000       18.93100000000000
C           -4.31600000000000       52.95600000000000       19.86900000000000
C           -4.85000000000000       53.93000000000000       20.81700000000000
C           -5.68500000000000       53.67700000000000       21.89200000000000
H           -5.89300000000000       52.63900000000000       22.15100000000000
C           -7.56100000000000       57.86699999999999       23.58400000000000
H           -7.94800000000000       58.22999999999999       24.53300000000000
C           -6.04800000000000       59.91500000000000       19.50700000000000
H           -6.27400000000000       60.87599999999999       19.04500000000000
C           -3.62600000000000       56.00800000000000       18.21300000000000
H           -2.98500000000000       55.73300000000000       17.37600000000000
C           -8.10900000000000       55.80199999999999       25.75100000000000
H           -8.16200000000000       54.85800000000000       26.33500000000000
H           -9.14100000000000       56.13900000000000       25.51600000000000
H           -7.58700000000000       56.57300000000000       26.35800000000000
C           -6.66500000000000       53.02699999999999       24.64099999999999
H           -5.62300000000000       52.65299999999999       24.54700000000000
H           -7.35000000000000       52.32000000000000       24.12500000000000
H           -6.92900000000000       53.09300000000000       25.71800000000000
C           -8.80400000000000       60.71600000000000       23.57800000000000
H           -8.76400000000000       60.13300000000000       24.52300000000000
H           -9.84400000000000       60.70100000000000       23.18900000000000
H           -8.49200000000000       61.76200000000000       23.78600000000000
C           -7.83600000000000       62.00500000000000       20.83300000000000
H           -7.11100000000000       62.51000000000000       20.17800000000000
C           -8.96400000000000       62.65200000000000       21.12900000000000
H           -9.71900000000000       62.18800000000000       21.78000000000000
H           -9.15300000000000       63.65800000000000       20.72600000000000
C           -4.19600000000000       60.84200000000000       17.06400000000000
H           -4.67200000000000       61.59599999999999       17.72700000000000
H           -4.68600000000000       60.87799999999999       16.06700000000000
H           -3.11500000000000       61.07999999999999       16.96500000000000
C           -2.53600000000000       58.19000000000000       16.38300000000000
H           -1.72300000000000       57.45600000000000       16.47500000000000
C           -2.63700000000000       58.93200000000000       15.29200000000000
H           -3.44700000000000       59.66899999999999       15.19100000000000
H           -1.91200000000000       58.82100000000000       14.47200000000000
C           -3.06600000000000       53.08400000000000       17.64100000000000
H           -2.05900000000000       53.52500000000000       17.47900000000000
H           -3.71500000000000       53.34199999999999       16.77700000000000
H           -2.96700000000000       51.98100000000000       17.72500000000000
C           -4.26200000000000       51.43600000000000       20.11800000000000
H           -3.26800000000000       51.04500000000000       19.81300000000000
H           -5.04800000000000       50.92899999999999       19.51800000000000
H           -4.41500000000000       51.22699999999999       21.19800000000000
O           -4.08500000000000       57.46200000000000       22.39500000000000
H           -4.36900000000000       57.04900000000000       23.21100000000000
H           -3.35000000000000       57.94899999999999       22.28000000000000
C           -9.23900000000000       55.15400000000000       16.63500000000000
H           -9.63500000000000       55.95400000000000       15.97400000000000
H          -10.08000000000000       54.50400000000000       16.95800000000000
H           -8.49300000000000       54.55600000000000       16.06900000000000
N           -9.29500000000000       56.56799999999999       18.69300000000000
H          -10.26200000000000       56.81200000000000       18.61600000000000
C           -8.59200000000000       55.76899999999999       17.82800000000000
C           -8.44100000000000       56.94000000000000       19.63200000000000
H           -8.70700000000000       57.59700000000000       20.46000000000000
N           -7.23800000000000       56.40000000000000       19.41300000000000
C           -7.31000000000000       55.65200000000000       18.27700000000000
H           -6.45500000000000       55.10999999999999       17.89300000000000
78
 energy: -116.014536876493 gnorm: 0.115620669262 xtb: 6.7.1 (edcfbbe)
Fe          -5.73036191878539       56.88664447011689       20.77869885877739
N           -6.44372504783935       56.00185681453142       22.37465759926883
N           -6.63274700724390       58.51447051108992       21.41941771101867
N           -4.97758744282997       57.78271909753312       19.16957523972967
N           -4.75628350287313       55.18118018204365       20.23676507160431
C           -6.26553292181157       54.67354899695774       22.67328900970546
C           -6.78872989977966       54.39682582414344       23.99429931732386
C           -7.33021147410530       55.54427146532962       24.46221329156683
C           -7.10149229854608       56.55349999203007       23.45242351456946
C           -7.44899569973037       58.71918952876542       22.50557177573824
C           -7.90659627701682       60.09455053018884       22.53379161478712
C           -7.51796756104350       60.65233101425257       21.35811440328427
C           -6.67148765358310       59.67709706932983       20.70292889740317
C           -5.20200199434770       59.09468126792908       18.80684547671252
C           -4.34724825200720       59.45344024791491       17.69247578194313
C           -3.55223688081265       58.38241367089882       17.45797148203651
C           -3.96329545045382       57.33493901138345       18.37090091141684
C           -4.06126280747457       55.01656124065137       19.07133217004879
C           -3.70598778491531       53.62829406091408       18.89330353762220
C           -4.29915090362162       52.93666232742665       19.89463258713057
C           -4.90220974762563       53.93099805807248       20.77496765975461
C           -5.68647280641526       53.68554663672776       21.88855062959318
H           -5.87116593132491       52.65251953998928       22.16451034587496
C           -7.54009160308224       57.85480463467707       23.58233510656270
H           -7.96167654411961       58.20236969849559       24.51731226577195
C           -6.05783478088970       59.92395800640151       19.48965259145175
H           -6.26376103844214       60.88809525522954       19.04463018822999
C           -3.62018652309037       56.00715031733519       18.21826192901497
H           -2.98471153300165       55.73066608632304       17.38731520057148
C           -8.09625685110926       55.79645310571638       25.74482797586140
H           -8.16125997779378       54.87222479035933       26.32797943370010
H           -9.11598715265197       56.13392287819910       25.51795771177906
H           -7.59608940134359       56.56171101522694       26.35042333883645
C           -6.67130615741847       53.03433616241600       24.63980950457310
H           -5.64311532139739       52.66239148335086       24.54910916252349
H           -7.34278862842168       52.32775368591636       24.13805238161537
H           -6.92926189541703       53.08928434698772       25.70204561810129
C           -8.80564204863727       60.70669070506964       23.57949348608118
H           -8.76648525314160       60.14108712905939       24.51535109658382
H           -9.83642406362163       60.69788412320658       23.20915407456522
H           -8.50038260706311       61.74142199044267       23.77856804484100
C           -7.83022490796003       62.00604668612106       20.84507630790209
H           -7.10990382542873       62.48998378111770       20.18801963857560
C           -8.95793767344481       62.65072574362881       21.12779746772994
H           -9.71573812477205       62.20552504675385       21.75964201748622
H           -9.15302081704049       63.64247376873402       20.73138041098122
C           -4.20779890256846       60.83699426999479       17.07926356377883
H           -4.66890629881940       61.58984953568849       17.72402551938251
H           -4.68922780573483       60.88666788015158       16.09389826010497
H           -3.14170310291286       61.07388857611132       16.96618398583283
C           -2.54403421337248       58.20357763242090       16.38843545684255
H           -1.74980886141899       57.46608654440759       16.49547823332777
C           -2.62673581414190       58.93266191221488       15.28396296055454
H           -3.42494619041741       59.64912305147202       15.16096176893739
H           -1.91549888193454       58.82170558526784       14.47364190911856
C           -3.06579499235492       53.08227193042615       17.64283208743308
H           -2.07214198214894       53.51846624052497       17.48076038269255
H           -3.70065738094084       53.33160016211632       16.78476727201308
H           -2.96674340891447       51.99562456524892       17.71845809158019
C           -4.25709307740236       51.44430177600469       20.12647651155564
H           -3.28261607760427       51.04723365484976       19.82030473336951
H           -5.03448055478377       50.94190679320606       19.53431905941844
H           -4.41315596869533       51.22363981708116       21.18558106779944
O           -4.10315929131024       57.44693914875182       22.37612631897736
H           -4.36344413627515       57.05386937229797       23.20784925726593
H           -3.32478420326441       57.96327343564022       22.28366282913948
C           -9.24204519197895       55.15239399458802       16.62776701859845
H           -9.63514202961242       55.93874293246611       15.97198677401011
H          -10.07168518395938       54.50697476201583       16.94131838697905
H           -8.50799175590052       54.56112171956840       16.07382274318879
N           -9.29157840311218       56.56255596819037       18.68279505906773
H          -10.26233481535521       56.81054873052257       18.60395076726405
C           -8.59684641039472       55.76036841996539       17.81896679502215
C           -8.43806140268928       56.93553559060018       19.64350499534668
H           -8.70227301864077       57.58801421011557       20.45773545236214
N           -7.24838267133378       56.40121447747332       19.44933645489586
C           -7.32198634422386       55.66550172235584       18.29903202487239
H           -6.47110363430800       55.12914358927225       17.91236241901785
78
 energy: -116.037368542679 gnorm: 0.036871862299 xtb: 6.7.1 (edcfbbe)
Fe          -5.71658349599388       56.87898964019177       20.78390059952415
N           -6.45238241285813       55.98008638494637       22.37472920658776
N           -6.64267064191974       58.53310349981241       21.38594758201753
N           -4.92477735481156       57.81505585815174       19.20918686976012
N           -4.76598484669817       55.18357769657533       20.21936812249151
C           -6.27074678518221       54.66739447511081       22.68182709377628
C           -6.80149015920992       54.37419736183853       23.99497905982851
C           -7.33098095743052       55.53467149995006       24.47239761684401
C           -7.10475227430444       56.52780306704703       23.44685031693746
C           -7.38893437669384       58.75485807098298       22.52000195454150
C           -7.93217482383047       60.09619727495286       22.52285309477383
C           -7.51492345097271       60.67795245961403       21.35062540099022
C           -6.69296896816951       59.68963118856048       20.67843981652517
C           -5.17041563678529       59.10143487106722       18.82310818919540
C           -4.33314780706298       59.47259417497415       17.70646931592817
C           -3.55645466059306       58.37288407654113       17.42899770468781
C           -3.97606285606891       57.34115695402632       18.34876501512602
C           -4.03603359474309       55.01660767099040       19.08752729774063
C           -3.73570329184665       53.61662321435110       18.87220434579388
C           -4.29917768160294       52.93343052561135       19.90827472524970
C           -4.94473365948734       53.93716015821369       20.74170911175217
C           -5.68390766854642       53.69171156842249       21.88493553987644
H           -5.82883647928248       52.66196787284957       22.18530434385076
C           -7.52639291750566       57.84086069194885       23.55883627931663
H           -7.98439250930691       58.17034741954292       24.48163734349522
C           -6.05459152276075       59.93879692228202       19.47882926821156
H           -6.24577117288162       60.90323325731023       19.03587207235395
C           -3.60916548839705       56.01302047813836       18.23364029971246
H           -2.98039127436456       55.73481336480260       17.40269715124239
C           -8.08143707218353       55.78771965154375       25.73724562274162
H           -8.15558139789685       54.87780017498069       26.32591294051646
H           -9.09350466256306       56.12845125470428       25.51476070558999
H           -7.59582498461063       56.55284795686762       26.34154130369244
C           -6.68272810300902       53.03815048539505       24.64109372226776
H           -5.66127737128504       52.66953777803366       24.55391866874350
H           -7.34326615789483       52.32333407830058       24.15232732654739
H           -6.93855352647343       53.08824461101775       25.69501643079217
C           -8.80198828942657       60.69162300360406       23.57515716963500
H           -8.75452921563043       60.13793884044354       24.50719757604364
H           -9.83851940248460       60.69032658218681       23.23788413987556
H           -8.50790533865836       61.72293952519636       23.76757316916420
C           -7.83046927128423       61.99703002015711       20.85222464855669
H           -7.10449511308448       62.46468200195039       20.19891373510034
C           -8.95244695176462       62.65497585559142       21.12904403284705
H           -9.72325526278326       62.22665406574859       21.74011486453852
H           -9.14759492538637       63.63616681428141       20.73174309166676
C           -4.21883735534524       60.83276250517334       17.10212363427717
H           -4.66767051732289       61.58722898045120       17.73883056227790
H           -4.70678932043110       60.88887774232087       16.12825786043040
H           -3.16373819038901       61.07354528447307       16.96318298357157
C           -2.56749139557099       58.21410965267332       16.38761621055212
H           -1.78337001209621       57.47871204738252       16.52548046690312
C           -2.61441181091102       58.92901910992016       15.26632494463206
H           -3.40324407477585       59.63493587541407       15.10884866653520
H           -1.89769061708927       58.81628012788762       14.47421409215412
C           -3.06881183302214       53.08049785460501       17.65118850348653
H           -2.08310449121674       53.51658759877827       17.49603761434385
H           -3.68201959034750       53.31912018818349       16.78215121584009
H           -2.96478882128501       52.00211592327721       17.71543509896668
C           -4.25979617116731       51.46014394791433       20.13531449565413
H           -3.29607006060295       51.05575130049635       19.82986964183822
H           -5.03035942544054       50.95593944878881       19.54898330315378
H           -4.41554376364542       51.22256999535037       21.18237455518180
O           -4.10381844783768       57.42204700522876       22.33748389388889
H           -4.34571758105712       57.07498760496818       23.19863736883118
H           -3.32019672179757       57.97035137797569       22.29095569263569
C           -9.24015874487221       55.15125875258938       16.62157654367528
H           -9.63334014404427       55.92742063117550       15.96699724535910
H          -10.06493424816465       54.50753472508987       16.92456496853650
H           -8.51495684107020       54.56182039366377       16.07368522218573
N           -9.29333753242821       56.55940410696738       18.67591339129780
H          -10.26441461694443       56.81242436129949       18.59103440898750
C           -8.59849331678071       55.75444052210776       17.81547013779076
C           -8.44762466558605       56.92677772377876       19.66002018374257
H           -8.71466404619789       57.57585011700674       20.46500883202524
N           -7.26327080178592       56.40371810331094       19.48359089485675
C           -7.33369005234159       55.67317243499323       18.32812736488238
H           -6.48471897270229       55.14501015794511       17.94011611505524
78
 energy: -116.044518302294 gnorm: 0.029930000978 xtb: 6.7.1 (edcfbbe)
Fe          -5.71130679381960       56.87730178079691       20.78211912685287
N           -6.45805825800124       55.95930420269382       22.36761882016497
N           -6.63702518602734       58.54871953187708       21.37327216752099
N           -4.88700883402256       57.83759999167345       19.23561617585647
N           -4.78332795270579       55.18406161673235       20.20431287022759
C           -6.27667714891825       54.65185804056177       22.68073285393707
C           -6.81191232727594       54.35891469153654       23.99080569974706
C           -7.33587990989285       55.52434753057911       24.46468893945294
C           -7.10785908774099       56.51192906653470       23.43368990514369
C           -7.36499648990193       58.76286011174523       22.51228649109287
C           -7.93918660558507       60.08615415354869       22.51293130240987
C           -7.52939670409474       60.67982119985071       21.34180710637784
C           -6.69951009113660       59.70285724877875       20.66625963890058
C           -5.13987664116159       59.11669101369802       18.84806966799730
C           -4.32589843538537       59.48695596454699       17.72078686518672
C           -3.56755027846715       58.37614760158662       17.41459055424546
C           -3.97171774338195       57.35118490000510       18.34938226640291
C           -4.03468024099193       55.01853348394270       19.08626405971192
C           -3.75063715261674       53.61684845291657       18.86526242316355
C           -4.31361542207345       52.93920337422750       19.90368742659926
C           -4.96803296171352       53.94074075899034       20.72381908615004
C           -5.67718447370007       53.68730789918487       21.88316831845746
H           -5.77186827550736       52.65814579587637       22.21033997524525
C           -7.52358269516452       57.82770707789046       23.52928991252907
H           -8.01979112641490       58.13939684855498       24.43980379725111
C           -6.04188405016252       59.95893465111136       19.47834330055833
H           -6.22211252147093       60.92299807317913       19.02850594353215
C           -3.60109713717472       56.02292479994764       18.24372063747553
H           -2.96841845900453       55.74445664110198       17.41575890288427
C           -8.07111061778259       55.78221465167442       25.73343090179682
H           -8.14509610183378       54.87607617589791       26.32798832458516
H           -9.08253821705425       56.12582186333474       25.51491818337835
H           -7.58208815680368       56.54928856545494       26.33266100286330
C           -6.69820148613441       53.02999288855342       24.64784908243190
H           -5.67584061738040       52.66294879881446       24.56890772348362
H           -7.35420854898518       52.30524167078327       24.16635561974613
H           -6.95975454012986       53.08767401590987       25.69998057851815
C           -8.79608521653551       60.67395685556229       23.57853354373215
H           -8.72212063323920       60.12393191664079       24.51189723830457
H           -9.84449969488017       60.66549826382430       23.27248157522799
H           -8.51142834888675       61.71038103884641       23.75863024532157
C           -7.83808110645192       61.99745547984648       20.85100817117745
H           -7.10077007454602       62.45345397098994       20.20171079282864
C           -8.95322175784544       62.67136462059807       21.12130076795322
H           -9.74008733212017       62.25444877746836       21.72073510461891
H           -9.13341392864364       63.65419539058276       20.72435736840537
C           -4.23202114734199       60.84496516811598       17.12160769186243
H           -4.66264541090885       61.59682017370181       17.77509508857376
H           -4.75251809899074       60.90334800410216       16.16432731986480
H           -3.18188930345713       61.08826154615012       16.94771345900430
C           -2.58271215483599       58.21902711410987       16.37639296951773
H           -1.80648605164907       57.48160197940397       16.54589312483892
C           -2.59096202753782       58.91764395062232       15.24026471529010
H           -3.38184421697482       59.61307635431901       15.02868681422522
H           -1.84756005543989       58.79457284739012       14.47370659091589
C           -3.06407468277911       53.07810570580112       17.65807447125185
H           -2.07846451341572       53.51959473910282       17.52121948978027
H           -3.65817913384411       53.30787331885108       16.77151006053021
H           -2.95621789141943       51.99966585874386       17.72255797279474
C           -4.27200961514643       51.46977476264016       20.14193680358500
H           -3.30774443989591       51.06510666012173       19.83820788515348
H           -5.04259948106522       50.96236339905684       19.55971878043725
H           -4.42582500644241       51.23003415859904       21.18949706832230
O           -4.05916626149625       57.36179154440188       22.28302311118667
H           -4.33141378052455       57.12115409964287       23.18494915821895
H           -3.32376429395103       57.99548018428053       22.28354589376710
C           -9.23188170489571       55.15207012405651       16.62063445913987
H           -9.62382187197725       55.92505341184161       15.96169794463612
H          -10.05873342978394       54.50477573081528       16.91102683691227
H           -8.50493085391460       54.56259533831340       16.07483963425565
N           -9.30757485941722       56.55845287367897       18.67732528536392
H          -10.27646652958438       56.81489550628031       18.57936648411583
C           -8.60139665694008       55.75431857210464       17.82315026052772
C           -8.47570300554268       56.92180363477041       19.67858390438304
H           -8.75410950063147       57.56537726386316       20.48419401472209
N           -7.28692173245694       56.40444030020540       19.51535569877585
C           -7.34508215554253       55.67672568369967       18.35898733932315
H           -6.49164074942988       55.15437854276259       17.97822920927441
78
 energy: -116.048090787174 gnorm: 0.031596814129 xtb: 6.7.1 (edcfbbe)
Fe          -5.70622305974146       56.87519760582443       20.77712297639377
N           -6.45539229024150       55.94019730645627       22.36202116621338
N           -6.62444364621260       58.56147573778213       21.36748938096567
N           -4.86655230207464       57.85149626166158       19.24943534613613
N           -4.80490207358272       55.18337119894447       20.18808969565384
C           -6.27763047047467       54.63365691301444       22.67962602298633
C           -6.82011565561521       54.34546008838341       23.98750756739951
C           -7.34243110696720       55.51311961374342       24.45320160916662
C           -7.11170865751541       56.49790332294302       23.41926997409541
C           -7.35302086091139       58.76165952374663       22.49998937921009
C           -7.94452015396190       60.07322448668533       22.50488140129516
C           -7.54704762903633       60.67658821880036       21.33531497154413
C           -6.69959827889995       59.71624548195263       20.65966873888292
C           -5.11560651648365       59.13227537196338       18.87134458270584
C           -4.32094360961033       59.49833729571768       17.73152901807352
C           -3.58033281361190       58.38344873678621       17.40637052685970
C           -3.97144906641131       57.35993360192815       18.35262527576409
C           -4.04395451517326       55.01943039342173       19.07711080922820
C           -3.75958437658956       53.61958939303344       18.85961544150336
C           -4.32695600780714       52.94519855817057       19.89550439787712
C           -4.98351933732341       53.94322722702028       20.71135462202735
C           -5.66470413010791       53.67995536294121       21.88460465037472
H           -5.71511593223594       52.65351342732343       22.22841382604045
C           -7.53004875019122       57.81213555989749       23.49887751360983
H           -8.05943923056656       58.10858441936082       24.39574447365837
C           -6.02501341847910       59.97973917695574       19.48323881191899
H           -6.19636828503253       60.94198844309996       19.02514964122353
C           -3.59948703793646       56.03241647971918       18.24845635229201
H           -2.95547212812676       55.75593226903639       17.42741022602755
C           -8.06383272879724       55.77868501880442       25.72968770243651
H           -8.13188701215977       54.87481320448212       26.32985591492420
H           -9.07713302098118       56.12482738312781       25.52151954541300
H           -7.56240082345232       56.54680480914551       26.31901821713807
C           -6.71715045630112       53.01908262932080       24.65673325757303
H           -5.69373054653841       52.64966837975814       24.59289199256844
H           -7.36998669263624       52.28856038417980       24.17760217457324
H           -6.99061586777455       53.08843023625155       25.70652839510713
C           -8.79157898270253       60.65556681133288       23.58321271095937
H           -8.68124946701050       60.11151723476551       24.51934083281629
H           -9.84919838662543       60.62816325081946       23.30543855600234
H           -8.51859242767174       61.69869558632408       23.74755287327639
C           -7.84962165042628       61.99999213925329       20.84799701238516
H           -7.09957581106874       62.44772487957062       20.20614947281079
C           -8.95726601041781       62.68871021319163       21.11103673571602
H           -9.75626814073022       62.28485095122505       21.70638337495123
H           -9.11596942550073       63.67791503955407       20.71711777315665
C           -4.24147037450357       60.85602199424962       17.12835670385312
H           -4.64583672752787       61.60774885309233       17.80308840851830
H           -4.79890864523929       60.91182671510079       16.19007136621455
H           -3.19817034583358       61.10170951626412       16.91551186471965
C           -2.59582361457643       58.22319439203801       16.36550849165303
H           -1.82254169528570       57.48806796316385       16.56052861493482
C           -2.57694910521817       58.90224534110754       15.21868318988460
H           -3.34884811206687       59.61137066056224       14.97218976841627
H           -1.80446582026949       58.76713295622920       14.47871476835538
C           -3.05160041376435       53.07605528448111       17.66530624618648
H           -2.06469373942166       53.52309096706306       17.54972871860599
H           -3.62700084907617       53.29692290799519       16.76242384320372
H           -2.94012998198104       51.99726848597926       17.73783187844839
C           -4.28668566884446       51.47595847373211       20.14554817070992
H           -3.32183706036942       51.06962454722053       19.84369978321199
H           -5.06132314618596       50.96461465422768       19.57158862142326
H           -4.43689602535638       51.24587772985969       21.19689650366997
O           -4.01506351552484       57.31721897701463       22.23095975786219
H           -4.30510422943883       57.14994451939332       23.14697312195131
H           -3.33365016965155       58.01977494588598       22.26531908567214
C           -9.21888646361062       55.15409905106293       16.62424178920495