91
 energy: -134.052463983890 gnorm: 0.231537370515 xtb: 6.7.1 (edcfbbe)
Fe           0.28100000000000        6.18800000000000      -15.49200000000000
N            0.36200000000000        8.16900000000000      -15.85500000000000
N            0.17700000000000        5.80600000000000      -17.50900000000000
N            0.00700000000000        4.22300000000000      -15.13900000000000
N            0.21100000000000        6.55900000000000      -13.51300000000000
C            0.47300000000000        9.18900000000000      -14.91600000000000
C            0.44200000000000       10.46000000000000      -15.59500000000000
C            0.32800000000000       10.21700000000000      -16.92700000000000
C            0.30800000000000        8.78400000000000      -17.10900000000000
C            0.20000000000000        6.76700000000000      -18.50600000000000
C            0.19100000000000        6.09900000000000      -19.77100000000000
C            0.18300000000000        4.78300000000000      -19.53200000000000
C            0.15900000000000        4.57900000000000      -18.12100000000000
C           -0.03100000000000        3.21700000000000      -16.09600000000000
C           -0.23000000000000        1.95200000000000      -15.43500000000000
C           -0.33300000000000        2.18500000000000      -14.11400000000000
C           -0.17000000000000        3.61100000000000      -13.90000000000000
C            0.04700000000000        5.59400000000000      -12.53900000000000
C            0.15900000000000        6.18500000000000      -11.23500000000000
C            0.37400000000000        7.63000000000000      -11.47900000000000
C            0.40800000000000        7.79200000000000      -12.91500000000000
C            0.54500000000000        8.98200000000000      -13.56900000000000
H            0.73200000000000        9.86000000000000      -12.95000000000000
C            0.23300000000000        8.13300000000000      -18.32300000000000
H            0.19700000000000        8.75400000000000      -19.21800000000000
C            0.11600000000000        3.37700000000000      -17.46400000000000
H            0.20500000000000        2.47300000000000      -18.06700000000000
C           -0.18100000000000        4.25000000000000      -12.69800000000000
H           -0.38400000000000        3.65700000000000      -11.80600000000000
C            0.27400000000000       11.22700000000000      -18.10400000000000
H            0.34500000000000       12.26200000000000      -17.70799999999999
H           -0.68700000000000       11.11500000000000      -18.65100000000000
H            1.12600000000000       11.04600000000000      -18.79300000000000
C            0.47400000000000       11.82600000000000      -14.87700000000000
H            1.52800000000000       12.15500000000000      -14.75200000000000
H            0.00400000000000       11.73400000000000      -13.87500000000000
H           -0.06900000000000       12.58200000000000      -15.48400000000000
C            0.25500000000000        6.82000000000000      -21.12600000000000
H            0.82600000000000        7.76700000000000      -21.01600000000000
H           -0.77300000000000        7.05800000000000      -21.47400000000000
H            0.76800000000000        6.17500000000000      -21.87100000000000
C            0.17600000000000        3.60400000000000      -20.50800000000000
H            0.60000000000000        2.64200000000000      -20.18500000000000
C           -0.31500000000000        3.66300000000000      -21.73800000000000
H           -0.75300000000000        4.59700000000000      -22.12000000000000
H           -0.29000000000000        2.77900000000000      -22.39200000000000
C           -0.34700000000000        0.59700000000000      -16.14800000000000
H            0.62500000000000        0.06200000000000      -16.09000000000000
H           -0.60800000000000        0.75600000000000      -17.21600000000000
H           -1.12700000000000       -0.02100000000000      -15.65400000000000
C           -0.60400000000000        1.25900000000000      -12.93000000000000
H           -0.92000000000000        1.70200000000000      -11.97400000000000
C           -0.48600000000000       -0.05800000000000      -12.96500000000000
H           -0.17400000000000       -0.56600000000000      -13.88900000000000
H           -0.69900000000000       -0.66200000000000      -12.07000000000000
C            0.03400000000000        5.52600000000000       -9.86500000000000
H            0.67900000000000        4.62200000000000       -9.82800000000000
H           -1.02000000000000        5.22300000000000       -9.68900000000000
H            0.36200000000000        6.23600000000000       -9.07600000000000
C            0.58500000000000        8.69600000000000      -10.41300000000000
H            1.64000000000000        8.67000000000000      -10.06700000000000
H           -0.08300000000000        8.49900000000000       -9.54800000000000
H            0.37000000000000        9.70000000000000      -10.83800000000000
C            5.62200000000000        5.18400000000000      -13.99600000000000
H            6.42800000000000        5.85600000000000      -14.36100000000000
H            5.93000000000000        4.13000000000000      -14.16200000000000
H            5.46400000000000        5.36700000000000      -12.91200000000000
N            4.27300000000000        5.33000000000000      -16.11200000000000
H            5.03700000000000        5.07300000000000      -16.70300000000000
C            4.35700000000000        5.46600000000000      -14.74700000000000
C            3.03800000000000        5.59000000000000      -16.50700000000000
H            2.69000000000000        5.52000000000000      -17.53700000000000
N            2.33000000000000        5.94000000000000      -15.44800000000000
C            3.12400000000000        5.84600000000000      -14.32800000000000
H            2.73600000000000        6.05800000000000      -13.34000000000000
C           -4.94700000000000        2.43900000000000      -18.08600000000000
H           -4.41800000000000        2.22400000000000      -19.03900000000000
H           -5.96800000000000        2.82000000000000      -18.29900000000000
H           -4.98600000000000        1.52300000000000      -17.46000000000000
C           -4.15800000000000        3.50700000000000      -17.35800000000000
C           -3.76900000000000        4.67400000000000      -18.01400000000000
H           -4.05700000000000        4.82400000000000      -19.04400000000000
C           -3.02200000000000        5.64100000000000      -17.37100000000000
H           -2.70700000000000        6.52400000000000      -17.90700000000000
C           -2.67600000000000        5.48000000000000      -16.03900000000000
O           -1.94500000000000        6.42800000000000      -15.36700000000000
H           -1.55200000000000        6.00900000000000      -14.59800000000000
C           -3.80100000000000        3.35300000000000      -16.01000000000000
H           -4.09600000000000        2.45800000000000      -15.48200000000000
C           -3.07500000000000        4.33000000000000      -15.34300000000000
H           -2.82100000000000        4.20600000000000      -14.30100000000000
91
 energy: -134.098242978583 gnorm: 0.096680978236 xtb: 6.7.1 (edcfbbe)
Fe           0.27091008709150        6.19569673900692      -15.50286384257905
N            0.37604221361673        8.17053600130350      -15.86254312701240
N            0.18524199075093        5.81254640167655      -17.50591550597292
N            0.01193763535159        4.21841540746696      -15.13966205363733
N            0.21476193163829        6.55547274555296      -13.51505721305262
C            0.46932816336437        9.17990472021729      -14.93151217976891
C            0.44071835475436       10.46643820915097      -15.59627887776581
C            0.33455419965106       10.22203055581826      -16.93066671907297
C            0.30557633593720        8.78287578386593      -17.09420823308812
C            0.20235776371780        6.75520999283826      -18.50293608038144
C            0.19600165061124        6.09877571685935      -19.78697358848014
C            0.18513353899597        4.75912398106522      -19.54710833768041
C            0.16939144520320        4.58905124417131      -18.11447083412166
C           -0.01812125512417        3.21308000562888      -16.07733320085890
C           -0.23315071579289        1.93847212032685      -15.42916532994923
C           -0.34264807898515        2.17815026921651      -14.09259418577666
C           -0.17370251557777        3.61099131623762      -13.91423449727540
C            0.05217296846168        5.62178346843434      -12.52679080686218
C            0.15795919249128        6.23286041780358      -11.23117064768916
C            0.38071462937039        7.60203452162428      -11.46860321280811
C            0.40919110841320        7.76757017129682      -12.90096634746406
C            0.54607003823246        8.97346836788881      -13.56806203269973
H            0.71897142862909        9.85159349636343      -12.95288186544558
C            0.23146903971244        8.12759001080627      -18.31076894205215
H            0.19746588851885        8.74771893598245      -19.20087129967949
C            0.12149938426169        3.38082680263796      -17.44701615501983
H            0.18460020870577        2.48281525871009      -18.05229014556112
C           -0.17865347612400        4.26433712729678      -12.70283961244827
H           -0.36561152612382        3.67361742668726      -11.81361872426249
C            0.27481698875823       11.21271512410582      -18.08064082022727
H            0.34421336643237       12.23942294380432      -17.70953540767146
H           -0.66542940962847       11.10923798075135      -18.63459709180215
H            1.10686950448081       11.04369033856720      -18.77327852628344
C            0.47669051919152       11.80627004054837      -14.88877816970247
H            1.51140656104484       12.14491453418789      -14.75529462240799
H            0.01019554325432       11.73414241803055      -13.90163378257501
H           -0.05791396078102       12.56242328719816      -15.47206407520080
C            0.25742931254853        6.81568223394911      -21.11402668574500
H            0.81685072118807        7.75166589234890      -21.01841617696260
H           -0.75242165817274        7.05328854735593      -21.46866631981236
H            0.75766557360819        6.18748857234832      -21.85717859487017
C            0.17737288775949        3.62283455227402      -20.50386987939608
H            0.59647247542368        2.67676695507738      -20.16335932514658
C           -0.31318347092455        3.67162068786075      -21.73574640540612
H           -0.76170172148706        4.57560943578434      -22.12535035870304
H           -0.29273044255445        2.80070130534137      -22.38318138322835
C           -0.34630731395817        0.61269642178860      -16.14335646395182
H            0.60766155029922        0.07262439041935      -16.09255711392624
H           -0.60701433832247        0.75408045782760      -17.19575823360302
H           -1.11839461342729       -0.00277732965868      -15.67141678533911
C           -0.60239175666450        1.26514053137833      -12.95257192144939
H           -0.91247448210550        1.72050995355573      -12.01306903612392
C           -0.48407700136609       -0.05669768403513      -12.97417339879280
H           -0.16634375005435       -0.57813923580825      -13.86537797700361
H           -0.69464826196719       -0.65356866339846      -12.09210380894119
C            0.03808660724518        5.54681554526923       -9.89222502678106
H            0.66726170318510        4.64818290173331       -9.84034071418728
H           -0.99734016807465        5.23666893619684       -9.69795417504039
H            0.35283198092754        6.22428921038856       -9.09360104620135
C            0.58291257116994        8.67204341973381      -10.42857567880779
H            1.62148292132963        8.66844804356643      -10.07279838755327
H           -0.07159938910697        8.50254787948523       -9.56720031765469
H            0.37064070846290        9.66855508518126      -10.83167760895281
C            5.62248702355882        5.18742770624623      -13.99950459292681
H            6.42606693534436        5.84455549891910      -14.35085585075184
H            5.93225537380882        4.14741354153274      -14.15175828508919
H            5.46710884401297        5.36177362885056      -12.93239696399052
N            4.28692239761911        5.32201679198292      -16.10694833236279
H            5.05314289640903        5.06316935333070      -16.70342758711110
C            4.36426296787707        5.46366629172015      -14.74681661572537
C            3.03461322820188        5.59953890680028      -16.49447227162416
H            2.69057974328078        5.53525250387079      -17.51262138364460
N            2.30643880399916        5.92729589015442      -15.44869688875237
C            3.11811736594884        5.84632103893942      -14.34683123983801
H            2.73730420469772        6.05841558746852      -13.36548800960377
C           -4.93630737984829        2.44628914521627      -18.08128627025832
H           -4.43810406411307        2.21744115664718      -19.02923636003569
H           -5.94908455979157        2.80283357935673      -18.29797451033013
H           -4.99451226432487        1.53595390943474      -17.47874619197603
C           -4.15691123390632        3.50806218721436      -17.35365942757346
C           -3.77026245636371        4.67077121333171      -18.01054444868755
H           -4.05131735059720        4.81705484511665      -19.04373443956506
C           -3.02604259181525        5.64091404567190      -17.36790732652703
H           -2.70596232825085        6.52504249682769      -17.89811700825450
C           -2.68049744196119        5.47246736312510      -16.03690365429160
O           -1.95176946291987        6.42767846485951      -15.37663072847977
H           -1.58901522563090        6.02345554980200      -14.57131425379440
C           -3.80497352035440        3.35293835837855      -16.01504216893977
H           -4.09688571598584        2.45733592758811      -15.48573481839420
C           -3.08507573165015        4.32779109371081      -15.35158576544375
H           -2.82364984471236        4.20224199480975      -14.30998568811144
91
 energy: -134.109656781094 gnorm: 0.026922638897 xtb: 6.7.1 (edcfbbe)
Fe           0.27467817897869        6.19792546913600      -15.51117367786068
N            0.38275366663462        8.16653084392317      -15.86536092874524
N            0.19789354890746        5.81920400636465      -17.49899349724225
N            0.01331431684311        4.21303409334227      -15.13901797132935
N            0.21550105531264        6.55512766999421      -13.51746565997725
C            0.46930973292966        9.16301360515775      -14.94068083123750
C            0.43977234324102       10.46096075582745      -15.59288758552881
C            0.33959258887924       10.21674908827978      -16.92919378944671
C            0.31116854134306        8.77380870406396      -17.08010903165049
C            0.21039129414933        6.74626467526353      -18.49505329372502
C            0.19912719277505        6.10018039763701      -19.78916343920389
C            0.18477571824512        4.74726998164500      -19.54909283160746
C            0.18063727986397        4.60035738464040      -18.10244438947361
C           -0.00989662565097        3.21275021050441      -16.06400372701748
C           -0.22969518796658        1.93360203441400      -15.42705989309133
C           -0.34559785991808        2.17928333164729      -14.08014266769244
C           -0.17616829727292        3.61619618616869      -13.92605969247290
C            0.05547502921792        5.63837281237538      -12.52317503265007
C            0.16047891717012        6.26881492161772      -11.23172946885333
C            0.38536865257987        7.58457884983781      -11.46405240883817
C            0.41181549704008        7.75415093843086      -12.89829614982798
C            0.54794447022078        8.96482804500496      -13.56944039126353
H            0.70021115956179        9.84435599261645      -12.95801471573106
C            0.23778203079381        8.12100922298550      -18.29907287185564
H            0.19794589042529        8.74207725721920      -19.18364830980124
C            0.12187173461947        3.38825393922903      -17.43382195006218
H            0.15367930569917        2.49526965431545      -18.04263323006548
C           -0.17328434789441        4.27846515889558      -12.71044832323580
H           -0.33867001961261        3.68978307984129      -11.82056322455129
C            0.27708192587892       11.19344146019032      -18.05759074481268
H            0.34388293496345       12.21468685797733      -17.69291680819251
H           -0.65458860401935       11.09050480006403      -18.61309107743767
H            1.09982583848105       11.03111527992289      -18.75343460927575
C            0.47928063603873       11.78305644517629      -14.89776620578734
H            1.50636499497634       12.12312929968127      -14.76089506038865
H            0.01191965649456       11.72131798881929      -13.91853889936932
H           -0.04900760613867       12.53809553692783      -15.47505735960038
C            0.26009787494621        6.81000100079053      -21.09861963676010
H            0.81338032367995        7.74153301617335      -21.00992021409657
H           -0.74110440555267        7.04784257192212      -21.45852707829326
H            0.75185765012246        6.18852387646274      -21.84289810962966
C            0.17323231982584        3.64703650824243      -20.48820830167237
H            0.59523542909675        2.71394618844448      -20.13330661894217
C           -0.31558705415393        3.68299479860606      -21.72516252110084
H           -0.77684979836890        4.56392791185261      -22.12922114927617
H           -0.28521082949243        2.82016136675627      -22.36933877011267
C           -0.34737947325795        0.62901918889806      -16.13867255812190
H            0.59655736628908        0.08337546462183      -16.09329826983729
H           -0.60757676173140        0.76862824299918      -17.18330166916317
H           -1.11785725775741        0.01583124965330      -15.67730760196673
C           -0.59843234159840        1.27735091000386      -12.97998888369354
H           -0.91072562014755        1.74419184882284      -12.05387961820118
C           -0.47830996795372       -0.04903798618511      -12.98642285556371
H           -0.15002968149940       -0.59122862195330      -13.85117073040003
H           -0.69482462367676       -0.63653051439373      -12.11002524332570
C            0.04182671476063        5.56859720670314       -9.91496770821550
H            0.66724591756050        4.67611479867598       -9.87624482588762
H           -0.98666490253257        5.25525712655844       -9.72496688434949
H            0.34858205863924        6.22842061883512       -9.10799571611023
C            0.58186949280727        8.65674278624975      -10.44210927401856
H            1.61335808366036        8.66101035767518      -10.08458965639474
H           -0.06799059746320        8.49408238887287       -9.58470883818637
H            0.36585091839398        9.64286278460633      -10.84496359960174
C            5.62056002223789        5.19207726065952      -13.99864016588288
H            6.42319628259140        5.84162650297891      -14.34364439801684
H            5.93278641474821        4.15891541956360      -14.14376467769223
H            5.46367197324241        5.36226369522802      -12.94004645029768
N            4.29740538536387        5.31528976247362      -16.10727831695556
H            5.06308983043799        5.05395468396469      -16.70692766102529
C            4.36759071709883        5.46067607998074      -14.74833795497692
C            3.03518541377976        5.60353243148647      -16.48945098635965
H            2.69486839308686        5.54995310092944      -17.50140785249949
N            2.29707708298892        5.92445450328470      -15.45547714909340
C            3.11273773972630        5.84123370246314      -14.36350496863905
H            2.74000766024584        6.05595387773148      -13.38453698542561
C           -4.93179121058914        2.44742043913487      -18.08235813655848
H           -4.44885646883266        2.21251948051235      -19.02795737534343
H           -5.94017202668302        2.79649506294659      -18.29827574097504
H           -5.00022153814461        1.54151064201242      -17.48802899969307
C           -4.15678708742559        3.50368356917279      -17.35500970746005
C           -3.76851151176112        4.66541644711293      -18.01080890335731
H           -4.04049275407152        4.80802011157020      -19.04694426321852
C           -3.02983335347977        5.63865938350535      -17.36552127900993
H           -2.70483866298522        6.52567032906511      -17.88652561660840
C           -2.68631299967368        5.46431324316986      -16.03305095787822
O           -1.95500482042708        6.42620386425745      -15.38662803684299
H           -1.65331985958392        6.05262782780155      -14.52876647392656
C           -3.81234381621350        3.34781030651673      -16.02014865850752
H           -4.10217965029698        2.45192271433761      -15.49025498566792
C           -3.09638124823632        4.32289209216490      -15.35665644486712
H           -2.82861632553065        4.19468239694217      -14.31614077139714
91
 energy: -134.111921876997 gnorm: 0.019863856289 xtb: 6.7.1 (edcfbbe)
Fe           0.27096087301307        6.19811635283359      -15.51173466266308
N            0.39633118542253        8.15825738017389      -15.86333068212289
N            0.21067542154268        5.82358002048888      -17.49090983572640
N            0.01958332353332        4.21429540781861      -15.13930091591831
N            0.22070332896554        6.55727973376033      -13.51953472763514
C            0.47563094050703        9.15243834672129      -14.94077584323655
C            0.44528826475352       10.44959875429994      -15.58974812589448
C            0.34771707181954       10.20608425340316      -16.92436640552665
C            0.32181184444873        8.76532659148533      -17.07501450746173
C            0.21999803976567        6.74737804367754      -18.48759626284905
C            0.20009751528505        6.10520631155673      -19.78022649773598
C            0.18214108020203        4.75266808905967      -19.54002881129280
C            0.18561385539686        4.60684003237779      -18.09328231551799
C           -0.00504772112352        3.21624816327588      -16.06332654310661
C           -0.22389365432503        1.93900664151898      -15.43068859443873
C           -0.33897507777635        2.18530280837665      -14.08323847354484
C           -0.16979549263512        3.62104792587008      -13.93005938373749
C            0.06042636109594        5.63901400343752      -12.52741421456404
C            0.16135691695408        6.27131418680367      -11.23531926462712
C            0.39448076868436        7.59184447965828      -11.46879727971170
C            0.41863032019970        7.75641795687019      -12.90401001166932
C            0.55004865338694        8.96436361177710      -13.57059198381095
H            0.68576747284460        9.84672821646023      -12.96091278303907
C            0.24641267023235        8.12008549144968      -18.29450294433332
H            0.20136522759659        8.74301613162807      -19.17605140846624
C            0.11755749032989        3.39395923855241      -17.43167811890473
H            0.12057522233000        2.50285061011303      -18.04397493318892
C           -0.16308413955542        4.28260027652778      -12.71433008237901
H           -0.31118983781171        3.69338143614474      -11.82201385010888
C            0.27965303509295       11.18105818572442      -18.04851935459178
H            0.34306000159110       12.20095555787093      -17.67883755381889
H           -0.65348880257528       11.07173804272041      -18.60085334652529
H            1.10259352738217       11.02073733411905      -18.74491739908084
C            0.48425077747047       11.76933349536925      -14.89762550166300
H            1.51285999878324       12.10437127831431      -14.75729189968759
H            0.01004184811889       11.71065317357530      -13.92114634279874
H           -0.03901865015789       12.52304555043834      -15.48188189905640
C            0.26225470405516        6.81148328023381      -21.08903604879975
H            0.81757866786196        7.74266077482745      -21.00195502071397
H           -0.73905906000863        7.04948927130485      -21.45026835260802
H            0.75175397948101        6.18532711806444      -21.83200151439387
C            0.17156355281324        3.65703342954346      -20.47791517083797
H            0.59710086821630        2.72815986646856      -20.11624162779309
C           -0.31524928002512        3.68764668370180      -21.71643549296175
H           -0.80045343813703        4.55718334903587      -22.12235989361181
H           -0.27595207559301        2.82389648597052      -22.35833232291821
C           -0.35233685605426        0.63857019909135      -16.14239018286798
H            0.58736230295395        0.08442581764641      -16.09987730877230
H           -0.61344144904586        0.78475815493754      -17.18650355884131
H           -1.12808921454219        0.03129615449506      -15.68065812804186
C           -0.59642067032788        1.28278612362411      -12.99065405561805
H           -0.92238348746565        1.75513469141964      -12.07191894810883
C           -0.47239662792861       -0.04379301889963      -12.98970545664038
H           -0.11674823415663       -0.59680768749083      -13.83975959455939
H           -0.70181378567991       -0.62465209242665      -12.11244188416045
C            0.04108609673132        5.57220594957023       -9.92366587801749
H            0.67146340718830        4.68420851341051       -9.89761443022586
H           -0.98843957209254        5.25922009920291       -9.74392515359800
H            0.34472594136603        6.23065004990232       -9.11409649778735
C            0.58579205163790        8.66364580848304      -10.44977367652950
H            1.61701420677523        8.66959099668678      -10.09269919332301
H           -0.06581486996047        8.49531581238596       -9.59465441316316
H            0.36295425805042        9.64447547119079      -10.85917919037951
C            5.61446129903690        5.19574020945305      -13.99583779909507
H            6.41829666069311        5.84663119840753      -14.33743480034031
H            5.93295062057311        4.16293430026244      -14.13468305943281
H            5.45151561212724        5.36843217767439      -12.93794149869023
N            4.29896502419607        5.31311935132582      -16.11200110068508
H            5.06534365305715        5.05012765009953      -16.71019412481756
C            4.36359925580236        5.45819501788207      -14.75203307412857
C            3.03699018328732        5.60502496688902      -16.49643523347999
H            2.70206190221425        5.56456844178034      -17.51084116574939
N            2.29273133499091        5.91957507088294      -15.46486448812207
C            3.10676545350981        5.83708998955548      -14.37256325274615
H            2.73632992581593        6.05330845721747      -13.39336542419717
C           -4.93262365949825        2.44306429566927      -18.08995212749654
H           -4.45383790752370        2.20437013205389      -19.03708082776421
H           -5.94035138385755        2.79541910222123      -18.30512565306980
H           -5.00687450602428        1.53650376570785      -17.49623985310169
C           -4.15522210681170        3.49612142660826      -17.36061667250723
C           -3.76089643150998        4.65805642840504      -18.01362193895468
H           -4.02227700831318        4.79779811633915      -19.05285148094444
C           -3.03057499474542        5.63286044411709      -17.36182194381276
H           -2.70340420192463        6.52317056553853      -17.87533443229333
C           -2.69534342372722        5.45804956555914      -16.02626700781802
O           -1.97129954420207        6.42661196759996      -15.38065835608384
H           -1.71516538167088        6.08025036326608      -14.49259213466336
C           -3.81916776336658        3.33939741221830      -16.02385653593477
H           -4.11195919992013        2.44348533898188      -15.49594415266343
C           -3.10656057802927        4.31472056500951      -15.35523907166923
H           -2.84164391108039        4.18331926264064      -14.31470703403124
91
 energy: -134.113543641575 gnorm: 0.018984586008 xtb: 6.7.1 (edcfbbe)
Fe           0.27473737716805        6.19807097132049      -15.51574147066427
N            0.40475044366170        8.14672865938037      -15.85991069648056
N            0.21535989703819        5.83060700712229      -17.48077928885099
N            0.02282794718547        4.22018257729276      -15.14156223774340
N            0.22668066307515        6.56019054572107      -13.52727050884086
C            0.48199347503982        9.13983527723417      -14.93940283295183
C            0.45282426065706       10.43583743193143      -15.58489557514890
C            0.35885152204642       10.19383887942262      -16.91817546933348
C            0.33412766588346        8.75601338607564      -17.07014190375025
C            0.22812855607420        6.75127393215157      -18.47980522785043
C            0.19847684671388        6.11217906184834      -19.76899964896807
C            0.17343912043860        4.76127881161172      -19.52811048066376
C            0.18147833265019        4.61567654035541      -18.08294099528824
C           -0.00711891490280        3.22231609351816      -16.06501223934513
C           -0.21888748047506        1.94747993098992      -15.43501827905909