78
 energy: -116.058078128819 gnorm: 0.000055287581 xtb: 6.7.1 (edcfbbe)
Fe          56.82747405244970       21.46002804646599       37.63105572790475
N           58.16209900420075       21.77482841457674       36.15662905160098
N           57.61493590234637       19.62840033500702       37.93304946506250
N           55.55207790476163       21.16336566414811       39.13359274906264
N           56.09874351368855       23.29294571610855       37.35513378733897
C           58.26098451709142       22.87796878453031       35.36787492582289
C           59.31257540538980       22.71505204183466       34.39026113747488
C           59.84738445080473       21.48221221347176       34.60385951543528
C           59.11165274553377       20.90680276831533       35.70687844191517
C           58.63750902115160       19.04737307215954       37.24268939834937
C           58.87428408047531       17.70718298131835       37.70947554995955
C           57.95418435323162       17.47557230605542       38.69923244191094
C           57.18491475159618       18.69697040582641       38.82463887939928
C           55.41310673428249       20.03239492451717       39.87732453893120
C           54.36827478352761       20.18814717769541       40.85871400546117
C           53.86912833348627       21.45154152776036       40.68997211737653
C           54.63262332192273       22.04028820839793       39.60556130704664
C           55.09705585271770       23.88274488102089       38.05635538294806
C           54.83080397398951       25.21321581966600       37.55144053202876
C           55.69759722500318       25.41002567543298       36.52373393897567
C           56.48166823177130       24.19763797448799       36.41700599634520
C           57.48148215354485       24.01389193860960       35.48178737015743
H           57.67228835766545       24.81933636579040       34.78935198227513
C           59.34666512580033       19.64230134177348       36.21132690116002
H           60.12914028183278       19.06202109898050       35.74660637370187
C           56.15423082528509       18.87426219935594       39.72689273101192
H           55.90527324382529       18.04113168400732       40.36597460555534
C           54.40617466844926       23.30943357379837       39.10623548155551
H           53.62638010776684       23.89676487668316       39.56673000466525
C           60.96264304791239       20.79904323819505       33.88864555442332
H           61.77023871263761       20.55530784505168       34.57956033849548
H           61.36508955485593       21.43481474208686       33.10397865948675
H           60.61695529964133       19.87039026429644       33.43332444572079
C           59.68536216052301       23.74301180507168       33.37788862376281
H           60.00149992721476       24.66501546044249       33.86639082928681
H           58.83434536081719       23.97546126276054       32.73742628077655
H           60.50065278811434       23.39142866576719       32.75027902423124
C           59.96389405091655       16.81176943012463       37.23093857738596
H           60.86827273238032       17.38145116187604       37.02181672926041
H           59.67196911659953       16.29468663306201       36.31507385097545
H           60.19108621899012       16.06423624706439       37.98830629237002
C           57.76458038348974       16.29425056821409       39.51105693287298
H           57.42852141179076       16.47286415838268       40.52585663875718
C           57.95878440141055       15.04196838258397       39.11015415893691
H           58.24543510499382       14.79997423852274       38.10163230293157
H           57.81003126437931       14.20833174854573       39.77624778600499
C           53.99693730002176       19.17500804763694       41.88455094321522
H           54.88341700682534       18.67131906810841       42.26715906434834
H           53.33413634459470       18.41766951624812       41.46241903663686
H           53.48483397602249       19.65599477711715       42.71535271008543
C           52.82452131871155       22.12957776821304       41.42526971291920
H           52.96087154989537       23.19710518164417       41.55379814918619
C           51.73953558084469       21.55319662969407       41.93232812638918
H           51.52949424852938       20.50675901935015       41.79490314130843
H           51.00670442314380       22.11842994745258       42.48408465878516
C           53.79530819033072       26.13067099554714       38.10511677154396
H           53.99742704661764       26.34514573011387       39.15462894672709
H           52.80527872645722       25.67889752137598       38.03702836749475
H           53.78052249200140       27.07153584702122       37.56045295655377
C           55.86771643774752       26.60170399702974       35.64512681980532
H           55.16205780160341       27.38396538013334       35.91365957263761
H           55.70348481278334       26.33492633904349       34.60078256855934
H           56.87675412612101       27.00428453611222       35.73665382379468
O           58.43942734966645       22.23981091592274       39.06532248781916
H           59.07867422252691       22.56675641212466       38.42294062525912
H           58.77809119261646       21.40258156564392       39.40072348966707
C           52.24713982966484       20.14485040274470       34.73904916199145
H           51.87666447921646       19.12258984243441       34.81440485247058
H           52.19146430490954       20.45144429968067       33.69457850699288
H           51.60395065436451       20.79210807477513       35.32683757520378
N           54.67400825749219       19.52905942995039       34.69022083916651
H           54.60125061680650       18.89154554324348       33.91443552048945
C           53.64052142994571       20.23890614943144       35.24317660223947
C           55.79687505099251       19.83850318112687       35.37658047850645
H           56.76262937775210       19.42967353605595       35.16270563459433
N           55.53751480657888       20.70047690116688       36.32942948515746
C           54.20009158639776       20.95974943415179       36.25895078656740
H           53.73362099855444       21.64190613985701       36.93936721776947
