72
 energy: -105.853803016275 gnorm: 0.253332114511 xtb: 6.7.1 (edcfbbe)
Fe          48.47300000000000       46.17999999999999        9.32100000000000
N           47.78400000000000       44.31699999999999        9.44700000000000
N           50.34600000000000       45.48900000000000        9.68200000000000
N           49.10500000000000       48.03099999999999        9.76400000000000
N           46.58000000000000       46.86000000000000        9.55900000000000
C           46.49100000000000       43.93600000000000        9.14400000000000
C           46.41699999999999       42.50300000000000        9.04500000000000
C           47.64100000000000       42.00400000000000        9.28700000000000
C           48.49700000000000       43.13500000000000        9.59400000000000
C           50.76500000000000       44.15700000000000        9.69600000000000
C           52.18099999999999       44.07800000000000        9.46500000000000
C           52.63799999999999       45.30299999999999        9.29300000000000
C           51.50699999999999       46.20000000000000        9.45500000000000
C           50.42400000000000       48.45300000000000        9.64900000000000
C           50.46900000000000       49.89500000000000        9.65300000000000
C           49.20900000000000       50.32700000000000        9.78400000000000
C           48.34900000000000       49.16900000000000        9.90800000000000
C           46.16900000000000       48.16800000000000        9.72300000000000
C           44.72299999999999       48.24900000000000        9.52200000000000
C           44.29300000000000       47.03100000000000        9.20000000000000
C           45.43800000000000       46.15500000000000        9.22700000000000
C           45.44599999999999       44.80600000000000        8.92500000000000
H           44.54400000000000       44.39399999999999        8.47300000000000
C           49.87700000000000       43.06399999999999        9.84500000000000
H           50.28900000000000       42.11000000000000       10.17400000000000
C           51.50699999999999       47.59800000000000        9.44500000000000
H           52.46700000000000       48.07699999999999        9.25500000000000
C           46.99100000000000       49.21200000000000       10.08500000000000
H           46.54600000000000       50.10300000000000       10.52700000000000
C           48.10000000000000       40.54600000000000        9.33800000000000
H           47.28800000000000       39.88800000000000        8.96100000000000
H           48.33500000000000       40.26300000000000       10.38600000000000
H           48.99800000000000       40.41300000000000        8.69800000000000
C           45.08900000000000       41.79399999999999        8.75700000000000
H           44.78000000000000       41.99699999999999        7.70900000000000
H           44.30400000000000       42.17500000000000        9.44400000000000
H           45.21200000000000       40.69799999999999        8.89100000000000
C           52.94500000000000       42.74300000000000        9.43200000000000
H           52.53400000000000       42.10000000000000        8.62500000000000
H           52.82700000000000       42.21900000000000       10.40500000000000
H           54.02100000000000       42.93100000000000        9.23000000000000
C           54.08400000000000       45.79600000000000        9.04900000000000
H           54.35799999999999       46.29600000000000        8.10800000000000
C           55.03499999999999       45.61799999999999        9.99400000000000
H           54.79100000000000       45.12200000000000       10.94500000000000
H           56.06400000000000       45.96700000000000        9.82300000000000
C           51.75800000000000       50.69600000000000        9.45000000000000
H           52.09700000000000       50.59200000000000        8.39700000000000
H           52.55100000000000       50.30800000000000       10.12400000000000
H           51.56999999999999       51.77000000000000        9.66400000000000
C           48.69600000000000       51.80300000000000        9.85400000000000
H           48.21999999999999       52.31700000000000        9.00800000000000
C           48.87799999999999       52.43200000000000       11.05800000000000
H           49.35600000000000       51.90500000000000       11.89700000000000
H           48.54799999999999       53.47200000000000       11.20000000000000
C           43.90799999999999       49.55400000000000        9.63700000000000
H           44.39200000000000       50.34799999999999        9.02900000000000
H           43.87400000000000       49.88300000000000       10.69800000000000
H           42.87700000000000       49.38700000000000        9.25800000000000
C           42.87900000000000       46.55599999999999        8.88400000000000
H           42.74999999999999       46.48200000000000        7.78300000000000
H           42.14100000000000       47.28300000000000        9.28500000000000
H           42.71000000000000       45.55499999999999        9.33500000000000
O           48.29599999999999       45.76300000000000       11.13500000000000
H           47.96400000000000       44.86599999999999       11.16800000000000
H           48.47900000000000       46.28200000000000       11.83300000000000
C           47.65199999999999       44.97499999999999        6.24800000000000
H           48.34600000000000       44.10700000000000        6.22800000000000
H           47.49200000000000       45.31100000000000        5.20100000000000
H           46.68399999999999       44.63099999999999        6.67000000000000
S           48.31300000000000       46.31100000000000        7.23000000000000
H           47.19500000000000       47.02200000000000        7.22600000000000
72
 energy: -105.915981004440 gnorm: 0.099058437964 xtb: 6.7.1 (edcfbbe)
Fe          48.45751565733975       46.16464642134307        9.38043965490448
N           47.78644016736769       44.29268098792822        9.40190803183078
N           50.36724171816493       45.47352923125315        9.61146982718767
N           49.10906324061084       48.04052189594201        9.73035772183991
N           46.56528266180868       46.87201134703493        9.51998657044095
C           46.49844756463290       43.92817285217548        9.11612781676679
C           46.40600082836925       42.49488196921549        9.04335184125346
C           47.64193509521427       41.99481712683508        9.31230628123295
C           48.50457824563169       43.13305724608905        9.56732509263611
C           50.75995270437387       44.15785198522980        9.68512668942341
C           52.18773283574295       44.06588074605421        9.48275030595133
C           52.65700320285334       45.32414191147961        9.30048276267962
C           51.51103230537158       46.20758411188049        9.43321590059253
C           50.41394343474362       48.45033325591292        9.61649021576662
C           50.47852909048429       49.89842612924270        9.64281271829467
C           49.20727671219260       50.34622765761214        9.79840379761017
C           48.36181642202278       49.17169532526805        9.89599890491473
C           46.15503267952901       48.15971126477354        9.74032652836493
C           44.71818999682330       48.26011411975634        9.53599706859864
C           44.28478268623694       47.02422023367143        9.19716054351096
C           45.44188233206789       46.15937503672775        9.20239948459465
C           45.44398513837239       44.80391514201735        8.91762550319261
H           44.53213746637973       44.38796599408171        8.50446370067640
C           49.87445092684977       43.07835139857735        9.83324601785392
H           50.28872481073260       42.11941863349927       10.13174774024730
C           51.49580624105221       47.59888687731164        9.42996332990587
H           52.45842335037464       48.07655197151059        9.26808885622561
C           46.99041168686809       49.20772320264290       10.08161681450430
H           46.54742870926387       50.11467872711822       10.48110074735669
C           48.09436260058214       40.55794876170511        9.34238576292542
H           47.30174173162330       39.90015922018461        8.96919037259604
H           48.33622244993060       40.26440548500375       10.37014064287678
H           48.98202138453103       40.41841523393854        8.71419047935639
C           45.10214383771504       41.79327885763113        8.75460476015396
H           44.78397365876793       41.98934471093502        7.72306915532258
H           44.32239525631101       42.16383044098367        9.43065171166145
H           45.20678163430962       40.71294653239988        8.89013544826822
C           52.93860436560882       42.75416705994646        9.43328289160776
H           52.53815291847140       42.11222003582425        8.63918345930793
H           52.83160855648077       42.22727707828349       10.38850406035418
H           54.00109570097637       42.93158360740412        9.23680827002190
C           54.06972683519292       45.78663196403237        9.06958669278992
H           54.32261163651145       46.28160626965119        8.13036404732897
C           55.01884218022745       45.61381890810223        9.98585983341964
H           54.79765841952993       45.13017649364817       10.93106791941054
H           56.03710382746281       45.95887855248519        9.82390192600294
C           51.74701145867628       50.69050578103890        9.45070949080306
H           52.09198266485423       50.59417248591235        8.41377762021415
H           52.53589282721013       50.31587992164405       10.11265589787229
H           51.57093445605055       51.75046860212693        9.66303528331488
C           48.71608347916622       51.77706495189767        9.89060372657755
H           48.24395036363606       52.26888103503853        9.03703306785337
C           48.87887959213483       52.42218105771724       11.04575392366441
H           49.34718373872266       51.92109371107275       11.88531622023385
H           48.55320722435724       53.44950358123299       11.18848075633288
C           43.92054057228536       49.54232018806618        9.63811705659361
H           44.38854745682925       50.33314890368170        9.04088640854785
H           43.87458547544163       49.87760686052144       10.68084598901469
H           42.90078655646925       49.38893573772742        9.26848397819054
C           42.88814724501695       46.55889763414843        8.88412742901382
H           42.74908924895466       46.48211781002063        7.79835947544569
H           42.15214191284897       47.26667174526296        9.27912608973104
H           42.70912514891152       45.57383444975682        9.32791657509775
O           48.29169794640722       45.77226541407691       11.20879766580358
H           47.96096313100558       44.86763751391195       11.23638264141099
H           48.48820440361480       46.30935417986353       11.94904789786515
C           47.64739172132177       44.97113238862864        6.24637119811565
H           48.34502658979186       44.12682325294373        6.23827467566511
H           47.49278982183386       45.30437918894260        5.21380865961530
H           46.69538031964633       44.63272008057099        6.66823636875896
S           48.34404935706464       46.35271839619833        7.18490726834162
H           47.19331238203996       47.02662311365243        7.19572673415941
72
 energy: -105.940523398558 gnorm: 0.035109269970 xtb: 6.7.1 (edcfbbe)
Fe          48.44692433030155       46.16425659827171        9.41322119214440
N           47.78834578259554       44.29024293184371        9.36891945301023
N           50.35898274989483       45.46589379480395        9.56023698182196
N           49.11697846662238       48.04469194112081        9.70116446735973
N           46.55986195833177       46.87459047940141        9.49818420822757
C           46.50828485651828       43.92847443675139        9.09017971441916
C           46.40108454828317       42.49270551400222        9.03849923431553
C           47.64115409162326       41.99529545217871        9.32947588759386
C           48.50457486831159       43.14168627975469        9.54216526679710
C           50.74305852152655       44.16865033823945        9.65487834378088
C           52.18248986595339       44.06575720656092        9.49998832136390
C           52.65041819094054       45.33967182951194        9.31062797369665
C           51.48508977078306       46.20999629412642        9.39535057481690
C           50.41137726006606       48.44379746199093        9.57632888227784
C           50.48812071753210       49.89355792160872        9.63209240645814
C           49.21263672480946       50.34887702590414        9.81482795792002
C           48.37440507905043       49.16665599763689        9.88086417207352
C           46.15032629704888       48.14757369618754        9.74650925252456
C           44.71826449239962       48.25944137040688        9.55234269862439
C           44.28345411550850       47.01731718026961        9.19251407144083
C           45.45057965451333       46.16221107080320        9.17837211621039
C           45.44315631931546       44.80222834013424        8.91112905037171
H           44.51392950597310       44.37605977003883        8.55392279149431
C           49.86942073705526       43.09301628278196        9.79651311035398
H           50.29182739625927       42.12968152823785       10.06046783549449
C           51.50018095907300       47.59750210206406        9.40675177966875
H           52.46856587715116       48.06980971616980        9.28283557841146
C           46.99488540016947       49.20168861653868       10.05769491004289
H           46.55218597106486       50.12885059981429       10.40565949626997
C           48.08857671376128       40.57211681665507        9.35297449318190
H           47.30710924129244       39.91491309943400        8.97965608057993
H           48.34076871515833       40.26399369078862       10.36708344026462
H           48.97024948984517       40.43337925499404        8.72875726515526
C           45.11733149806408       41.78842375249464        8.75406586023547
H           44.79258123541535       41.98093689128942        7.73140825101020
H           44.33816197651051       42.15118303056175        9.42394322034158
H           45.21266901084790       40.71606460683910        8.88930432856209
C           52.93207684688004       42.77463371125280        9.44235173742208
H           52.53743174672710       42.13486611802281        8.65245851055927
H           52.83546280449013       42.23493999560787       10.38362581862308
H           53.98723160043032       42.94631157957575        9.24634104554265
C           54.03481044505092       45.77943789671519        9.09301708038042
H           54.26418341983632       46.27452189636715        8.15322565641892
C           54.99809993010532       45.60876989278042        9.98452081127179
H           54.80360405907735       45.13109349932083       10.92961973113339
H           56.00995933651912       45.94579741305226        9.81840088896036
C           51.73734992849186       50.68546368064483        9.45049760687793
H           52.08967114718465       50.59628692946784        8.42278816061246
H           52.52401027718786       50.32024723636584       10.10790899685841
H           51.56124915846286       51.73641481989615        9.66477173961788
C           48.73889434846721       51.73737763893317        9.92341042625776
H           48.26644597369386       52.19954566395166        9.05831699877811
C           48.88335017501760       52.41373887336387       11.04715480162290
H           49.34627418657008       51.94295769495822       11.89794630678763
H           48.55680345944360       53.43327314125293       11.17715573473553
C           43.93309532753371       49.52529216751213        9.64723309840883
H           44.39512202865827       50.31184469431419        9.05267467987554
H           43.87884939499964       49.87285261162802       10.67809571356774
H           42.91986549139582       49.38007971038541        9.28005152338483
C           42.89709245743308       46.56225746666017        8.88252472821768
H           42.74973372218401       46.48137457954733        7.80510004101178
H           42.16263365160591       47.25999123616557        9.27539254989363
H           42.71050158708842       45.58592701243140        9.32367149215283
O           48.28426346469274       45.79041119550528       11.28644198391114
H           47.96489359928247       44.87904488629110       11.32925180722996
H           48.49459953456815       46.31832149525307       12.05258610900810
C           47.64918147712041       44.96639560305758        6.23526438130593
H           48.35532381135870       44.14281632203397        6.25182101633448
H           47.49211319323912       45.29431163488228        5.21172085178156
H           46.71275021960205       44.64585658528969        6.67839226381984
S           48.36560647287224       46.37986309348259        7.15132807468805
H           47.20645333315816       47.04748910381881        7.16802696463117
72
 energy: -105.952980835521 gnorm: 0.037233337104 xtb: 6.7.1 (edcfbbe)
Fe          48.43950962241274       46.16092881126230        9.43178153008816
N           47.78325879746989       44.29475738087989        9.35335973511023
N           50.34170926469056       45.46512708666281        9.51108894482861
N           49.11823712744111       48.03669567851905        9.66969470090279
N           46.56163349568298       46.87052190252250        9.47992796523689
C           46.50735818069287       43.92914586488959        9.07779058831038
C           46.39754865415278       42.49205072812024        9.03549186433513
C           47.63716952145893       41.99969785616827        9.33367051951061
C           48.49885620824838       43.14892576286995        9.52093749846468
C           50.72771662841025       44.17619561984968        9.62446756507137
C           52.17177549167088       44.06988115160845        9.50990383289165
C           52.63495410450690       45.34629129220036        9.32082363210052
C           51.46320939990305       46.21049455965491        9.36748110364072
C           50.40791842183087       48.43362134675709        9.54031506937310
C           50.49408657883050       49.87972928919825        9.62362983586774
C           49.22141473893353       50.33367917768526        9.82820828840626
C           48.38039033488148       49.15415081384202        9.86274776947365
C           46.15288187253070       48.13775822872100        9.73746924362522
C           44.72179201088102       48.25112597761843        9.55988828844678
C           44.28513681381013       47.01109872695893        9.18816730547976
C           45.45405422243967       46.15898223357316        9.16436274881640
C           45.43519530943187       44.79665792815016        8.91358306083090
H           44.49150809654603       44.36170362576022        8.60654080708664
C           49.86452269491891       43.09695742455434        9.75077461640576
H           50.29713378592532       42.12786330149924        9.97171200897401
C           51.50036792268840       47.59425540113004        9.37983070630741
H           52.47279621277718       48.06137324020013        9.28805537602432
C           47.00031680742361       49.19680074773687       10.02087967889869
H           46.55844035740915       50.14372192185076       10.31667823478727
C           48.08621480775864       40.58142861605604        9.36395218285789
H           47.30518857703809       39.92417269385189        8.99247097524867
H           48.34584179676722       40.26841577943245       10.37485167312368
H           48.96653559260618       40.44691485502151        8.73737658732437
C           45.12373993192895       41.77936967242523        8.75293251345085
H           44.79600048651118       41.97022302698475        7.73104948412992
H           44.34215502093971       42.13411837245924        9.42395689098476
H           45.22624999383520       40.70812706332056        8.88770300227292
C           52.92636187781130       42.78899266682721        9.45545290666911
H           52.53457165034382       42.15221393216090        8.66156588707580
H           52.83697211814866       42.24026467976746       10.39244816540113
H           53.97941438483845       42.97081079284560        9.25978677096948
C           54.00617441482851       45.78329496602020        9.11092378953149
H           54.21411206907909       46.28969547193228        8.17318236869085
C           54.98534857057269       45.59923810867300        9.98376821404943
H           54.80687546963035       45.12306206961919       10.93288953523610
H           55.99384996522846       45.93248565633348        9.80570014401918
C           51.73447672149526       50.67984334397372        9.45083887404471
H           52.09488199173787       50.59904843254946        8.42529153298539
H           52.52209153141818       50.32155647531891       10.11061652995502
H           51.54712136069868       51.72767784635167        9.66911025166801
C           48.75289834547644       51.70767083066742        9.95002922360309
H           48.27568189518196       52.14447436207678        9.07607804979489
C           48.89115464188089       52.41427547896254       11.05909921519718
H           49.35519716710023       51.97033669698399       11.92505949337091
H           48.55564475436262       53.43121756622580       11.16529898235854
C           43.94233750863803       49.51367062380497        9.66042206874334
H           44.40642184615506       50.29671244547330        9.06264353299120
H           43.88878906618188       49.86815450037874       10.68891338190057
H           42.92908832633547       49.36965359485754        9.29481678495123
C           42.90005571800997       46.56307308795649        8.88008813993470
H           42.74965087730085       46.47870041077375        7.80359917353360
H           42.16904609887279       47.26373995443684        9.27250665065218
H           42.70719295870330       45.58911893116094        9.32390378651593
O           48.27128358228168       45.81623876457930       11.36673053379544
H           47.97975725581225       44.89742456444804       11.44298124752786
H           48.50650734445350       46.32291241323748       12.14906502006911
C           47.66042142394409       44.97206120382721        6.22664858669081
H           48.37618977781239       44.15994757073747        6.26636962143447
H           47.49550661662759       45.28169893306459        5.20103309281363
H           46.73259480646198       44.66531774492814        6.69407257390150
S           48.38555816336854       46.40907459244773        7.12185164895443
H           47.23095081382263       47.08437812660205        7.12565839228071
72
 energy: -105.961879392517 gnorm: 0.030537754725 xtb: 6.7.1 (edcfbbe)
Fe          48.43618444853213       46.15979292421381        9.43626574208546
N           47.77564539970469       44.30312745587735        9.33837441888128
N           50.31824265018371       45.46866628883895        9.47413597974400
N           49.11786001037010       48.02468912911092        9.63569457337079
N           46.56727274707533       46.86275067032631        9.46124329249146
C           46.49910957443156       43.92921193411556        9.07454588552296
C           46.39224465842340       42.49113981152274        9.03494531191455
C           47.63145362002252       42.00508574026480        9.32961132913847
C           48.48973540343548       43.15569531977755        9.49893742129622
C           50.71048983867325       44.18121441607911        9.59427350729738
C           52.15486395036116       44.07633662917589        9.51500354161821
C           52.61382407553887       45.35060720292402        9.33153055524161
C           51.44193937156892       46.21059726497691        9.34708636144580
C           50.40650047339811       48.42484280804270        9.51010899096523
C           50.49877867165674       49.86539223809071        9.61796380675651
C           49.23088720484892       50.31470001341695        9.84139125436000
C           48.38341402455140       49.14107963236012        9.84288498095380
C           46.15864939951526       48.12954565096278        9.71910727434780
C           44.72682988145154       48.24113839199146        9.55942989221074
C           44.28682258338500       47.00497679561821        9.18667372143750
C           45.45362906718261       46.15218332733029        9.15790313296746
C           45.42146897684808       44.78857699719391        8.92461419097535
H           44.47128323064503       44.34955085643401        8.65577851371610
C           49.85809587440725       43.09550348258165        9.69796232885251
H           50.29942446174488       42.12381548641429        9.87780397799106
C           51.49985131863913       47.59120746922171        9.35336962049536
H           52.47415523291316       48.05076192863052        9.28093462812453
C           47.00518890811102       49.19410735825279        9.97531250877509
H           46.56589842304142       50.15166186130232       10.22851584671977
C           48.08559917605736       40.58840144305202        9.37253592124751
H           47.30407876812536       39.92664993837069        9.00845425903459
H           48.35013863168226       40.28209704044075       10.38476910165962
H           48.96501344243312       40.45409850611566        8.74350461484981
C           45.12464089308796       41.76708078051461        8.75281129271644
H           44.79471692266169       41.95660415174459        7.73055697519748
H           44.33885834377357       42.10936208575812        9.42641059609590
H           45.24178081911806       40.69570997252205        8.88426494071688
C           52.91961005480929       42.80193397479322        9.47016805778862
H           52.53559394841512       42.16301445307861        8.67312705831207
H           52.83547320267753       42.25050339546763       10.40653433561730
H           53.97186429048967       42.99797171863291        9.27782454927605
C           53.98195779879880       45.79433624534637        9.12791618193518
H           54.17180470393604       46.31988025584057        8.19691223858217
C           54.97264482093760       45.59195530728434        9.98442361050063
H           54.80910758550295       45.09690711972284       10.92765390647865
H           55.97925249439336       45.92183077400935        9.79177018847709
C           51.73513294524177       50.67415142430320        9.45387054739955
H           52.10311278705024       50.60017152439237        8.42966329312355
H           52.52332710848908       50.32332061635299       10.11856388906500
H           51.53223132402831       51.71969536853589        9.67443165107633
C           48.75982320824866       51.68773980310285        9.97624962360936
H           48.27223071933242       52.10594452329374        9.10050246194830
C           48.89969480668194       52.41263106440483       11.07248426288237
H           49.37320947624818       51.99537011282293       11.94756531541965
H           48.55448286344680       53.42881109202052       11.15234587439411
C           43.95057188423853       49.50523802883827        9.67283731250114
H           44.41457594855628       50.28748147865331        9.07225733551264
H           43.90624716996021       49.85819177434268       10.70279469613674
H           42.93397730135695       49.36307893767604        9.31441910320165
C           42.89963552837942       46.56243517284064        8.87962381337735
H           42.74999084342467       46.47301476729758        7.80258947146335
H           42.17258508861531       47.27074031221929        9.26777874387653
H           42.69864183230239       45.59113058030539        9.32822709618974
O           48.24788953662658       45.85291366106022       11.44943138892899
H           48.01531459017757       44.91995440330182       11.57500165322229
H           48.53451104225000       46.32109326799403       12.24532311071890
C           47.67598507735345       44.98048927044634        6.21545796945402
H           48.39948886580259       44.17662146008876        6.27582392984192
H           47.50087218685415       45.26553538103008        5.18434797507140
H           46.75560998910214       44.68768795704636        6.70780904974155
S           48.40954680062526       46.43429823258285        7.08481278723146
H           47.26643169804733       47.12696353730387        7.07674722642882
72
 energy: -105.966710116531 gnorm: 0.026877272494 xtb: 6.7.1 (edcfbbe)
Fe          48.43524692486467       46.16036482226197        9.43420522309135
N           47.76636483604658       44.30843930734489        9.32693982957513
N           50.29911993542641       45.47326627262374        9.45781176843231
N           49.11760265632353       48.01496535950852        9.60944013275710
N           46.57097675705661       46.85516679646179        9.44182539322038
C           46.48642411305475       43.92682586486129        9.07677746037884
C           46.38377871598022       42.48792018998492        9.03648813193929
C           47.62516894880064       42.00689304327490        9.31767269398818
C           48.48099930479987       43.15848381238038        9.47496831544569
C           50.69702679383845       44.18210700956553        9.56799249740974
C           52.13828979656871       44.08154340176394        9.50943606128436
C           52.59606068367299       45.35343742720529        9.33607475941119
C           51.42809365198980       46.21064112903638        9.33683087059111
C           50.40733249783767       48.42141224415472        9.49019429289647
C           50.50114153690708       49.85741402021618        9.61595671895810
C           49.23651534766596       50.30118468886557        9.84898185657342
C           48.38391169766616       49.13282145480773        9.82400850936713
C           46.16358999401282       48.12555595687501        9.69127834518665
C           44.73021294710183       48.23501995018152        9.54823061067421