72
 energy: -105.980640533591 gnorm: 0.000050055055 xtb: 6.7.1 (edcfbbe)
Fe          48.41881798188454       46.10774393695846        9.36753224968723
N           47.74815175671075       44.23772803347633        9.24527711194718
N           50.30360996951870       45.43500740204651        9.48498677272637
N           49.08842498864826       48.00028966047394        9.56936007944858
N           46.53761486958117       46.78859698761177        9.32122705853918
C           46.45370900346298       43.83329526901801        9.19923756097616
C           46.36946244334239       42.39111172130730        9.11348696881575
C           47.64934419885859       41.93501549772217        9.10768133807369
C           48.49685129812313       43.10522450384779        9.19782206053040
C           50.71212144302272       44.14213616815972        9.37682126179880
C           52.14638707126763       44.04824479180604        9.46872533484322
C           52.60547705237417       45.32624396714812        9.64328372645652
C           51.43206792790223       46.17778399643655        9.63019413671470
C           50.38422594439664       48.39788114118046        9.71084773191026
C           50.47178538523476       49.83185132750852        9.79481017302123
C           49.18960540065794       50.30374235036876        9.68857242844035
C           48.34445485470221       49.13747313031359        9.54154700750871
C           46.13367288653797       48.08662491278524        9.35952188471321
C           44.69084236070515       48.17460199327660        9.31566721338502
C           44.23245130655532       46.89555819002219        9.26274712949273
C           45.40141953287618       46.04458809551532        9.26821193577972
C           45.35065944141520       44.66517111229728        9.21332199714150
H           44.37628651446835       44.20338556977584        9.17845843498793
C           49.87477813038338       43.04987969169348        9.23872907056740
H           50.33411955566779       42.07536866070382        9.18226948975495
C           51.47724983784303       47.55145519104615        9.76254187752041
H           52.44616035441442       48.00524587507835        9.89920080689863
C           46.96592853835466       49.18642079002808        9.44562575822355
H           46.49965832660591       50.15895880591874        9.46390795380341
C           48.15480253463389       40.53567761288439        9.03358947068751
H           47.33076604948216       39.83084622114696        8.95634942454852
H           48.73353194672043       40.29062511668557        9.92427159025303
H           48.80015297394836       40.40599433956239        8.16446389590141
C           45.09208298201490       41.62752344426327        9.04703479084326
H           44.51441130953481       41.91959904688917        8.16954783533511
H           44.48548410796886       41.82153634270809        9.93158123572603
H           45.28316401397418       40.55886119469923        8.99083307792562
C           52.93202651047923       42.79219342880564        9.32881844540901
H           52.50146065954294       42.15369735900705        8.55904915549582
H           52.94227144873953       42.23259767767123       10.26562626956198
H           53.95926866220154       43.02392120975605        9.05549074337519
C           53.96621893400349       45.79796719173770        9.78050000741222
H           54.17388158561507       46.76586046943837        9.33967171644766
C           54.94567538720021       45.14631204759726       10.39812184084374
H           54.78424727408833       44.20421030356869       10.89253725406807
H           55.94340769635528       45.54887581679601       10.45223936547974
C           51.73751629320898       50.60792775441979        9.89520201301781
H           52.51540759066378       50.15530475969348        9.28245632283283
H           52.09502284842969       50.63994974625371       10.92582109627443
H           51.57652487540054       51.62871416280070        9.55512819879446
C           48.71276752544935       51.66957178671064        9.69014157383960
H           47.85373906722199       51.86610084038789        9.05907809561651
C           49.23519227664739       52.66563477614310       10.39744034366094
H           50.05765713575791       52.51741373908769       11.07532561536498
H           48.83772169642415       53.66525627432401       10.34076860347685
C           43.92657046314316       49.45308702069394        9.33652875371022
H           44.20256719292292       50.07996773214943        8.48814300054312
H           44.13625627314637       50.00962824595019       10.25021094424729
H           42.85708734074626       49.26435930152887        9.28877797002955
C           42.83056663444553       46.39470833035138        9.20929729714884
H           42.66382629214918       45.81232793485055        8.30256865968324
H           42.12430281313627       47.22103923252111        9.21991545292505
H           42.62201155461946       45.75367570920807       10.06581364742341
O           48.36038259845477       46.05686742000121       11.61017056773685
H           49.27766071067765       45.84439969540693       11.81782746948396
H           48.23325727430679       46.99116273008297       11.81081392603739
C           47.27855206981315       45.40497710051145        6.23844745374442
H           47.57325810464077       44.36120231233671        6.26878075872073
H           47.17556734035281       45.73579545818014        5.20953267018506
H           46.35681981754453       45.54261818036008        6.79346406041460
S           48.62226843951986       46.34933594187051        7.03907498443980
H           48.01630331914325       47.53704621746025        6.92992784761969
