78
 energy: -116.058230992958 gnorm: 0.000187771906 xtb: 6.7.1 (edcfbbe)
Fe           1.57002977108864        5.85631090327845       13.88370910649032
N            2.54512802977126        7.56400964671668       14.19252682824702
N            2.09799773978168        5.90372076898108       11.93994450526055
N            0.65144522234648        4.08699141195400       13.57942770505984
N            1.07394544644197        5.77811381344017       15.81119509490883
C            2.68766495120290        8.21966258538242       15.37181077982603
C            3.47091534532734        9.42504561318194       15.19868024585081
C            3.79251314919608        9.48343822593850       13.88006055543947
C            3.20283558682803        8.31133237617286       13.26692570704328
C            2.77971676709736        6.89792009119912       11.30598035247853
C            2.91790501284155        6.61073668380529        9.90304696661027
C            2.30147107068174        5.40433275975406        9.69221407504215
C            1.78553195607734        4.98982666251103       10.98148108699112
C            0.56268437994172        3.39959593479491       12.40421008946073
C           -0.19715039575046        2.18981527946421       12.57519727271608
C           -0.58960586538423        2.16408530024068       13.88890419180784
C           -0.03945138180071        3.35906396656608       14.49492280580106
C            0.31851309777319        4.83027352535143       16.42471171232071
C            0.14766308087195        5.14055544859441       17.82865563219985
C            0.82383539157879        6.29875313993750       18.04707842051189
C            1.39322962641009        6.68187946467350       16.77262714378874
C            2.15278927052502        7.82024346141847       16.58213809349006
H            2.34025023356809        8.44548888281652       17.44181358302121
C            3.30644644819332        8.02041999941437       11.92232895111683
H            3.85116360343614        8.71709623438121       11.30381180549283
C            1.09582453413924        3.81095845007216       11.19373194438903
H            0.93915256584516        3.16738312713052       10.34168334473713
C           -0.21326450368347        3.70736651898788       15.82172675704738
H           -0.80581114900660        3.04792603653334       16.43693381978555
C            4.58667845062799       10.50791570723216       13.14475653942926
H            4.92767664311614       11.28986822587223       13.81876307450725
H            3.98568172800572       10.96924528241606       12.36057715958089
H            5.46028155543373       10.05273591157257       12.67775618044796
C            3.81782006085962       10.36699638849250       16.30012965831591
H            4.37784226617105        9.85171832542302       17.08049943325580
H            2.91529722568626       10.78222729192236       16.74970477206953
H            4.42457326076897       11.18950178290505       15.92946280025767
C            3.55284100936768        7.51165538629027        8.90215342951138
H            4.63720808828612        7.38855190381750        8.89917326847090
H            3.33291548455279        8.55374176964062        9.12873412013021
H            3.17948009156637        7.28478563582788        7.90547658313829
C            2.13791854685241        4.66330472734494        8.46139194074608
H            1.22072329364335        4.09144851459895        8.37631354688681
C            3.01147237151826        4.62673178103612        7.46016890615220
H            3.95938752893965        5.13341749477354        7.50754426557455
H            2.81688670796723        4.06166333091624        6.56370996469093
C           -0.42419193304662        1.16259898744956       11.52111370791854
H            0.45504415163768        1.05905709912098       10.88676281231409
H           -1.26894192202470        1.43386119270458       10.88527759116017
H           -0.63740184034652        0.19927172999038       11.98011976375875
C           -1.36044206461909        1.16323298813748       14.59231957163311
H           -1.10325158989108        1.02316349334784       15.63582632265410
C           -2.33804077167664        0.43143755711776       14.06754342107835
H           -2.66865370491451        0.55921576287029       13.05159118823665
H           -2.86177267077219       -0.30868071711711       14.64953988449066
C           -0.62568558862220        4.30175061897815       18.78733878588232
H           -0.18960480576146        3.30526363665500       18.86255155826079
H           -1.65894586623926        4.19454196398375       18.45641225646797
H           -0.62778849580470        4.74902744632302       19.77830012013823
C            0.99214380969388        7.07273344830884       19.30942142634677
H            2.04752289266052        7.15183084575948       19.57068709329693
H            0.47134720388986        6.58921188387571       20.13223154062986
H            0.59496408182527        8.08202333289118       19.19765776982154
O            3.47596976609407        4.63019057385412       14.24258554521241
H            3.87010959503965        4.68581569229701       13.36512717290480
H            3.09214540789182        3.75024650505654       14.32478199530634
C           -2.75978499631498        9.36833723705322       13.85943925451927
H           -3.74748636286364        8.96101405771679       14.07499840324375
H           -2.85198022790723       10.06109624693473       13.02301671252623
H           -2.41229943169707        9.91702853527077       14.72910309394218
N           -1.98086191335463        7.42352480617051       12.48805311754517
H           -2.75498274943678        7.43676441256676       11.84451446038314
C           -1.79936971246087        8.28171575731706       13.54072970916088
C           -0.93785880858008        6.56359481497536       12.47600057700021
H           -0.81591035161392        5.77892642417120       11.75837084072990
N           -0.10744162081760        6.82502072430938       13.45598777171344
C           -0.62975348065758        7.89136192452625       14.12742117188803
H           -0.13184929798426        8.30196524460619       14.98138113977211
