72
 energy: -105.980694357352 gnorm: 0.000063746739 xtb: 6.7.1 (edcfbbe)
Fe          -6.36851821228016       24.82690281066129        7.47088973067432
N           -4.65523459481728       23.83857795822137        7.24027457848720
N           -5.96851373516450       25.08739905602331        9.41367697705900
N           -8.13464742870124       25.76957899325634        7.70971651497334
N           -6.81862575298984       24.49806384526613        5.54536422189336
C           -4.15796183154932       23.32264442305990        6.08781255828294
C           -2.87444894031681       22.69491906187257        6.31917975986328
C           -2.61636578644715       22.83389205899364        7.64603633430455
C           -3.74182475758328       23.55228916139434        8.20436036872876
C           -4.88912580815329       24.61475054248684       10.09365446455765
C           -4.95341575296984       24.98954459726083       11.48305413415248
C           -6.10644117367104       25.71244681724665       11.63369837770232
C           -6.73132245330908       25.74451369343566       10.32568917781949
C           -8.58457982455322       26.37912530987222        8.84313282983148
C           -9.86666103647975       26.99235318963879        8.61843822256068
C          -10.19450585642408       26.73291387779037        7.31338205916305
C           -9.08487714610423       25.98326591402607        6.76235140916634
C           -7.95099082058119       24.87231859133601        4.89173068172575
C           -7.88636456368820       24.48899501550914        3.49886234375329
C           -6.67755058741283       23.89167476988465        3.32311732114051
C           -6.02602180367124       23.90565260091411        4.61362333644625
C           -4.77966630841936       23.36238043267930        4.85446576660309
H           -4.25942439189229       22.92008427778752        4.01931646009706
C           -3.84401684507537       23.89944818287096        9.53568771349405
H           -3.04178373157628       23.59749843146437       10.19080557208123
C           -7.93019581265772       26.37802244380921       10.06232476135017
H           -8.41097262836428       26.89090459486373       10.88048335416985
C           -9.01928428472537       25.54410995103454        5.45335875013484
H           -9.85582146923385       25.76723274376311        4.81019300082187
C           -1.44106599923761       22.37039319394750        8.43532263825355
H           -0.72654701538569       21.85542389592382        7.79815392084981
H           -1.75629139295251       21.68409127521516        9.22130821736603
H           -0.93592531178672       23.21465285563098        8.90541793170520
C           -2.05834163027268       22.03773379253899        5.26029404048878
H           -1.82268310884448       22.74384062314871        4.46381348596064
H           -2.60328140060082       21.20197235685799        4.82101506007698
H           -1.12520694979420       21.65979668742292        5.67042409592352
C           -3.97009333112348       24.58503703266493       12.52433760127782
H           -3.09298044301947       25.23445893793608       12.50726532837725
H           -3.63592262065398       23.56195641035174       12.35957326274643
H           -4.42492619484643       24.64869157136320       13.51061457031745
C           -6.66034657172109       26.31229398368394       12.82780155197601
H           -7.74206223558983       26.31334767117713       12.89402482692688
C           -5.95339703228468       26.85202343194941       13.81498000814728
H           -4.87996437913979       26.91985952903975       13.78076956445697
H           -6.43029237735444       27.27042776253939       14.68559306184141
C          -10.61923216140423       27.79439998849668        9.62106188736262
H           -9.93956461618811       28.39902048877487       10.21977981970629
H          -11.17999060830169       27.14680759927587       10.29724052062091
H          -11.32182962535020       28.45496309881712        9.11737455883478
C          -11.37116533586462       27.12882512393647        6.57082893061957
H          -11.21146070795957       27.34520032614565        5.52117131311166
C          -12.59701847776855       27.23311143087540        7.07262839205708
H          -12.82081138584798       26.98594558649484        8.09578973708132
H          -13.42920078239479       27.54694610536206        6.46484997638008
C           -8.96796555746661       24.74436704395763        2.50700113331109
H           -9.13785048364917       25.81540291454756        2.39528221305799
H           -9.90262305228805       24.28536006730300        2.82998921192879
H           -8.70417596652402       24.33666978015390        1.53444427044141
C           -6.07941152742330       23.31314218564048        2.08771228318688
H           -5.14440968241570       23.81773818585563        1.84434882572373
H           -6.75605675333760       23.42052066456660        1.24374189802168
H           -5.86604654890812       22.25275436523104        2.22465372292697
O           -7.48207852348542       22.93212540209511        7.92893008395831
H           -7.71303663076054       22.63495148015447        7.04117569179626
H           -8.28436595267056       23.29194986302682        8.32451138930842
C           -3.70597493935930       26.94677215377128        7.58745671129754
H           -3.36005114899432       27.97564649428841        7.60850193741139
H           -3.09443489409871       26.35949513050674        6.91043472612100
H           -3.68858254655309       26.50276166054630        8.57693433810339
S           -5.40818704430682       26.90148271300201        6.92478548084806
H           -5.94398371326132       27.61613578935324        7.92098099907867
