78
 energy: -116.057500003704 gnorm: 0.000047005165 xtb: 6.7.1 (edcfbbe)
Fe          14.17381121994948       17.89084976875705        8.63491349077345
N           14.21497553041172       16.14490792372296        7.67715275346513
N           14.71793055764981       18.83992358868892        6.96780609396260
N           14.22976887314126       19.62811235809027        9.64876632180477
N           13.63908130158549       16.94006737160658       10.32740339405141
C           13.95268557377100       14.91517701636202        8.19283416226381
C           14.12166373106030       13.88978510116074        7.18543890047121
C           14.48387341862792       14.53364404580948        6.04480316189007
C           14.53179315791044       15.94306572545323        6.37161328156400
C           14.91943626574145       18.28231150640015        5.74547513197235
C           15.25850072321903       19.28840509753623        4.77002286631989
C           15.26492974978948       20.48385051844625        5.43683625539309
C           14.91787368150222       20.17373155575338        6.81187178515732
C           14.52898402328603       20.85517129126421        9.13849443247860
C           14.47366573021587       21.86092016756392       10.16460355580242
C           14.14832878022791       21.21240357137129       11.32663315391870
C           13.97199142703015       19.81928719649973       10.97025845056507
C           13.34399905995650       17.51338853235542       11.52655791771779
C           12.87071561323207       16.52040431298155       12.46354308593163
C           12.89427693960513       15.32981877080213       11.80444089849663
C           13.37238128815858       15.61339230301826       10.47106830856026
C           13.54344875936305       14.65548176067494        9.48800566887590
H           13.33206297059381       13.62977658289851        9.74960142912241
C           14.84595749230902       16.93017917266104        5.46058565556869
H           15.06535090433592       16.62094698664011        4.45010432023972
C           14.84512222863878       21.11880492997151        7.81640164628424
H           15.05374374598731       22.14544211208946        7.55638693870671
C           13.50885001292147       18.84894585286778       11.83998879322393
H           13.24125308106816       19.16493719158294       12.83583583862437
C           14.78806326889031       13.97181184979285        4.69863221637299
H           14.69887335239309       12.88817516694033        4.70167436313722
H           15.80258879843890       14.23217134063857        4.39709712450763
H           14.10058850208129       14.37052448409504        3.95206239432307
C           13.92288153127084       12.43238835196953        7.42727335610806
H           12.89587751540190       12.22830959494569        7.73250036612386
H           14.58595545773457       12.08178653418601        8.21830418126379
H           14.13145124442545       11.85946435610076        6.52720546703698
C           15.47929427522440       19.03572364932791        3.31957146192058
H           14.79458837860319       18.27241714426093        2.95297600528411
H           16.49842490169224       18.69168059865908        3.13614794968598
H           15.31836767944266       19.95028309194502        2.75223733747617
C           15.52368461601522       21.81397624973119        4.93207015300762
H           14.96560713714940       22.61255481258287        5.40780309922159
C           16.37804342085259       22.11881346079462        3.96051637428018
H           16.99477440620885       21.37576067850820        3.48627872254175
H           16.51018282401544       23.13406057279209        3.62458978151296
C           14.77660885640820       23.30548578128885        9.96342185946370
H           14.11819688907619       23.73473908337118        9.20746189017862
H           15.80549438076691       23.43918419367825        9.62761898927209
H           14.64690217524611       23.85672583783790       10.89132894074114
C           14.02040670777525       21.80163293132503       12.64343324854586
H           13.58143921820667       22.79341637471268       12.66572101187251
C           14.42734096905210       21.25284926864209       13.78252357272443
H           14.91814819610076       20.29478433236403       13.81346660549844
H           14.30389846227406       21.75684815723714       14.72675891647079
C           12.46341822530889       16.81602483580797       13.86611825495186
H           11.66414510783857       17.55696570965454       13.88425718932344
H           13.30412316106941       17.21504192941807       14.43444161296579
H           12.11023929027327       15.91673262273325       14.36488583879181
C           12.51899955311103       13.97209378809372       12.29196591257837
H           11.71561284886197       13.55340633302204       11.68507308884213
H           12.18257595319058       14.01154763284237       13.32503148761827
H           13.37170650157520       13.29497551185941       12.23512463045327
O           16.34596669695288       17.60270475093025        9.31497121572765
H           16.50018688909590       18.44006663637242        9.76593661829353
H           16.20652018005131       16.93588703251878        9.99612572067824
C            9.22347880562973       20.00641514044833        7.18423433760222
H            8.45872873253461       20.07525332301177        7.95782575095649
H            8.75260710075267       19.64343586863977        6.27072683480780
H            9.62183305481659       20.99903992473680        6.99949108687146
N           10.11394702705139       17.77973168935847        7.90546541440211
H            9.22896715374318       17.30097364200577        7.87138788095151
C           10.32156348314817       19.10097980464974        7.60728810811126
C           11.30672299611423       17.24537969149490        8.25176945866367
H           11.44694904805140       16.22300120074059        8.53628866880728
N           12.25612049677450       18.14739182681801        8.19120480535966
C           11.65876873025440       19.30660128612546        7.79127868941228
H           12.22667995774047       20.20464960801226        7.66398431205337
