87
 energy: -128.344130018040 gnorm: 0.340339390957 xtb: 6.7.1 (edcfbbe)
Fe           7.20700000000000        7.82600000000000        7.90300000000000
N            7.08600000000000        6.47300000000000        6.54600000000000
N            9.07900000000000        7.47700000000000        8.08300000000000
N            7.32000000000000        9.18700000000000        9.23600000000000
N            5.31800000000000        8.10600000000000        7.71600000000000
C            6.02900000000000        5.97800000000000        5.78500000000000
C            6.28200000000000        4.90800000000000        4.85100000000000
C            7.59500000000000        4.64800000000000        5.00600000000000
C            8.03100000000000        5.57700000000000        6.03600000000000
C            9.92300000000000        6.55600000000000        7.46600000000000
C           11.31900000000000        6.57000000000000        7.85200000000000
C           11.39900000000000        7.57900000000000        8.73000000000000
C           10.06200000000000        8.12300000000000        8.79800000000000
C            8.39200000000000        9.72700000000000        9.90800000000000
C            8.12300000000000       10.79200000000000       10.85500000000000
C            6.79600000000000       10.94500000000000       10.81400000000000
C            6.35800000000000        9.97600000000000        9.83300000000000
C            4.45800000000000        8.93900000000000        8.41400000000000
C            3.05400000000000        8.92100000000000        8.00300000000000
C            2.97200000000000        7.98900000000000        7.01700000000000
C            4.35000000000000        7.54900000000000        6.87800000000000
C            4.74500000000000        6.53600000000000        5.98200000000000
H            3.95300000000000        6.12700000000000        5.35600000000000
C            9.35100000000000        5.68000000000000        6.51500000000000
H           10.04800000000000        4.96500000000000        6.08000000000000
C            9.66000000000000        9.17100000000000        9.66500000000000
H           10.46900000000000        9.62000000000000       10.23800000000000
C            5.02900000000000        9.79100000000000        9.40200000000000
H            4.30400000000000       10.41500000000000        9.92100000000000
C            8.38400000000000        3.53400000000000        4.34300000000000
H            7.83700000000000        3.17700000000000        3.44400000000000
H            8.50500000000000        2.68700000000000        5.05100000000000
H            9.38000000000000        3.91400000000000        4.03100000000000
C            5.30900000000000        4.26000000000000        3.90200000000000
H            5.32000000000000        4.80200000000000        2.93200000000000
H            4.28400000000000        4.30400000000000        4.32800000000000
H            5.60300000000000        3.20300000000000        3.72700000000000
C           12.40300000000000        5.65700000000000        7.34000000000000
H           12.26800000000000        5.49700000000000        6.24900000000000
H           12.34400000000000        4.67600000000000        7.85800000000000
H           13.39800000000000        6.12000000000000        7.51600000000000
C           12.49400000000000        8.05900000000000        9.47000000000000
H           12.71800000000000        9.13600000000000        9.48800000000000
C           13.32900000000000        7.19600000000000       10.20200000000000
H           13.14100000000000        6.11200000000000       10.21200000000000
H           14.18000000000000        7.59500000000000       10.77400000000000
C            9.15100000000000       11.47700000000000       11.69300000000000
H            9.79700000000000       12.10800000000000       11.04600000000000
H            9.78300000000000       10.72000000000000       12.20500000000000
H            8.65200000000000       12.12500000000000       12.44400000000000
C            6.00700000000000       11.85800000000000       11.51100000000000
H            6.32500000000000       12.90500000000000       11.62200000000000
C            4.81600000000000       11.46600000000000       12.07300000000000
H            4.47000000000000       10.42600000000000       11.98000000000000
H            4.19400000000000       12.18800000000000       12.62300000000000
C            1.89200000000000        9.66100000000000        8.62200000000000
H            2.21400000000000       10.68500000000000        8.90800000000000
H            1.54700000000000        9.12500000000000        9.53200000000000
H            1.06100000000000        9.73700000000000        7.88800000000000
C            1.75700000000000        7.54300000000000        6.22100000000000
H            1.65800000000000        8.17300000000000        5.31200000000000
H            0.84100000000000        7.65600000000000        6.83900000000000
H            1.87900000000000        6.48300000000000        5.91300000000000
C            4.39000000000000        3.84700000000000       10.28500000000000
H            3.56700000000000        4.14900000000000       10.96700000000000
H            4.94300000000000        2.99800000000000       10.74200000000000
H            3.95500000000000        3.53700000000000        9.31100000000000
N            5.99400000000000        5.60400000000000       11.11700000000000
H            5.89400000000000        5.35900000000000       12.08100000000000
C            5.31500000000000        4.99900000000000       10.08000000000000
C            6.78000000000000        6.54000000000000       10.63300000000000
H            7.39600000000000        7.20600000000000       11.23600000000000
N            6.68200000000000        6.51800000000000        9.31300000000000
C            5.80900000000000        5.52900000000000        8.94700000000000
H            5.62300000000000        5.29700000000000        7.90600000000000
C            6.70500000000000       12.30400000000000        4.64000000000000
H            6.12300000000000       12.03600000000000        3.73200000000000
H            7.54300000000000       12.97200000000000        4.34600000000000
H            6.03600000000000       12.82700000000000        5.35600000000000
N            8.09900000000000       10.21100000000000        4.60100000000000
H            8.44400000000000       10.35900000000000        3.67400000000000
C            7.24400000000000       11.06700000000000        5.26700000000000
C            8.37800000000000        9.18200000000000        5.38200000000000
H            9.04800000000000        8.36600000000000        5.11500000000000
N            7.70700000000000        9.33000000000000        6.51600000000000
C            6.98200000000000       10.49700000000000        6.46000000000000
H            6.34700000000000       10.80800000000000        7.28000000000000
87
 energy: -128.431236966248 gnorm: 0.147391211567 xtb: 6.7.1 (edcfbbe)
Fe           7.20973559455617        7.82282793969483        7.89733858634392
N            7.08736699568358        6.43942879779069        6.50703080670799
N            9.11783201788283        7.47410698838166        8.07638969770975
N            7.32202061961259        9.20733647859230        9.25790742739401
N            5.27549183072131        8.12158998551065        7.70193727238173
C            5.99645685889729        6.00218058527831        5.77823586807145
C            6.27880333783444        4.92362017227898        4.86301261459099
C            7.60444789715990        4.65272379369992        5.02658850941050
C            8.06937164220447        5.58108122244116        6.03940032998288
C            9.90375582578837        6.52822878968448        7.44290075081229
C           11.29180052475886        6.56098855846798        7.84273091124027
C           11.38192729176538        7.58715976868351        8.73785611535339
C           10.04752750650042        8.14212454678704        8.82956289075422
C            8.42901581953052        9.70696613682845        9.89912160254935
C            8.13835787981725       10.77046048213644       10.83168689175212
C            6.78447730958406       10.92787047740270       10.78795384503923
C            6.31561935409006        9.95803660800025        9.81555697670091
C            4.46666089048706        8.96640095048189        8.42872142733547
C            3.07051889515556        8.91642891273045        8.01971296611452
C            2.99722029763978        7.98743287044431        7.01965752217838
C            4.35963667096764        7.52542131809117        6.85298176184649
C            4.72733901740362        6.53475998656372        5.95923101052559
H            3.93980452695540        6.12294153059857        5.34484403458290
C            9.37233250379327        5.65661918739180        6.50154014263207
H           10.06446398256942        4.94741847402138        6.07071912164698
C            9.68936458396113        9.18036176936773        9.68049017266674
H           10.49190540037661        9.62886537011123       10.24775062021861
C            4.99687013968416        9.80523603128489        9.40943615772528
H            4.28243915770490       10.43326335943896        9.92034138481782
C            8.38338923938150        3.55099769400548        4.35302689474681
H            7.84792785122731        3.18968803639976        3.46408100165228
H            8.51000320864802        2.70319177138263        5.04046161723344
H            9.37145394710834        3.90531974483141        4.03726131486765
C            5.31430415131381        4.27049702437623        3.91398087293684
H            5.31689099832757        4.79425439118387        2.94684944718861
H            4.29591570735940        4.29890154946019        4.31767030478725
H            5.59516565402636        3.22409887022713        3.73420989184075
C           12.38605757833065        5.66339011681394        7.33912845160109
H           12.27171626491557        5.49453666887072        6.26128697626907
H           12.34649062206796        4.68984301858256        7.84701855027514
H           13.37339047333181        6.11278725709235        7.51859310656855
C           12.51294699842562        8.04720969940887        9.48873757685818
H           12.71975984344058        9.11865544858099        9.50433323842348
C           13.32138932793362        7.21383849159189       10.18364556187866
H           13.13875936574766        6.14217909230266       10.20841560575787
H           14.16252200855007        7.59133400029736       10.75849269879101
C            9.14806987933079       11.47056749746954       11.68306000636324
H            9.79497406408160       12.10013321852938       11.05713818854173
H            9.77783599378233       10.73616134060120       12.20153227715354
H            8.65910382830304       12.11063770107846       12.42957280617672
C            5.97761455206002       11.85193840308930       11.51635240363399
H            6.31874387112190       12.88421834228221       11.62989305899118
C            4.81657793647815       11.47701328892365       12.07426325135229
H            4.47541456400420       10.44914970782113       11.99504800861428
H            4.19799277194521       12.18080542839490       12.61908917181347
C            1.91089055519083        9.66157310737498        8.62231532099909
H            2.20810387395307       10.67657639249433        8.90946338829735
H            1.55139007250746        9.13753422684244        9.51940369031857
H            1.08232082721812        9.73385743518253        7.90411866941797
C            1.78229956413632        7.54865875313815        6.23200280423666
H            1.66346255487530        8.16274216947622        5.32711445573521
H            0.86652775425782        7.65274226331460        6.83038901952077
H            1.87608935828876        6.50119798145086        5.91978190401506
C            4.38705299451993        3.84239627282246       10.29316036849082
H            3.57048216223246        4.13798232373063       10.96292200934011
H            4.92699573415188        2.99770558090723       10.73795534704751
H            3.96343886956674        3.53991944933698        9.32952695984305
N            5.97946623100474        5.59716005157999       11.12594931216396
H            5.88101989326122        5.35833482950105       12.09545437960879
C            5.32462347763337        4.97498823136266       10.09115353407367
C            6.78206600514798        6.53742610634746       10.61679554129549
H            7.39120711004650        7.19931608844140       11.21306025503618
N            6.69643501616588        6.51890940806497        9.30210578220303
C            5.81427815702371        5.53290871789472        8.95783739228832
H            5.61663588557328        5.30400374262474        7.92738680995429
C            6.70560820362776       12.30642573690470        4.63398464748787
H            6.12728178723154       12.04873943711454        3.73763650213633
H            7.52816585970374       12.97295679508533        4.34591507537576
H            6.04857060706737       12.82107565011495        5.34267613575858
N            8.09965464098937       10.22501241126404        4.59554059756546
H            8.44970115342186       10.36986680936973        3.66549587074079
C            7.23850339408868       11.06890355229127        5.25555677177937
C            8.36388266545037        9.18224031099252        5.39256449445305
H            9.03018675864358        8.37431284312825        5.13060631460954
N            7.69257763955076        9.30881912013962        6.51787094462531
C            6.99001665452730       10.48295567896356        6.45540091521061
H            6.36108946461313       10.79752962696085        7.27007508296845
87
 energy: -128.455022784756 gnorm: 0.039013604170 xtb: 6.7.1 (edcfbbe)
Fe           7.21524428554241        7.82176699162989        7.89058683888344
N            7.09261912929176        6.41389282834916        6.46290334552435
N            9.15288682214509        7.46578979282047        8.07390852333994
N            7.32162046377356        9.22374638115458        9.27982186433795
N            5.23769441339748        8.13805947837840        7.68802294715840
C            5.98301825837031        6.02186916008511        5.76387308597701
C            6.28314948162653        4.93393137504176        4.86584312007421
C            7.60792290988496        4.65536827993761        5.03606212349999
C            8.09133368773249        5.58311891532769        6.03518825013142
C            9.89315752104144        6.51417229646217        7.42746711219743
C           11.27388458279381        6.55721321888983        7.84045317742900
C           11.36919186156342        7.58786991161865        8.73846626062546
C           10.03810063001712        8.14567026124593        8.85152514931452
C            8.44743250532662        9.69237937490739        9.89382195684708
C            8.14048119184070       10.75476133276795       10.81395369815045
C            6.77947182435487       10.91254031096576       10.76935112703378
C            6.29030319254818        9.94567451944764        9.80183082806005
C            4.47048841912236        8.98637515219994        8.43186616077400
C            3.08005159117062        8.91364074160793        8.02914192789545
C            3.01457142057854        7.99157931807749        7.02495144148852
C            4.36663547148813        7.52019153378567        6.83439500642935
C            4.71737908823772        6.54181446889233        5.93278390634069
H            3.92941451344931        6.12509661621455        5.32746109054041
C            9.39104539177804        5.63551916890697        6.48882331993114
H           10.08182083764078        4.92576038713279        6.06349469540932
C            9.71343537792339        9.18714019048389        9.69233115011703
H           10.51502484216404        9.63708488254352       10.25520157504014
C            4.97005954453216        9.82097628142329        9.41208250522075
H            4.26058479101070       10.45830169461330        9.91237601605070
C            8.38437656638485        3.56657248726413        4.36339803338092
H            7.85378920069440        3.20801759213510        3.48179629300428
H            8.51764691944678        2.72010641447342        5.04024646518960
H            9.36745871757278        3.90977635637539        4.04864317177903
C            5.32154524076930        4.27846167361801        3.92413149148265
H            5.31792540723062        4.79407060031054        2.96083953407024
H            4.30793774427417        4.29722014946654        4.31736857183528
H            5.59649606527472        3.23976232823578        3.74593161557083
C           12.36966412985021        5.67001024385206        7.34093777248907
H           12.26992661970954        5.49707901047214        6.27012555831194
H           12.34091927448353        4.70032825164473        7.84142535444233
H           13.34627036612888        6.11691909625209        7.52851918369202
C           12.52439103274228        8.03475195269230        9.49619120610122
H           12.70909422123767        9.10500281972991        9.51304888108500
C           13.31539065861660        7.22417697342378       10.17466671091900
H           13.14292780456385        6.16024681949226       10.20399428154811
H           14.15728610986265        7.58684452997587       10.74219193704962
C            9.13932317599097       11.46477907011454       11.67075076871090
H            9.78979409545594       12.09291039299976       11.05957713895742
H            9.76825758964598       10.74607114090455       12.19671475135705
H            8.65092792575351       12.09643921058384       12.41096846842562
C            5.96175125204366       11.83990122297027       11.52336174203618
H            6.32398335574922       12.85928946234524       11.62947402344229
C            4.81409484921122       11.48443178176925       12.08341192326496
H            4.46783727015381       10.46649357797739       12.02133990667004
H            4.19772483825926       12.18006684395195       12.62392530846991
C            1.92911063708518        9.66255790344304        8.62458260620267
H            2.21505646861069       10.67163331116722        8.91071629902283
H            1.56120358909042        9.14702653102941        9.51465271021815
H            1.10670413355936        9.72996522509148        7.91281227579104
C            1.80666054088874        7.55505824276818        6.24565655250349
H            1.68268139010205        8.16110875847668        5.34411917115121
H            0.89672712438187        7.65602064228449        6.83740841942863
H            1.88741683657978        6.51484487351815        5.93420671174660
C            4.38535630021365        3.83370139933644       10.30440329643787
H            3.57203847828360        4.12837784613136       10.96471290561593
H            4.90567076752298        2.98351371566673       10.74220915139531
H            3.96957133540685        3.53942385021622        9.34572685415570
N            5.97060816781527        5.59360874693294       11.13545269593252
H            5.87158736474163        5.36770057330467       12.11078353531201
C            5.33755560335350        4.95057736142585       10.10451810524755
C            6.78375243546053        6.53268842061864       10.60018522780801
H            7.38888054094135        7.19378696501309       11.18747344325025
N            6.70215847872851        6.51597152234038        9.29102835794083
C            5.81772615323673        5.52758112155071        8.97069669207380
H            5.60049667429461        5.29904360985061        7.95084887553106
C            6.70711448966588       12.31013386800137        4.62950519228069
H            6.13082390048933       12.06502800434106        3.73793467404007
H            7.51911658613175       12.97756196162582        4.34559956732420
H            6.05772753011044       12.81918522463906        5.33409390914067
N            8.10272758716062       10.23490736782954        4.59098553412018
H            8.46300332253102       10.37965842783134        3.66227303520766
C            7.23309363442048       11.06790186010698        5.24539230084093
C            8.34260064043464        9.17622867024803        5.39556364846779
H            9.00719519698622        8.37466058275101        5.14148875712753
N            7.66559738972841        9.28418446407252        6.51003177549410
C            6.98599117889890       10.46512855277993        6.44376860307426
H            6.36628104169201       10.78819552766807        7.25520081900908
87
 energy: -128.459038292386 gnorm: 0.014141238793 xtb: 6.7.1 (edcfbbe)
Fe           7.21735683880572        7.81964975177208        7.88614329718107
N            7.10062372166611        6.41455690317361        6.43541755043723
N            9.16249650645659        7.45969633064700        8.07139602914711
N            7.31775692210830        9.22444628319612        9.28740426757250
N            5.22982559202980        8.15281008002804        7.67523280007219
C            5.98989198905123        6.04009050208190        5.73890218257560
C            6.29097811204696        4.94137796032796        4.85312026039281
C            7.61197913575781        4.65832632461346        5.02838193568068
C            8.09937268415712        5.58690021394338        6.02208034642530
C            9.89197526729786        6.50723361633119        7.42574429461666
C           11.27033774372232        6.55200828202959        7.84544635148821
C           11.36460884609158        7.57979947102475        8.74324700936305
C           10.03492392621970        8.13681867600304        8.86027263814767
C            8.44585453109824        9.68585931637683        9.89453220764815
C            8.13253854724238       10.74821452766342       10.81148141841424
C            6.77236605269292       10.90240554811149       10.77106382250908
C            6.28298956521018        9.94125006667217        9.79980079583265
C            4.47218053171805        8.99874359115237        8.42328992117424
C            3.08340296163177        8.91925466009853        8.02831195599861
C            3.02159274594397        8.00056628905717        7.02493466550036
C            4.37266091458567        7.53512979029161        6.81831386982562
C            4.72145233900516        6.56352860579910        5.90235509837719
H            3.93171586903589        6.14901371162676        5.29525313062499
C            9.40098682865237        5.62372362405016        6.48139413853464
H           10.09203413178683        4.90615491015608        6.06451114314090
C            9.71929220019566        9.18604711338759        9.69885345783447
H           10.52441883315974        9.63976751353813       10.25721935244851
C            4.95970204130286        9.83587317233586        9.40780544107871
H            4.25003910989489       10.48862674890224        9.89273293186308
C            8.39577343036706        3.57551130068716        4.36691046379102
H            7.86805343950301        3.21672513111276        3.48603001571776
H            8.53413612575108        2.73407484196727        5.04779348379468
H            9.37793879094432        3.92556759523441        4.05824792256874
C            5.32650911047932        4.28069876952352        3.92437458137962
H            5.31567274364494        4.79431402335758        2.96112105128425
H            4.31604917300770        4.29703583763518        4.32455122094514
H            5.60485537322836        3.24328360842306        3.75317672965225
C           12.36321309300608        5.67037187705631        7.34431429029816
H           12.26990433896083        5.50406483579227        6.27221694452548
H           12.33200155703051        4.69865685026137        7.83887130301495
H           13.33238633863694        6.12323062982483        7.54534662381563
C           12.52185262006496        8.03124956433036        9.49875240112979
H           12.69121671208588        9.10318752777587        9.51985748180168
C           13.33210354418143        7.21988007759112       10.16471413865030
H           13.16170795631618        6.15687027982881       10.19650236301621
H           14.17356506181440        7.58414675975094       10.73010336225672
C            9.12794581133804       11.46351747230760       11.66301119447365
H            9.77937968873468       12.08954156394642       11.05164441734803
H            9.75673930793412       10.75042933584115       12.19620012110998
H            8.62941378356245       12.09368713652463       12.39525061844681
C            5.95460024683587       11.83004558652122       11.53128758439447
H            6.33338455782130       12.84185835867406       11.63285336339642
C            4.80691740417560       11.49136756422980       12.10782055534541
H            4.44751251939983       10.47657672758776       12.06840135651977
H            4.20196035488745       12.19633875426195       12.65028362928774
C            1.94254193221106        9.67006826922871        8.63020337097102
H            2.23368686416485       10.67804249074743        8.91377557811427
H            1.57711123376896        9.15843103002235        9.52257771302170
H            1.12124802705398        9.73653590174771        7.91983020483008
C            1.81950095174412        7.55979590445148        6.25529643365426
H            1.70002044353532        8.16406817901843        5.35362686389210
H            0.91742547392825        7.66456568590025        6.85458847357945
H            1.90412599075474        6.51886154989004        5.95185429559711
C            4.38383085280593        3.81805469730708       10.32858609499248
H            3.57004713616084        4.12062873539622       10.98455725745395
H            4.88393788410523        2.95493031106342       10.76676834204530
H            3.96850423761564        3.52929773392318        9.36831974779980
N            5.97489730712492        5.58975871522349       11.14494375782211
H            5.87329010972439        5.38462658666733       12.12586124878530
C            5.34603839760280        4.92748617530077       10.12318475522776
C            6.78476030466500        6.52506262253560       10.58872156163071
H            7.39164053077081        7.19457213713790       11.16258405428006
N            6.69645286121921        6.49865323342172        9.28138980470616
C            5.81242603407943        5.50279789312798        8.98206229775902
H            5.57044050143303        5.26999657093320        7.96910392224847
C            6.71299132560489       12.31698763835148        4.62472689165533
H            6.13720178915017       12.08901015180718        3.72772980325005
H            7.52661345174278       12.98584651858414        4.34944952003754
H            6.06432915898107       12.82366020045598        5.33123778054351
N            8.10266315641909       10.23410348700096        4.58408438035766
H            8.48291548502684       10.38700988212230        3.66385072502666
C            7.22593261487168       11.06406550368038        5.23349809917357
C            8.31480280302263        9.16058465236501        5.38288182368887
H            8.97586738352224        8.35605856452349        5.13510857613362
N            7.62542593842213        9.26134475583806        6.48932632304529
C            6.95781259564015       10.44766300384591        6.42143059788897
H            6.33836965084784       10.77532562395177        7.22956016891781
87
 energy: -128.460770233504 gnorm: 0.011020450575 xtb: 6.7.1 (edcfbbe)
Fe           7.21596109992036        7.82212401556399        7.87666980191533
N            7.10443395898362        6.41626760905101        6.42063785255003
N            9.16373703819350        7.45875199093924        8.06784626022598
N            7.31257302946984        9.22561584292870        9.28745661043587
N            5.22766991996518        8.16347558835246        7.66811961475257
C            5.99641777017331        6.05124392679264        5.72221908431769
C            6.29796960871636        4.94898853606892        4.83828471296146
C            7.61576922348828        4.66134640247001        5.01987634867207
C            8.10223653330210        5.58887805869709        6.01462453948695
C            9.89008456147616        6.50386267203571        7.42770383812410
C           11.26758046163280        6.54448465617951        7.85458208095405
C           11.36026144730106        7.56881260073269        8.75359893655674
C           10.03135894051586        8.13047144412887        8.86442430513664
C            8.44002221037308        9.68330703252497        9.89430369731997
C            8.12413080259752       10.74380039507794       10.81388594353330
C            6.76493123607605       10.89358851518480       10.77938073522642
C            6.27899537128803        9.93917074047416        9.80086052473294
C            4.47355343550829        9.00808202418099        8.41677150873259
C            3.08573553128891        8.92763905484815        8.02414698412904
C            3.02578549416315        8.01109272593652        7.02050811989890
C            4.37769066116156        7.54928960823392        6.80739541890671
C            4.72882010298410        6.58544389133270        5.87900884804460
H            3.94198920554766        6.18768481390252        5.25581449219034
C            9.40421585849350        5.61754800884710        6.48005598183696
H           10.09516210338158        4.89393170008918        6.07143629309586
C            9.71681802156672        9.18378322758042        9.70154204946834
H           10.52311377759352        9.63618179207540       10.26028722632565
C            4.95526602561668        9.84789582550122        9.40397626476725
H            4.24704439765132       10.50773350471349        9.88273136936403
C            8.41102526876888        3.58361331742670        4.36671988794596
H            7.89291207607686        3.21663152868163        3.48383158649690