78
 energy: -115.744600883520 gnorm: 0.397285665630 xtb: 6.7.1 (edcfbbe)
Fe          23.35900000000000      -24.94200000000000        8.46100000000000
N           24.76300000000000      -25.09600000000000        9.94500000000000
N           24.83600000000000      -24.91600000000000        7.06300000000000
N           21.96300000000000      -24.78600000000000        6.97600000000000
N           21.88800000000000      -24.96100000000000        9.86600000000000
C           24.54000000000000      -25.24400000000000       11.26100000000000
C           25.74900000000000      -25.41500000000000       12.03700000000000
C           26.79300000000000      -25.36600000000000       11.06600000000000
C           26.11000000000000      -25.16900000000000        9.80700000000000
C           26.18200000000000      -24.99100000000000        7.26800000000000
C           26.95600000000000      -25.00500000000000        6.03100000000000
C           25.97500000000000      -24.96100000000000        4.99400000000000
C           24.69800000000000      -24.88500000000000        5.71500000000000
C           22.18300000000000      -24.75400000000000        5.64200000000000
C           20.93600000000000      -24.63500000000000        4.89300000000000
C           19.90000000000000      -24.65100000000000        5.87100000000000
C           20.62700000000000      -24.70100000000000        7.11600000000000
C           20.54600000000000      -24.87600000000000        9.64400000000000
C           19.77800000000000      -24.98300000000000       10.85200000000000
C           20.73999999999999      -25.14700000000000       11.92700000000000
C           22.02900000000000      -25.11199999999999       11.20200000000000
C           23.26400000000000      -25.26300000000000       11.92400000000000
H           23.23200000000000      -25.39600000000000       13.00500000000000
C           26.81700000000000      -25.08700000000000        8.55200000000000
H           27.90700000000000      -25.09900000000000        8.58100000000000
C           23.46200000000000      -24.81200000000000        4.97500000000000
H           23.49400000000000      -24.80000000000000        3.88600000000000
C           19.93000000000000      -24.73400000000000        8.36600000000000
H           18.84400000000000      -24.64400000000000        8.33900000000000
C           25.89500000000000      -25.60400000000000       13.50700000000000
H           25.21700000000000      -26.48200000000000       13.56900000000000
H           25.32800000000000      -24.69100000000000       13.78900000000000
H           26.74500000000000      -25.75500000000000       14.20700000000000
C           28.25400000000000      -25.53300000000000       11.37700000000000
H           28.55000000000000      -24.58800000000000       10.87300000000000
H           28.41800000000000      -26.38100000000000       10.67800000000000
H           28.87600000000000      -25.66500000000000       12.28800000000000
C           20.53300000000000      -25.30700000000000       13.41000000000000
H           19.94400000000000      -24.36500000000000       13.42800000000000
H           21.07400000000000      -25.41200000000000       14.37500000000000
H           19.83900000000000      -26.16300000000000       13.26900000000000
C           18.28700000000000      -24.87800000000000       10.95100000000000
H           17.52800000000000      -25.46400000000000       10.47700000000000
C           17.67400000000000      -24.43100000000000       12.21300000000000
H           18.23800000000000      -23.80000000000000       12.91500000000000
H           16.64500000000000      -24.72300000000000       12.46800000000000
C           18.42100000000000      -24.54000000000000        5.72700000000000
H           18.28500000000000      -23.66300000000000        6.39600000000000
H           18.17800000000000      -25.46500000000000        6.29200000000000
H           17.73999999999999      -24.43700000000000        4.85500000000000
C           20.82900000000000      -24.53700000000000        3.39500000000000
H           21.79300000000000      -24.73500000000000        2.96800000000000
C           19.54900000000000      -24.09700000000000        2.75700000000000
H           18.64600000000000      -23.94300000000000        3.36600000000000
H           19.49700000000000      -23.92300000000000        1.67200000000000
C           26.17900000000000      -24.96600000000000        3.50000000000000
H           26.76800000000000      -24.02400000000000        3.52300000000000
H           25.63800000000000      -25.02900000000000        2.53100000000000
H           26.87300000000000      -25.82800000000000        3.60400000000000
C           28.45300000000000      -25.03400000000000        5.84400000000000
H           28.47700000000000      -24.06900000000000        5.29400000000000
H           28.36500000000000      -25.86400000000000        5.11100000000000
H           29.39300000000000      -25.14000000000000        6.42700000000000
O           23.38000000000000      -22.87100000000000        8.56500000000000
H           22.87700000000000      -22.56400000000000        7.81100000000000
H           23.77199999999999      -22.36100000000000        9.17900000000000
C           23.24600000000000      -30.31200000000000        6.70300000000000
H           22.23500000000000      -30.77100000000000        6.67600000000000
H           23.95700000000000      -31.03400000000000        7.15800000000000
H           23.56000000000000      -30.07200000000000        5.66500000000000
N           22.83700000000000      -29.04100000000000        8.85600000000000
H           22.59800000000000      -29.85900000000000        9.37900000000000
C           23.20400000000000      -29.04400000000000        7.53200000000000
C           22.85100000000000      -27.79400000000000        9.32000000000000
H           22.59600000000000      -27.51800000000000       10.34300000000000
N           23.21800000000000      -26.97400000000000        8.34700000000000
C           23.43200000000000      -27.73800000000000        7.21300000000000
H           23.72900000000000      -27.27700000000000        6.27900000000000
78
 energy: -115.897436356564 gnorm: 0.204830577734 xtb: 6.7.1 (edcfbbe)
Fe          23.35700537643416      -24.96549291817200        8.46224006218788
N           24.76961067074027      -25.10084713860832        9.95014443146636
N           24.83386585045252      -24.91697805903192        7.06472114526004
N           21.96165268425103      -24.78227997501722        6.96362239659856
N           21.88311821716188      -24.96055213722171        9.86603298526250
C           24.53157387931184      -25.24629873113206       11.27535390491607
C           25.76604705293465      -25.41436698536054       12.01862891728211
C           26.77476915335025      -25.36783727201261       11.08265948841681
C           26.12160199776502      -25.17007442018019        9.79934671142969
C           26.17817798685868      -24.99069831874654        7.29027152465822
C           26.91989225451155      -25.00463450394954        6.04768835413966
C           25.95196842420393      -24.96075163851225        5.03084175089417
C           24.67701066035564      -24.88766745193039        5.71517202134539
C           22.18693036285627      -24.75344368118561        5.62200021304432
C           20.92731436759530      -24.63617178922581        4.87918482966405
C           19.92529177588748      -24.63838837671953        5.85064574319353
C           20.61600790625516      -24.70944930457314        7.12263594601999
C           20.53861001170977      -24.87679665701077        9.63862971412494
C           19.78155201682701      -24.96905150565804       10.87345713621658
C           20.76060978547453      -25.13798241087711       11.89328898418453
C           22.04030334398768      -25.11761122657256       11.20457572686850
C           23.26399501217093      -25.26045010862971       11.90152659594457
H           23.22842260751268      -25.39211088196764       12.98115892098794
C           26.79951312107552      -25.08505841582645        8.55616637288809
H           27.88784021300861      -25.10223751190674        8.57860258943872
C           23.45735230661082      -24.81152090622901        5.00045740432881
H           23.50091290143035      -24.79973073599618        3.91346243859765
C           19.94196472807547      -24.73627737903331        8.36865817999928
H           18.85913859794990      -24.64773738206732        8.34407733140885
C           25.85456308223663      -25.60180734331146       13.50051135608998
H           25.20809308133076      -26.48228840467924       13.61086813077072
H           25.32075602765034      -24.70065959300173       13.82993195065254
H           26.74016177867995      -25.74515935735882       14.14558860177063
C           28.25110746511489      -25.52385836683559       11.33002661051144
H           28.59606753329843      -24.59319314243875       10.86346527732647
H           28.45932367650441      -26.37828175956018       10.67326371103064
H           28.81033956368085      -25.66022423304596       12.27500886050579
C           20.49456445957785      -25.29889645084818       13.37631297004619
H           19.92108945937361      -24.37186009925394       13.47532348695868
H           21.09881431957605      -25.41067762470678       14.29965551178567
H           19.81184733830907      -26.15736804956570       13.30750344993610
C           18.30227102761678      -24.90517506413629       11.03357803614300
H           17.56194418977359      -25.45646797990305       10.45521306005349
C           17.69546505631364      -24.44160891814074       12.19244849169938
H           18.22631507079407      -23.81095627275649       12.90056513712161
H           16.66555534752993      -24.70318299342211       12.44281105738180
C           18.43159475947050      -24.54276939103746        5.76452488857249
H           18.24972221359211      -23.66663204298845        6.40145813418744
H           18.14281980140739      -25.45768780353739        6.29835851818445
H           17.79112788023790      -24.44705394633151        4.87211123706751
C           20.78510273512445      -24.51446883210244        3.41364743785069
H           21.74472774521400      -24.72115587425559        2.94648604442358
C           19.60417612247109      -24.11393994967597        2.77873179432594
H           18.69197738399012      -23.94572051776944        3.35012082448168
H           19.52224487980925      -23.94012339220734        1.70174671089492
C           26.22235090635491      -24.96420789301610        3.53624649579360
H           26.79585681205577      -24.02818559870089        3.48520193746037
H           25.61721937593643      -25.02890903827411        2.60758738096938
H           26.90457324876845      -25.82486185882259        3.55533160559232
C           28.41872948214030      -25.03097650472811        5.80454482072735
H           28.51307639341056      -24.07447069580840        5.27093837568514
H           28.41209954751881      -25.86043789471421        5.08477457880566
H           29.31839961938561      -25.13952822502311        6.44418266683753
O           23.37461651594998      -22.88213457119543        8.55130931826220
H           22.87536884170931      -22.54672122091929        7.80926811788902
H           23.78060620790933      -22.33463321048971        9.19292552247382
C           23.24470832956953      -30.30636298020650        6.70788599168644
H           22.24728379903554      -30.76757719208812        6.67535100065514
H           23.94855691462874      -31.02612274593703        7.14979315950520
H           23.55683464735101      -30.07442927524107        5.68214375549989
N           22.83706733296154      -29.05218208583928        8.85165003602599
H           22.59642385937394      -29.86988298629111        9.38052114039517
C           23.20047499860530      -29.04933349827817        7.52803233650918
C           22.85612629378173      -27.79212453703797        9.31091694232148
H           22.60298490381671      -27.51633109412056       10.32581076405305
N           23.21848324200582      -26.97424541237643        8.34432729219003
C           23.43036939494152      -27.73866923136653        7.22159033751185
H           23.72596406735249      -27.28095702330038        6.29215331260952
78
 energy: -115.976404818606 gnorm: 0.094251506648 xtb: 6.7.1 (edcfbbe)
Fe          23.35528934894680      -24.98730737285547        8.46195596239202
N           24.77256158117107      -25.10997805134509        9.95220377159046
N           24.83124210727146      -24.92345650705126        7.06759722390755
N           21.95898918975474      -24.78537945634072        6.95371399795845
N           21.87675587688996      -24.96657947801491        9.86349994057314
C           24.52258063688886      -25.25067375466791       11.28474160616735
C           25.78010902614660      -25.41428262653889       12.00789762031637
C           26.76398469994108      -25.36889075518446       11.09718256271907
C           26.12738809100036      -25.17226201046276        9.79170452943290
C           26.17473838189074      -24.99278481644638        7.30672704467711
C           26.89408099800009      -25.00300964594365        6.05575468798901
C           25.93882928848580      -24.95961262238425        5.05643676201109
C           24.66157275632126      -24.89266605161751        5.71427086061560
C           22.18655855113958      -24.75242955308268        5.60809204176940
C           20.91359071312082      -24.63418614933790        4.87618421992311
C           19.94004592220219      -24.62746670085449        5.84094077975174
C           20.60797553773298      -24.71689295339928        7.13165387514794
C           20.53372612718121      -24.87852863986161        9.63192998499728
C           19.78953550027231      -24.95677623175272       10.89069844316578
C           20.76944532964529      -25.12771492556184       11.86915832960853
C           22.04415152621365      -25.12138974758857       11.20763500743137
C           23.26413088720867      -25.25829635577687       11.87765543100489
H           23.22401830051255      -25.38722802241518       12.95613471507837
C           26.78022963509346      -25.08487981916527        8.56217565754657
H           27.86706943434806      -25.10687201944059        8.57675657636513
C           23.44920567239737      -24.81154122071161        5.02567217852745
H           23.50409422178746      -24.79879998554620        3.93977930675798
C           19.95497878157546      -24.73886285434429        8.37033025172170
H           18.87405957592740      -24.65276449695527        8.34924467712153
C           25.81175359018357      -25.59934375472637       13.49497737952019
H           25.19486231777323      -26.48244195769415       13.65434438596676
H           25.30881943704587      -24.71006255955792       13.87241965975793
H           26.74215157352522      -25.73386830957848       14.07003080846226
C           28.24800228858132      -25.51423470929616       11.28002272423791
H           28.64380588961091      -24.59793785752862       10.84845292699413
H           28.50223955634973      -26.37431754754789       10.66243259970200
H           28.72862840468382      -25.65373318012776       12.26537552349276
C           20.45263873986391      -25.28956567621735       13.34268205412914
H           19.89602445633145      -24.37654968499617       13.52742776107224
H           21.14214688086045      -25.41037789465305       14.20438268429505
H           19.78176428883388      -26.15051687437952       13.34446565980336
C           18.32068450072162      -24.92548587980787       11.09956408064573
H           17.62239693366704      -25.45749051243279       10.42733046961339
C           17.72099126020960      -24.45659222260600       12.17737322759111
H           18.21811703469732      -23.82400186166231       12.89680136769860
H           16.68164843634057      -24.67498854094464       12.41160655553201
C           18.43993018809486      -24.54531047168924        5.80374212340612
H           18.21324794229618      -23.67019207874394        6.41220541995869
H           18.10975777153917      -25.45162770009334        6.30967718636622
H           17.85561028906548      -24.45752816398848        4.87923096462379
C           20.75561514025599      -24.49850612954551        3.43038352820751
H           21.70290795576498      -24.70463882357936        2.91960577982621
C           19.65716086787807      -24.12844180064495        2.80496273882015
H           18.73129482821070      -23.94320504768708        3.33867248208173
H           19.55585018625729      -23.96294961995474        1.73286276380893
C           26.26842941350516      -24.96166582296507        3.57511014330380
H           26.82807268987406      -24.03286827066030        3.45208570265811
H           25.57975267956770      -25.02924003751315        2.70529069698055
H           26.93896630625289      -25.81980949254282        3.51059043655890
C           28.38228430260795      -25.02722468845166        5.76369178866866
H           28.54443061515688      -24.08010941437087        5.24433764755764
H           28.45508432384187      -25.85546210841879        5.05690646416929
H           29.22333925896768      -25.14007999097821        6.47798922112064
O           23.37723609486680      -22.88900661677535        8.54365666015155
H           22.87882612271240      -22.51497775918799        7.81718167450996
H           23.77675887657511      -22.31237265256543        9.19005744660321
C           23.24350915862007      -30.30069471555750        6.71177966812201
H           22.25586638962639      -30.76484096342120        6.67546383162663
H           23.94277579564392      -31.01878215168673        7.14475873328107
H           23.55535615738406      -30.07370326465566        5.69503381285466
N           22.83666090960515      -29.06269236719785        8.84848714049599
H           22.59464366895016      -29.87908831834776        9.38275433495840
C           23.19656405262760      -29.05320967554825        7.52501400327998
C           22.86161251186368      -27.79133919099835        9.30293905782229
H           22.61057873421807      -27.51582148004279       10.31058081204591
N           23.22016870269456      -26.97316995497427        8.34231693006467
C           23.42846137857691      -27.73879992553534        7.22958074461336
H           23.72363339855131      -27.28661945327321        6.30263214666991
78
 energy: -116.014155485725 gnorm: 0.059065712024 xtb: 6.7.1 (edcfbbe)
Fe          23.35374896495001      -25.00000509664609        8.46146131836299
N           24.76707338803501      -25.12141094800492        9.94700931238670
N           24.82435232001366      -24.93407630953829        7.07437106932775
N           21.95899371610761      -24.79334679430389        6.95750000445454
N           21.87682239455762      -24.97417849317153        9.85853958193685
C           24.51546140868494      -25.25665104486028       11.27955010068650
C           25.77348401497411      -25.41486351550248       12.00487252193058
C           26.76120393379691      -25.36749104451610       11.09044107490757
C           26.11961810578624      -25.17653348899016        9.78536374211124
C           26.16646880893897      -24.99652381994883        7.31284809452633
C           26.88100572934819      -25.00094499234061        6.05860109856004
C           25.93457588197003      -24.95765379732619        5.06841180232017
C           24.65386279494749      -24.89932139444509        5.72044593959259
C           22.18357138912087      -24.75402123995051        5.61390630543615
C           20.90961430677720      -24.63286271964772        4.89230487245972
C           19.94130406113778      -24.62163388771060        5.85647857059473
C           20.61010748783352      -24.72299442161648        7.14316742605262
C           20.53824399590741      -24.88072625350055        9.62833701270035
C           19.80453497055233      -24.95272235882005       10.89167886101473
C           20.76885544711446      -25.11561830420522       11.86183751090246
C           22.04355958297410      -25.12329152634885       11.20421822741457
C           23.26249142766599      -25.25912347059650       11.86231630441931
H           23.21824942169477      -25.38163901240198       12.93810143124251
C           26.76697741599142      -25.08751296341448        8.56457511674933
H           27.85099873830278      -25.11334666788842        8.57459791984308
C           23.44271112540159      -24.81309043764110        5.04212265763667
H           23.50483889127078      -24.79583143981200        3.95952797603446
C           19.96225401501111      -24.74356923645431        8.37394304482346
H           18.88328091735809      -24.65868440267905        8.35648021020921
C           25.78099456016452      -25.59720006709567       13.48864354604197
H           25.17906024295743      -26.48223774045485       13.70212169346791
H           25.29324149364002      -24.72058910633953       13.91838762634413
H           26.75399930467989      -25.72296854371576       13.98962399391756
C           28.24287408024060      -25.50590439035152       11.24057795506086
H           28.69459323619794      -24.60317617955673       10.82733716430949
H           28.54836084269503      -26.36813382156364       10.64541440572255
H           28.64273997693605      -25.64566609050974       12.26073847164992
C           20.43091084968350      -25.28303715771576       13.31890726704395
H           19.87751197011125      -24.38138668666031       13.58826292762061
H           21.20545879818927      -25.41657218972179       14.10498708094144
H           19.74969092043297      -26.13729257582959       13.38203186684436
C           18.35139696769155      -24.95874038598982       11.11204582592029
H           17.69634182231936      -25.48630149987303       10.40017000036559
C           17.71952036071343      -24.44012788989015       12.16943724038471
H           18.20889659180679      -23.83036962747303       12.90932383689796
H           16.67459680275477      -24.63506777370385       12.37577160324201
C           18.44487626037681      -24.54731857667131        5.83749050667288
H           18.16969305241300      -23.67288145577275        6.42959902024675
H           18.07425638698794      -25.44631213384025        6.33009910838536
H           17.92307426987276      -24.46962086369219        4.87859113618766
C           20.76879024334174      -24.49387046016805        3.45332841785284
H           21.69403857616800      -24.69513565341845        2.90867103613692
C           19.66529462833240      -24.13014757259318        2.80198346691163
H           18.74284792479715      -23.92334787341942        3.32147636773445
H           19.58970680121799      -23.98746198217675        1.73341475948486
C           26.29690178380119      -24.95829900925398        3.60721055353545
H           26.86241687629912      -24.03955911471480        3.42039356371602
H           25.52858257122211      -25.02783216022801        2.80777278720348
H           26.97360821212396      -25.80968126202390        3.46742590420619
C           28.35167603808290      -25.02413958983857        5.73941246009472
H           28.57467467917945      -24.08771869357225        5.21647609994641
H           28.49658287932592      -25.84732968632679        5.02992113353358
H           29.12196786184166      -25.14053210664356        6.52783236160247
O           23.38641574048803      -22.88232898546001        8.53607441474339
H           22.88154745698892      -22.47652525290176        7.82781396408004
H           23.76945908714459      -22.29002285549336        9.18481981703333
C           23.24227704566285      -30.29827045834039        6.71296033613799
H           22.25842894694931      -30.76540156001284        6.67411933812103
H           23.94159187949482      -31.01492492158871        7.14264076723441
H           23.55609026275767      -30.06942766987331        5.70016320399109
N           22.83577773294535      -29.07019495623167        8.84787951629591
H           22.59328670809085      -29.88645222990441        9.38402010782636
C           23.19262133517719      -29.05582388211232        7.52459375185216
C           22.86628828035849      -27.79516452890234        9.29967017133841
H           22.61885116442029      -27.51679884250906       10.30348312724489
N           23.22219981873272      -26.97503424671341        8.34155220797503
C           23.42684293661291      -27.74164520595476        7.23259364023196
H           23.72287908135239      -27.29335540092028        6.30672533802977
78
 energy: -116.031744249100 gnorm: 0.042476000386 xtb: 6.7.1 (edcfbbe)
Fe          23.35150781977544      -25.00788747980527        8.45910710380234
N           24.75389711335605      -25.13532364004712        9.93537326349560
N           24.81698998797555      -24.95006184458162        7.07779258958326
N           21.96057513860951      -24.80569937950710        6.96704057193096
N           21.87782262949609      -24.98420626232810        9.85646451119745
C           24.50835028239922      -25.26544869827220       11.26648790410103
C           25.76076997394206      -25.41642270870210       11.99775800468182
C           26.75375523842179      -25.36637813680383       11.07588004859021
C           26.10294699372143      -25.18463963031552        9.77800739153044
C           26.15826762042198      -25.00507368940582        7.31319137054422
C           26.87451039888566      -24.99829749715845        6.05872249955164
C           25.93152319524141      -24.95453075442221        5.07127348065399
C           24.64715682190293      -24.90798786378832        5.72416987246178
C           22.17653412219872      -24.75829179567000        5.62499642930708
C           20.90357552867281      -24.62654306268490        4.91009758982205
C           19.93664593826337      -24.61688031345699        5.88226311894957
C           20.61546837705666      -24.72988210181738        7.15649359318773
C           20.54185898635712      -24.88812100433763        9.62922646866785
C           19.81036059289690      -24.94419379256201       10.89011053505545
C           20.76515363000603      -25.10579109976716       11.86393722822925
C           22.04125076041563      -25.12330197091714       11.20296717962130
C           23.25955947661363      -25.26069930397212       11.85341710909010
H           23.21497914153509      -25.37446231456542       12.92741553873606
C           26.75626890944379      -25.09559641217352        8.56299230835294
H           27.83770436740518      -25.12163907970853        8.57371005868460
C           23.43488307285147      -24.81685307523227        5.05208245271479
H           23.50002451188839      -24.79045594984493        3.97267956938168
C           19.96415780439850      -24.75085821157115        8.38084651012727
H           18.88713058023131      -24.66484446958731        8.36552922545850
C           25.76522892550393      -25.59471939014910       13.47728695926566
H           25.17815159929040      -26.48039902415464       13.73759345954923
H           25.29125204789512      -24.73037028165996       13.95057462929400
H           26.76372869806367      -25.71243777690938       13.91338814567846
C           28.23100296639503      -25.49848976762726       11.21359073816395
H           28.72478992318152      -24.60825335638250       10.81654461464508
H           28.57826081686176      -26.35995426912931       10.63687112621996
H           28.56594343937572      -25.63386943430567       12.24885712832411
C           20.43016696499263      -25.27868947304433       13.30731591161427
H           19.89998164086063      -24.38359606844273       13.64737275041227
H           21.26355275466365      -25.42878525311449       14.01397729539818
H           19.73873352124855      -26.12069895486060       13.41297451255368
C           18.37228222438144      -24.95588300710421       11.10343859715157
H           17.76510528642220      -25.49840701861601       10.37996363750927
C           17.73602399734841      -24.46597731448627       12.15735683235378
H           18.19629858966015      -23.83090168172951       12.89299881248510
H           16.66841523813209      -24.60471083543900       12.30362797993312
C           18.44622371967579      -24.55007789362665        5.86539292499909
H           18.12802406559835      -23.67559307188268        6.43961717884539
H           18.04424679137595      -25.44162857548272        6.34944417199341
H           17.98610433752604      -24.48497122557062        4.87851918870595
C           20.77552415353688      -24.49295321117803        3.47497907179917
H           21.67940009403056      -24.68869421149380        2.90560019264519
C           19.68435250021401      -24.12147609694970        2.80958694317146
H           18.75921684262610      -23.90073909223245        3.30926131537188
H           19.64874427247275      -24.02066352198852        1.73757218088284
C           26.30757379891674      -24.95355200596284        3.62823537295456
H           26.87260999488344      -24.04412277661288        3.39926127713658
H           25.48828104924974      -25.02338662152883        2.89838182783632
H           26.97937315024634      -25.79924062994662        3.43774400891093
C           28.32998836747963      -25.02130507557120        5.73360175916601
H           28.59526583912272      -24.09480532958935        5.21213689712843
H           28.52475826254548      -25.84121659158378        5.03151054077501
H           29.02958057667925      -25.13906620001181        6.57336805158747
O           23.40673531278687      -22.86478723246054        8.52150429105360
H           22.88085489262502      -22.42657303831263        7.84465040271272
H           23.75605427774725      -22.26067734503629        9.18173840671610
C           23.24131550763742      -30.29796691296135        6.71213196999851