78
 energy: -116.058081325646 gnorm: 0.000046317519 xtb: 6.7.1 (edcfbbe)
Fe          23.36674813197974      -25.04387007210925        8.46633101720957
N           24.73795284876322      -25.18979217733565        9.90239132108663
N           24.80142267751718      -25.01028907576356        7.08447873743308
N           21.97540192196406      -24.83444989030858        7.02162426078817
N           21.90976488941451      -25.02047255867116        9.85828468721622
C           24.52087664049311      -25.23099167892150       11.24444428226266
C           25.77306427952997      -25.33961907554048       11.96289484064989
C           26.75032622597999      -25.37140482581558       11.01926481041613
C           26.08203262126377      -25.27437812560174        9.73893545224549
C           26.13730859874538      -25.12608283613960        7.29502203315599
C           26.86098068663666      -25.07051843702630        6.04256752657324
C           25.92631655378920      -24.91214996767484        5.06903757821721
C           24.64420714163860      -24.88131285426464        5.74080504710080
C           22.19423289407161      -24.75221519456309        5.68336064945660
C           20.94111687257345      -24.63382898581201        4.96595260709662
C           19.95553594193447      -24.67136386064686        5.91785685025218
C           20.62272201291208      -24.79798266579791        7.18714525663565
C           20.56858702131782      -24.96834915928132        9.63873952760741
C           19.84381849556699      -25.00937716016821       10.89297938522280
C           20.79423505751089      -25.10688209554309       11.87623512923617
C           22.06850974580945      -25.11471496792850       11.20837399264860
C           23.28690886612890      -25.19755130225031       11.86265873666301
H           23.27027253256317      -25.24029791273255       12.94108983545700
C           26.74596691622884      -25.25835411681397        8.52738196169835
H           27.82223815101041      -25.33613959039878        8.54701585368312
C           23.43824800854586      -24.75272793145014        5.07810023262038
H           23.47066438749962      -24.65444758621045        4.00380790308618
C           19.96291099118522      -24.85248378667879        8.40247558739885
H           18.88553368687376      -24.79578260002537        8.38164877949445
C           25.88934690675781      -25.39857786345132       13.44780224157327
H           25.36144450968684      -26.26754805312638       13.84248419983142
H           25.45720401964813      -24.50632964182206       13.90108298951265
H           26.93117225115854      -25.46542105130080       13.75114678077403
C           28.22697867886600      -25.47380101810424       11.19093846896948
H           28.72091272930826      -24.59573679837210       10.77467017856475
H           28.61286916266745      -26.35427585372191       10.67667785594400
H           28.49081935065163      -25.54826328834201       12.24311120352531
C           20.59356633198124      -25.25183183592585       13.34466414014633
H           20.71377868135880      -24.29255042932624       13.85092220101856
H           21.31724631947341      -25.94733093716547       13.76729597321497
H           19.59170528694700      -25.62409747315871       13.54929538438830
C           18.40321217615748      -24.98159412923384       11.01464364630937
H           17.85632080457546      -25.45347433220691       10.20638434666147
C           17.72320066192249      -24.42802130432866       12.01355020426976
H           18.20973420646176      -23.90402788348105       12.81757714265284
H           16.64668966800892      -24.45748836895266       12.04615811636232
C           18.47974232159619      -24.66086100704454        5.72158179364272
H           18.06838897286703      -23.66635685560300        5.90324175762215
H           17.99531079913706      -25.35543235067495        6.40628111753427
H           18.23715601232811      -24.95164105463166        4.70152513853158
C           20.82148724965909      -24.52877257165414        3.52851014824564
H           21.57465095113575      -25.05783104943097        2.95592836061186
C           19.88701842723842      -23.84070212257157        2.88068543318321
H           19.14372921227687      -23.25762112275368        3.39585495404009
H           19.85011611160154      -23.81641848761304        1.80419005279447
C           26.10664351223158      -24.78947964272296        3.59468468668099
H           25.68889024271094      -23.84913747906045        3.23459690492124
H           25.60097328740506      -25.60464404872356        3.07589263339059
H           27.16087241202547      -24.81857708026036        3.33067819110421
C           28.34313677152236      -25.16716565265833        5.92334428077764
H           28.82382997766964      -24.35363161587835        6.46692737249986
H           28.65244544866266      -25.11311707293403        4.88240659041701
H           28.70036574269432      -26.10943196893145        6.33938191396793
O           23.35598796200484      -22.75386320245380        8.59809552904250
H           22.91363179267245      -22.53322948931506        7.77123230261371
H           22.71243455115499      -22.63346111846944        9.30485858060378
C           22.98578528862628      -30.31405413035789        6.68883290175706
H           22.05557419148602      -30.84918708881414        6.87920365575884
H           23.81599790376492      -30.98807182322696        6.89984236404248
H           23.01992510101838      -30.03789428366119        5.63969408599090
N           23.04052521468986      -29.13425378585008        8.89692668369129
H           22.95676525655708      -29.96591514210641        9.45810551812200
C           23.07235092204566      -29.09198845789508        7.52766107757456
C           23.13920007109505      -27.86365669986245        9.34860594939059
H           23.14061175044267      -27.59278901459376       10.38429270754297
N           23.23172098572622      -27.02024109363059        8.34920406952582
C           23.19195203945624      -27.76940032311558        7.21007615026850
H           23.25067297140486      -27.30997241000148        6.24534813777477
