78
 energy: -116.058048742148 gnorm: 0.000051677851 xtb: 6.7.1 (edcfbbe)
Fe          35.27317766288430        4.26361240308629       10.29624856052547
N           37.12272305575916        3.89523780434646        9.65603260162797
N           34.95901646038134        5.47695096481005        8.74649788463177
N           33.43849543030353        4.69215827973952       11.00986504127286
N           35.59019783124966        3.06280272165678       11.88133908353262
C           38.05984022900164        3.11130741480606       10.25036208758817
C           39.29159983298096        3.11760148345229        9.49023521661444
C           39.07067102583279        3.91933044777681        8.41549917418177
C           37.70818852693983        4.39344130240517        8.53596245041170
C           35.81887118884029        5.72966573252495        7.72532420410276
C           35.22777207685486        6.62717164992674        6.76442716326903
C           33.97764044025276        6.92576076737377        7.23537994335698
C           33.83318184946045        6.18581384166855        8.47597505427133
C           32.52430288166547        5.53407890536261       10.45031320867783
C           31.31929982062620        5.57733757102281       11.23596191510046
C           31.51392982428205        4.71946075197176       12.28751076175271
C           32.84928888207547        4.18125448504734       12.12279559509007
C           34.69339719028694        2.73384216794848       12.85109467827468
C           35.26343623457367        1.77386290393259       13.76858851742642
C           36.52916799139442        1.53112061974846       13.33124484220231
C           36.71286638094282        2.34176145323922       12.14971618598011
C           37.87857353643408        2.37480100219873       11.40658019911539
H           38.70595962442076        1.77316105421687       11.75095426429367
C           37.10621910003764        5.23312314736219        7.62189247157721
H           37.69278846803824        5.54186198471345        6.77016249024292
C           32.70448588103790        6.23626672599964        9.27062791735129
H           31.88983665497793        6.86204417921547        8.93961868981422
C           33.41829878600618        3.25235949284150       12.97462088221513
H           32.81941473091616        2.89933562502454       13.79984873104414
C           39.99395564812409        4.28709392441578        7.30522894463370
H           39.58578813568094        3.96967424769215        6.34526504260248
H           40.96515639262322        3.81624999453927        7.43673748867614
H           40.13777413181192        5.36699679644894        7.27094936057412
C           40.52156438552910        2.36877094729604        9.87543435896623
H           40.32458321122069        1.29677601187441        9.91413740365352
H           40.86884161772986        2.68386812267724       10.85953675827912
H           41.32037691004548        2.54328120656706        9.15897012900713
C           35.86560894780611        7.05959776111118        5.49066570767184
H           36.43081646150693        6.24176530018117        5.04616918412037
H           36.55178061739493        7.89044987810914        5.66233451350745
H           35.10493068550052        7.38316176464851        4.78295848330287
C           32.95541967723638        7.76613974655052        6.65221774762718
H           31.93289847852211        7.45104645612299        6.82728482377326
C           33.17445913393157        8.86929832110623        5.94385657605358
H           34.16441652890125        9.25700655668186        5.77929349240787
H           32.36229378664464        9.44079106125795        5.52576682256644
C           30.14751324291698        6.45365205148450       10.96063464956850
H           29.48284165669697        5.99702155835895       10.22521300047981
H           30.47032254842202        7.41777965790900       10.57049799670949
H           29.58273139185847        6.61957628627229       11.87593174903114
C           30.62795417635289        4.40286509537753       13.38539949735617
H           31.11273739505188        4.18755589255318       14.33083472161299
C           29.30150502781935        4.35129793342346       13.31763770919981
H           28.76785784009314        4.50813787196787       12.39669651157840
H           28.70212227351816        4.12228059795248       14.18319401715155
C           34.54622934825337        1.20606641016753       14.94506254801559
H           33.63011794437162        0.70604598050142       14.63014419093848
H           34.27538979210161        1.99486241247500       15.64760601227966
H           35.16934342091314        0.48375508877431       15.46675405808826
C           37.56928025524906        0.62845323046898       13.90139533421029
H           37.86347235799554       -0.12809293864833       13.17329388310861
H           37.19809149659211        0.12264281784738       14.78928578205817
H           38.45928161108406        1.19490581167173       14.17666188107939
O           36.02129520910235        5.98563582024285       11.61385510148596
H           35.18369103095752        6.37481196665456       11.88792114793440
H           36.35534751760128        5.47663469449753       12.36049829161062
C           32.14798436820001        0.85439782175873        7.18514524643511
H           31.65078890328568        0.03105929368475        7.69797486588506
H           32.55624914441172        0.47569207854199        6.24825259654836
H           31.41134389050502        1.61914036698178        6.96011406060141
N           34.29840469288065        0.70082525964934        8.45949734714675
H           34.47056341385138       -0.26900249250119        8.25123786157058
C           33.22099500599747        1.43234500116934        8.03312825940186
C           35.07723861465369        1.51547318436805        9.20645475671726
H           35.99173447768330        1.21131942777108        9.67240315389846
N           34.55859297058085        2.71728013595692        9.27899900923294
C           33.40419306660525        2.68135070891887        8.55338049223680
H           32.78647956569331        3.54973599303710        8.45540761382883
