77
 energy: -118.865117533543 gnorm: 0.317772059779 xtb: 6.7.1 (edcfbbe)
Fe          35.31900000000000        4.15000000000000       10.35900000000000
N           37.16100000000000        3.85400000000000        9.77500000000000
N           35.05000000000000        5.37700000000000        8.78500000000000
N           33.43400000000000        4.48800000000000       10.95900000000000
N           35.64800000000000        2.93200000000000       11.83200000000000
C           38.15000000000000        3.02300000000000       10.33200000000000
C           39.42300000000000        3.05900000000000        9.53900000000000
C           39.16600000000000        3.87900000000000        8.47800000000000
C           37.76899999999999        4.34900000000000        8.61800000000000
C           35.93700000000000        5.72100000000000        7.80000000000000
C           35.38900000000000        6.73100000000000        6.79000000000000
C           34.10400000000000        6.95000000000000        7.24300000000000
C           33.93500000000000        6.12600000000000        8.45800000000000
C           32.57200000000000        5.44300000000000       10.47100000000000
C           31.38600000000000        5.59100000000000       11.31900000000000
C           31.52200000000000        4.68900000000000       12.36700000000000
C           32.80600000000000        3.99100000000000       12.09600000000000
C           34.69900000000000        2.61000000000000       12.86900000000000
C           35.24600000000000        1.65400000000000       13.80300000000000
C           36.54699999999999        1.52100000000000       13.37700000000000
C           36.75600000000000        2.23100000000000       12.17700000000000
C           37.94800000000000        2.22800000000000       11.46500000000000
H           38.75800000000000        1.58100000000000       11.80200000000000
C           37.21999999999999        5.19400000000000        7.73500000000000
H           37.83700000000000        5.49500000000000        6.88800000000000
C           32.78300000000000        6.16900000000000        9.27200000000000
H           31.97600000000000        6.82500000000000        8.94700000000000
C           33.43700000000000        3.14800000000000       12.98900000000000
H           32.87700000000000        2.88000000000000       13.88400000000000
C           40.07200000000000        4.32300000000000        7.32800000000000
H           41.07600000000000        3.86400000000000        7.44900000000000
H           40.17800000000000        5.42900000000000        7.33900000000000
H           39.63900000000000        3.99300000000000        6.36000000000000
C           40.71200000000000        2.23600000000000        9.74300000000000
H           40.72899999999999        1.38900000000000        9.02400000000000
H           40.73900000000000        1.83100000000000       10.77700000000000
H           41.60000000000000        2.87900000000000        9.56300000000000
C           36.01800000000000        7.25400000000000        5.48300000000000
H           36.80300000000000        6.54600000000000        5.14000000000000
H           36.48199999999999        8.24800000000000        5.66100000000000
H           35.23700000000000        7.33500000000000        4.69700000000000
C           33.13600000000000        7.87700000000000        6.72900000000000
H           32.08600000000000        7.55400000000000        6.73400000000000
C           33.37200000000000        9.24400000000000        6.18000000000000
H           34.39000000000000        9.65800000000000        6.13200000000000
H           32.53100000000000        9.85300000000000        5.81700000000000
C           30.24900000000000        6.57400000000000       10.97300000000000
H           29.93700000000000        6.42300000000000        9.91700000000000
H           30.60500000000000        7.61900000000000       11.09800000000000
H           29.37700000000000        6.38800000000000       11.63600000000000
C           30.75200000000000        4.44900000000000       13.52900000000000
H           30.96200000000000        3.52700000000000       14.08800000000000
C           29.71400000000000        5.27200000000000       14.07900000000000
H           29.43200000000000        6.21600000000000       13.59000000000000
H           29.18800000000000        4.96900000000000       14.99600000000000
C           34.60099999999999        1.08600000000000       15.05000000000000
H           33.58300000000000        0.71500000000000       14.80500000000000
H           34.51900000000000        1.87800000000000       15.82400000000000
H           35.20900000000000        0.24000000000000       15.43500000000000
C           37.64299999999999        0.84700000000000       14.17400000000000
H           37.79400000000000       -0.18700000000000       13.79600000000000
H           37.35400000000000        0.80100000000000       15.24600000000000
H           38.59200000000000        1.41400000000000       14.06100000000000
C           32.37500000000000        0.04000000000000        7.55100000000000
H           32.22200000000000       -0.71400000000000        8.35200000000000
H           32.60200000000000       -0.48600000000000        6.60000000000000
H           31.44700000000000        0.64100000000000        7.44000000000000
N           34.93600000000000        0.80200000000000        7.63300000000000
H           35.32200000000000        0.10800000000000        7.02500000000000
C           33.55700000000000        0.96700000000000        7.93200000000000
C           35.59900000000000        1.73600000000000        8.30900000000000
H           36.68100000000000        1.85900000000000        8.30500000000000
N           34.73100000000000        2.44600000000000        8.95100000000000
C           33.37300000000000        2.03200000000000        8.76800000000000
H           32.51600000000000        2.50800000000000        9.21900000000000
O           36.03100000000000        5.57900000000000       11.22900000000000
O           35.47400000000000        5.75900000000000       12.29400000000000
77
 energy: -118.953268053408 gnorm: 0.152211160507 xtb: 6.7.1 (edcfbbe)
Fe          35.34831402605735        4.18193122012973       10.35245844691108
N           37.19821819923191        3.82927915767476        9.75281690564774
N           35.03504582416021        5.40252581916911        8.74403888081045
N           33.42123260379336        4.50167937375607       10.96281887169564
N           35.62429052692067        2.92037361177442       11.84236294134380
C           38.16114786918015        3.01520976480429       10.32344770031857
C           39.41042461511471        3.04884640200130        9.53066017968903
C           39.16311119669702        3.87859757692001        8.48005378314090
C           37.78649831664055        4.35163767432103        8.62282046423023
C           35.93311913302866        5.72848543657591        7.77395317091751
C           35.38227349106069        6.71414976823657        6.80363145984502
C           34.10701227700794        6.97648040075329        7.25732948000042
C           33.91397208962863        6.14008296242293        8.45915727616396
C           32.56643948279441        5.44293190049664       10.45828216165889
C           31.39072447736935        5.59447260449134       11.30476096176604
C           31.52831153873314        4.70580850140804       12.35893925651284
C           32.81537184302038        4.02503942358616       12.10362434309283
C           34.69310600035050        2.60348011022657       12.85287956359322
C           35.26028461687148        1.67685261798930       13.80294308700947
C           36.55795292696375        1.51631769633652       13.39320511099678
C           36.75225070837128        2.23848167099160       12.17852245476240
C           37.94756292106480        2.24114725409312       11.45581199195904
H           38.75082231809787        1.59601123107564       11.79746937763176
C           37.21821157333437        5.20576532216689        7.71887734530679
H           37.83504703467145        5.50496270839328        6.88198905280245
C           32.77910665198650        6.16544173292981        9.27038146810872
H           31.98046421178448        6.82571803387193        8.95460791050357
C           33.43026104620191        3.14637687425103       12.97846117495865
H           32.88027235776627        2.87632164452829       13.87430041574557
C           40.06392201730044        4.31343507542267        7.34512274308170
H           41.05967068034300        3.86809252260848        7.44943980401848
H           40.17396898804244        5.40641713958543        7.34032600397060
H           39.64608075771259        3.99969967886894        6.37869219228154
C           40.68551926414283        2.24740021503138        9.74766220412105
H           40.72350086946815        1.40683558171459        9.03897912903745
H           40.73750101212401        1.84060183262318       10.76309048486029
H           41.57331360509432        2.87006126477228        9.57093600460467
C           36.01299978784802        7.23460403448763        5.51787105139718
H           36.79113501890672        6.55322350891100        5.15115149123478
H           36.47245504258648        8.22265469433881        5.66605725209113
H           35.25007841762078        7.33374615808206        4.73071496076726
C           33.14304265944458        7.91486084773132        6.71776909851209
H           32.10247443527986        7.58183066367841        6.73642218159211
C           33.37114698567423        9.17813495500224        6.19603431195823
H           34.36388401794083        9.62068397274790        6.14738011811242
H           32.55174763205572        9.80342246760967        5.83941781657885
C           30.26524983323727        6.55840223259735       10.97622775406556
H           29.94516687036943        6.42401009725844        9.93439700413983
H           30.60144582130679        7.59699457971382       11.09875383349242
H           29.39652119051446        6.38803088362000       11.62110389868591
C           30.72869417417121        4.46561795546092       13.52696182958571
H           30.95249928278384        3.55106149444599       14.08140775503247
C           29.73886888117175        5.24951863736004       14.05501049263904
H           29.44995702257881        6.19227933013119       13.60195546818825
H           29.21447769482156        4.96476501381345       14.96501924465100
C           34.60596221216139        1.09814375191315       15.03070409450843
H           33.59873950227418        0.72373330351279       14.80522667700618
H           34.51969210839246        1.86581621841539       15.81132398190948
H           35.19709021998073        0.26107366469404       15.42468010411503
C           37.64510973206547        0.83746249869388       14.17034103461863
H           37.80131195833861       -0.18440225542609       13.80384494395479
H           37.36679111394253        0.79839981522184       15.22916409989632
H           38.58002265379967        1.40012191126337       14.06761620250176
C           32.39445181510040        0.03737458347814        7.54092072454479
H           32.23047490597671       -0.70288835432881        8.33511704131270
H           32.59684126320629       -0.48634478257287        6.60305222084401
H           31.47695787489284        0.63019583743598        7.43981915015091
N           34.89554032629786        0.78861067860549        7.63740299212658
H           35.29395259186564        0.09599276285988        7.02493406992981
C           33.54057971061677        0.95032368176470        7.92969616587072
C           35.56380448826889        1.74331337597418        8.31700792433847
H           36.64129979012326        1.85866171318863        8.30428094530962
N           34.72617857378509        2.48062133788352        8.98384154414466
C           33.42125491982816        2.02278553347908        8.76172706723668
H           32.56447007505555        2.49830165688455        9.20899256105688
O           36.01681995493134        5.56788740999431       11.23251162184239
O           35.46848236865224        5.78402232407207       12.33928546695775
77
 energy: -118.980136341354 gnorm: 0.065216984000 xtb: 6.7.1 (edcfbbe)
Fe          35.36578143267533        4.21312092516815       10.35962560221311
N           37.22983693627803        3.82189779141289        9.73128274914784
N           35.02537061254389        5.42866722810881        8.71422297357778
N           33.40443895929538        4.52157067393510       10.96792546371180
N           35.60364301604413        2.90124440091532       11.85440256682819
C           38.16574930633699        3.01043420390020       10.30546474743816
C           39.39779231475564        3.04095349889091        9.52148468721061
C           39.15942164814294        3.88443218979519        8.47830605817915
C           37.79788293515030        4.35749374531942        8.62089052988408
C           35.92793994332099        5.73444715756248        7.74964892910327
C           35.37633105257368        6.69749826735187        6.81512055705414
C           34.11110604099202        6.98744360305273        7.26843467417909
C           33.90538739497904        6.16066609780589        8.46594138562137
C           32.55917107550039        5.44833921576071       10.44557038191934
C           31.38995737240481        5.59622857278254       11.28953107736122
C           31.54364235956298        4.72543149712282       12.34802774398676
C           32.82748363011554        4.05987177623027       12.10937437376913
C           34.69298093650703        2.60237051102350       12.83629760837228
C           35.27467595717021        1.69730490514739       13.80031446471810
C           36.57011270520935        1.51541235926677       13.40799635438683
C           36.75110590834908        2.24535309369093       12.17851521281352
C           37.94110211004338        2.25571654517175       11.44436493249755
H           38.74220447191341        1.61949651613513       11.79722623058086
C           37.21268168310596        5.21349357546872        7.70202359570650
H           37.83406323638373        5.51815455016957        6.87653586072851
C           32.77584441944021        6.16943958787822        9.26915115357992
H           31.98153490530360        6.83293689897518        8.96023241147551
C           33.42609869492330        3.14647005060211       12.96549409950078
H           32.88140888051933        2.86839375190855       13.85793945429418
C           40.06035714280685        4.30397876495169        7.35980089786033
H           41.04848765310501        3.86375776439289        7.45956518511388
H           40.16952607467028        5.38899361265064        7.34769038820909
H           39.64833318361348        3.99927567787518        6.39623497018932
C           40.65741808880162        2.25675801974015        9.75107849221550
H           40.71082355846642        1.41892160383208        9.05024646547321
H           40.71986390498929        1.85512273547420       10.75781811554437
H           41.54031457894263        2.87395278475290        9.57853454872579
C           36.00672347422331        7.21726678482997        5.55236666479787
H           36.77866488311259        6.54772047310612        5.17724343452525
H           36.46337660445273        8.19927623241399        5.69296819404683
H           35.25069858121874        7.32820892334937        4.77008280280877
C           33.14558100763517        7.93642378555546        6.71384658263524
H           32.11410827318627        7.58920974854170        6.74764028999738
C           33.37321506486779        9.12281132641023        6.22817314498793
H           34.35089014749197        9.57810361824338        6.16152945671432
H           32.57409148056111        9.75211398898046        5.85193330592461
C           30.27671717190696        6.54299502061431       10.97563712667230
H           29.95466715608167        6.42169679140059        9.94101268051907
H           30.60516969935472        7.57591133895259       11.10271537104052
H           29.41511395664444        6.37670391732530       11.61382690046216
C           30.72116523881969        4.48165117623182       13.52210144895836
H           30.95318290886929        3.56417924266672       14.05844343159974
C           29.76620576341934        5.23795167864145       14.03219396210973
H           29.46369003138124        6.17985717295502       13.60759890223430
H           29.23577601886228        4.95683365004191       14.93092708481792
C           34.61048514330153        1.11451031657325       15.01170216401032
H           33.61197133208071        0.74004590485597       14.78901497412747
H           34.51990285857515        1.86571576687180       15.79788479886645
H           35.19331255984314        0.28297356742943       15.40680540633774
C           37.64974606762161        0.82804399904907       14.16781235873449
H           37.80925245053145       -0.18595789170623       13.80628348713558
H           37.38073461470641        0.78795768425551       15.21951051981271
H           38.57763914515606        1.38557213027113       14.07208678663419
C           32.41207612849455        0.04049963564277        7.53505288209283
H           32.24129698884299       -0.69959407208944        8.31829449523273
H           32.60696837626568       -0.47942744729532        6.60389699791833
H           31.49838106739327        0.62258489310715        7.43465864034572
N           34.85771225909512        0.77699594649728        7.64793329912123
H           35.26553622845713        0.08745434006040        7.03448146458411
C           33.52487884177838        0.94096795047099        7.93580135424826
C           35.53331955210430        1.74213411196275        8.31839962260981
H           36.60332587902341        1.85099199193411        8.29406477540487
N           34.71984362593498        2.50246315159009        9.00051251482392
C           33.46355894802832        2.02170559292967        8.76740174221262
H           32.60542942967387        2.49283330184547        9.20945509179497
O           35.99502734626835        5.54341344216273       11.22868917698068
O           35.47268956979811        5.80415665909825       12.36770171894760
77
 energy: -118.985989445160 gnorm: 0.020274326432 xtb: 6.7.1 (edcfbbe)
Fe          35.37313517818914        4.23489731003219       10.36880784745587
N           37.23109087056228        3.82664855631830        9.71440349319278
N           35.02362517566054        5.43521504691823        8.71693882046288
N           33.41318013368146        4.54413925691977       10.96729328284078
N           35.60550945726231        2.90085531359738       11.85076373738303
C           38.15962054125566        3.01313526652943       10.28997832918834
C           39.38431488563239        3.03697792025138        9.50917529768574
C           39.15526503374890        3.88544377216471        8.46851601383295
C           37.79917413632306        4.36625619670050        8.60902442361348
C           35.92279643091854        5.73346077547663        7.74735554721246
C           35.36289981706437        6.69036906389409        6.82429408479436
C           34.10313383779479        6.97684818022258        7.28216098415167
C           33.90560596665647        6.16669452282973        8.47672381585419
C           32.56211664912191        5.45927721062298       10.44035889564680
C           31.39359902805067        5.59913777432748       11.28004415825608
C           31.56042032871748        4.73601933166370       12.33632693382986
C           32.84459950733098        4.08109649052660       12.10632677646766
C           34.69857832212338        2.60777366068527       12.82465939759801
C           35.28743260216378        1.71487000482833       13.79654735244235
C           36.58190423616370        1.52594743246592       13.40941715264911
C           36.75743504291690        2.25599994105959       12.17571220522537
C           37.93928900544050        2.27117301035006       11.43828540560051
H           38.74641771848596        1.65047090788077       11.80075642365668
C           37.20946741783340        5.22186311187193        7.69213665098957
H           37.82996056579096        5.53778252546710        6.86827339378033
C           32.77261181709145        6.18024644414625        9.27035919569682
H           31.98094807912790        6.84983479008387        8.96638853334798
C           33.43075131528826        3.15068984326181       12.95205961834714
H           32.87909496768079        2.85833049885492       13.83429877887077
C           40.06591170616871        4.29592158025038        7.36262391005200
H           41.04833351230754        3.84790198935862        7.47432960118448
H           40.17750082212710        5.37953521064781        7.35272277618484
H           39.65591469490555        3.99192050839073        6.39928201976363
C           40.63566478951632        2.26028469573936        9.75740274828056
H           40.69640452311929        1.41878958099818        9.06337936840462
H           40.68605334138677        1.87144116520930       10.76897961306551
H           41.51065520504640        2.88680799271413        9.58960057536986
C           36.00094381093498        7.20676660992279        5.57718192859502
H           36.76639503901628        6.52861005343121        5.20760131912713
H           36.46394048631591        8.18014065179456        5.73828309598861
H           35.24215379823354        7.32877709335178        4.80304226516584
C           33.12572806703474        7.90798688322935        6.73300059767982
H           32.09600844580746        7.56411590353030        6.78023862295731
C           33.38372185936846        9.10624531249868        6.20885203993567
H           34.36570120665525        9.54809451981695        6.17494391869778
H           32.58916952045409        9.74222896642581        5.84580794772813
C           30.27838030886404        6.53438852063363       10.96880540296319
H           29.96255256973451        6.42052340822932        9.93224574760877
H           30.60587736524926        7.56501139415304       11.10963845712127
H           29.41989090607193        6.35423348531914       11.60536409538040
C           30.73329684219349        4.47811096736104       13.50118425554234
H           30.96681088711185        3.55708777322057       14.02529721852178
C           29.77040320934281        5.23639950169518       14.01408341713466
H           29.48329068345806        6.19250236405326       13.61217811073711
H           29.23906148709677        4.94000697496094       14.90427295622119
C           34.61345135409439        1.13706040007089       14.99796167328523
H           33.61847386583690        0.76659166881306       14.75831116993486
H           34.51657345050659        1.88589314141846       15.78441786425231
H           35.19425430372105        0.30535590213380       15.39116935856729
C           37.65834235868534        0.81841309334672       14.15982159159524
H           37.81527084303451       -0.19462855058818       13.79217916964471
H           37.39796461771020        0.76630382917415       15.21340716270232
H           38.59218537542280        1.36691953823432       14.07125120499412
C           32.41446469001750        0.03862477477909        7.53080008336770
H           32.24312383725147       -0.71557509703559        8.29988748831589
H           32.62994688254302       -0.46712679594504        6.59475523553698
H           31.49990042231646        0.61488996576537        7.42275624704275
N           34.83675802256631        0.76712211259383        7.66475043961153
H           35.23446915789862        0.07207573060101        7.05273219888976
C           33.51131328731286        0.94185319952988        7.95772060865654
C           35.52332301137697        1.73448740352262        8.31781493974322
H           36.58846734901321        1.84053031194681        8.27511677446346
N           34.72156838600888        2.50420275392568        9.00714965897541
C           33.46835789582053        2.02589556489553        8.79062446013841
H           32.61700431025845        2.49841161112042        9.23480600075001
O           35.98339395972563        5.54101046959986       11.25035164812154
O           35.46964946327986        5.80640170520995       12.39448646192563
77
 energy: -118.988597634811 gnorm: 0.015353707166 xtb: 6.7.1 (edcfbbe)
Fe          35.37301055019974        4.25163841146227       10.37575836867093
N           37.22702509781737        3.84069435756663        9.70438682683860
N           35.02349789329153        5.44225640801082        8.73128214179114
N           33.42554105653925        4.56488221864640       10.96689059937544
N           35.61350715899120        2.90761444355784       11.84652016582354
C           38.15235399029061        3.02432998242175       10.27823574774623
C           39.37203318970879        3.03791854513041        9.49866297836910
C           39.15143642091976        3.88840391348360        8.45803495508609
C           37.79868968292438        4.37680813417663        8.59884671250584
C           35.91892787922406        5.73797823117563        7.75585369049711
C           35.35332180642672        6.68936793871829        6.83306084866059
C           34.09682662405780        6.97424224647462        7.29593676311554
C           33.90715709834735        6.17082518013416        8.48643072130441
C           32.56778848934356        5.47258155668337       10.43977616974172
C           31.39678163811565        5.60122036790985       11.27453277696525
C           31.57564112716978        4.74388127932382       12.32982697923339
C           32.86125187241734        4.09662160420190       12.10291173659432
C           34.70964450912050        2.61996026826727       12.81818406190182
C           35.30147817252870        1.73209390794913       13.79366045415054
C           36.59504242133169        1.54011942481497       13.40982232070825
C           36.76750567039688        2.27039844397745       12.17372062055904
C           37.94070628068744        2.29116583778484       11.43428553027078
H           38.75622679318360        1.68620130586724       11.80333829850410
C           37.20635250994751        5.23331964795352        7.68771802073864
H           37.82272606901161        5.55825792929991        6.86241332493079
C           32.77076684041771        6.19449026326602        9.27408894454817
H           31.98157344510040        6.86812076880471        8.97243724688795
C           33.43866301857948        3.15638609803436       12.94090309734760
H           32.87951952985482        2.85066375462965       13.81288597695294
C           40.07458320254074        4.28680841476655        7.35994726063958
H           41.05113633398587        3.82826250713615        7.48699758469718
H           40.19581417773495        5.36971029041996        7.34854947489011
H           39.67183850518956        3.98194175436881        6.39351723348867
C           40.61741143157071        2.26322895199023        9.76537025569386
H           40.68685715665352        1.41256090138137        9.08357065782085
H           40.64936722293340        1.88923700090847       10.78419730028862
H           41.49097973644772        2.89290040050849        9.60334803508059
C           35.99739181726898        7.20360661924019        5.59481372027892
H           36.75036742393490        6.51057816094809        5.22665978461217
H           36.47911971583953        8.16416167724657        5.77753460514411
H           35.23988619873632        7.34829058707167        4.82411862751236
C           33.11178356253625        7.89049439770087        6.75500398417048
H           32.08278074666646        7.55616642954197        6.80713321768880
C           33.37896301523743        9.08647619941494        6.23386432479994
H           34.37683495835220        9.48069103101965        6.16734156508435
H           32.59433729518771        9.70528283916698        5.82887568235375
C           30.27427646794920        6.52539218659876       10.96205909917370
H           29.97062192453358        6.42243769011875        9.92024572306726
H           30.59206742977056        7.55738210639495       11.12138784937708
H           29.41349647139871        6.32364334827972       11.59043324633294
C           30.74627856504224        4.47412663562973       13.48453952240254
H           30.96388629307820        3.53932816600240       13.98710872385075
C           29.78454304772164        5.23865735224551       14.00321257508137
H           29.51001873569514        6.20201762125723       13.61201824598941
H           29.23462600875819        4.91579056006612       14.87297451428216
C           34.61466093909479        1.16106025203771       14.98674591747513
H           33.62155490572095        0.79719076534078       14.72754004409464
H           34.50956217530572        1.91223828819583       15.76995753463970
H           35.18988077548682        0.32796114544248       15.38479576728096
C           37.66821752959194        0.81033852892375       14.14740270999445
H           37.81363875907880       -0.19941869361577       13.76087999376082
H           37.41351931305002        0.73902019154378       15.20303741985965
H           38.61101116502930        1.34775382391764       14.06560433452242
C           32.40972005900978        0.03514483470243        7.53057865875651
H           32.23493619109224       -0.74187650413965        8.27768634766674
H           32.65884256050033       -0.44613093216808        6.58633116496228
H           31.48914961815325        0.59995842868754        7.41080831143709
N           34.81716121425718        0.75832449144330        7.68195677609066
H           35.20211854594291        0.05462850301899        7.07304058219078
C           33.49528595264860        0.94056919285454        7.98581897757553
C           35.51659779557030        1.72396970479346        8.31837526983420