87
 energy: -124.442058173554 gnorm: 0.296976264340 xtb: 6.7.1 (edcfbbe)
Fe          11.91200000000000       -3.46700000000000       56.61399999999999
N           11.42200000000000       -2.64200000000000       54.88900000000000
N            9.98500000000000       -3.27600000000000       57.21700000000000
N           12.31900000000000       -4.40000000000000       58.37600000000000
N           13.83200000000000       -3.72600000000000       55.99700000000000
C           12.23200000000000       -2.52700000000000       53.81000000000000
C           11.52800000000000       -1.84400000000000       52.79399999999999
C           10.29200000000000       -1.53300000000000       53.24600000000000
C           10.25400000000000       -2.03700000000000       54.56099999999999
C            9.01800000000000       -2.54700000000000       56.62000000000000
C            7.81200000000000       -2.53700000000000       57.41900000000000
C            8.08700000000000       -3.31100000000000       58.53400000000000
C            9.43300000000000       -3.74000000000000       58.36300000000000
C           11.42800000000000       -4.77000000000000       59.35400000000000
C           12.05000000000000       -5.62600000000000       60.39399999999999
C           13.37000000000000       -5.74000000000000       59.91700000000000
C           13.48300000000000       -4.96600000000000       58.70400000000000
C           14.83700000000000       -4.34800000000000       56.67599999999999
C           16.04100000000000       -4.50000000000000       55.86299999999999
C           15.67600000000000       -4.01900000000000       54.63800000000000
C           14.31000000000000       -3.51500000000000       54.76599999999999
C           13.55100000000000       -2.94400000000000       53.76900000000000
H           14.05900000000000       -2.80100000000000       52.81600000000000
C            9.18100000000000       -1.99300000000000       55.38200000000000
H            8.32500000000000       -1.43700000000000       55.00299999999999
C           10.10700000000000       -4.42900000000000       59.30300000000000
H            9.50900000000000       -4.76400000000000       60.14900000000000
C           14.62300000000000       -4.91000000000000       57.92100000000000
H           15.49700000000000       -5.38900000000000       58.35900000000000
C           12.13000000000000       -1.48300000000000       51.48300000000000
H           12.38300000000000       -2.52200000000000       51.18200000000000
H           13.03800000000000       -0.99700000000000       51.90100000000000
H           11.77800000000000       -0.92500000000000       50.58900000000000
C            9.23500000000000       -0.72900000000000       52.52499999999999
H            9.05800000000000       -0.03500000000000       53.37499999999999
H            8.43900000000000       -1.50400000000000       52.52100000000000
H            9.20800000000000       -0.15100000000000       51.57700000000000
C           16.42200000000000       -4.21800000000000       53.30500000000000
H           17.11900000000000       -3.38800000000000       53.55100000000000
H           16.30600000000000       -4.27600000000000       52.20200000000000
H           16.84400000000000       -5.17000000000000       53.69300000000000
C           17.28000000000000       -5.05500000000000       56.27000000000000
H           17.38000000000000       -5.96200000000000       55.67799999999999
C           18.54100000000000       -4.49000000000000       56.47299999999999
H           18.65000000000000       -3.56100000000000       57.05199999999999
H           19.44000000000000       -4.96700000000000       56.05600000000000
C           14.48500000000000       -6.69900000000000       60.36800000000000
H           15.24500000000000       -5.89800000000000       60.49000000000000
H           14.65800000000000       -7.21400000000000       59.39900000000000
H           14.58600000000000       -7.42200000000000       61.20600000000000
C           11.43300000000000       -6.23000000000000       61.51899999999999
H           10.42800000000000       -6.51600000000000       61.18200000000000
C           11.73400000000000       -6.11100000000000       62.85500000000000
H           12.74600000000000       -5.82400000000000       63.17600000000000
H           10.96600000000000       -6.30200000000000       63.61899999999999
C            7.20800000000000       -3.64000000000000       59.76000000000000
H            6.98800000000000       -2.56700000000000       59.94800000000000
H            7.16800000000000       -4.19000000000000       60.72400000000000
H            6.44700000000000       -4.04600000000000       59.05899999999999
C            6.53100000000000       -1.75000000000000       57.14200000000000
H            6.52400000000000       -1.31300000000000       58.16300000000000
H            5.90200000000000       -2.66600000000000       57.13800000000000
H            6.12000000000000       -1.00400000000000       56.42799999999999
C           11.91500000000000       -8.59300000000000       54.43800000000000
H           12.15600000000000       -8.51700000000000       53.35599999999999
H           11.11300000000000       -9.35000000000000       54.57699999999999
H           12.82900000000000       -8.90200000000000       54.98899999999999
N           10.34400000000000       -6.63200000000000       54.43200000000000
H            9.76000000000000       -6.99600000000000       53.70700000000000
C           11.44900000000000       -7.26800000000000       54.93800000000000
C           10.18600000000000       -5.47700000000000       55.05500000000000
H            9.38700000000000       -4.76700000000000       54.84599999999999
N           11.14900000000000       -5.35000000000000       55.95100000000000
C           11.95100000000000       -6.45800000000000       55.89900000000000
H           12.80700000000000       -6.56700000000000       56.55299999999999
C           10.63600000000000       -0.34000000000000       59.45900000000000
H           10.56500000000000       -0.13700000000000       60.54899999999999
H            9.76800000000000       -0.96400000000000       59.15699999999999
H           10.60800000000000        0.62800000000000       58.91500000000000
C           11.94200000000000       -1.07600000000000       59.14500000000000
H           11.93800000000000       -2.03200000000000       59.70900000000000
H           12.78200000000000       -0.45300000000000       59.51800000000000
S           12.21400000000000       -1.43300000000000       57.40100000000000
C           13.86500000000000       -0.89000000000000       57.27000000000000
H           14.53200000000000       -1.45700000000000       57.95400000000000
H           13.93700000000000        0.18600000000000       57.53500000000000
H           14.23500000000000       -1.03400000000000       56.23300000000000
87
 energy: -124.567431551106 gnorm: 0.166149516970 xtb: 6.7.1 (edcfbbe)
Fe          11.89298081892215       -3.47463049995630       56.63862528852070
N           11.42444277919991       -2.64713863045039       54.89466546324708
N            9.99395708536160       -3.26874719281310       57.22250393705297
N           12.31764243616305       -4.40752034950834       58.38750222162832
N           13.81259773585447       -3.74050948134917       56.00572727031329
C           12.23472215532218       -2.52247946080316       53.81241693645629
C           11.53083711820576       -1.83122411949788       52.77658379641542
C           10.30414128169047       -1.52064803689803       53.23067763470143
C           10.25344336335924       -2.04015478895175       54.56064537657792
C            9.02140096912632       -2.54809404864644       56.62135733689160
C            7.83044265994504       -2.53111022851839       57.42062717096493
C            8.10666759738120       -3.30655927615243       58.52769012209543
C            9.45007223452319       -3.73676294472826       58.36760945729016
C           11.43616421836553       -4.78435740025123       59.35769415256937
C           12.07414800184891       -5.62473149977389       60.37887913761757
C           13.36638642344763       -5.75912174074743       59.92433215217834
C           13.49067919150008       -4.98132529160680       58.70949365632853
C           14.82380893360933       -4.33834682766768       56.69346685733123
C           16.01556004230825       -4.47336005133042       55.86821991262920
C           15.63131812459511       -4.02901460469653       54.62840243079206
C           14.28550265323388       -3.52362834843612       54.76341283681340
C           13.54994304874957       -2.94328905352489       53.75404650687556
H           14.06245888935417       -2.80210965579269       52.80978923959113
C            9.16142401769275       -1.98091974449083       55.37974135716738
H            8.30919124061163       -1.43224761078324       55.00166323046842
C           10.11101530409944       -4.44553762229322       59.32825477090417
H            9.50701793263471       -4.77060979869952       60.16448961975436
C           14.64250476749096       -4.90931115881884       57.93767190386634
H           15.51318684057506       -5.39387789118572       58.35869562545006
C           12.17175487385402       -1.50310726634217       51.48003324302832
H           12.42112169010904       -2.51447781176702       51.13842749628625
H           13.06872104918939       -0.99382213905426       51.85209978594256
H           11.75089128543587       -0.93525350900170       50.63781893864740
C            9.21127924354229       -0.73625386961549       52.56337050917057
H            9.00931418181139       -0.01280949218945       53.36218027641497
H            8.40417590486445       -1.47806127055119       52.51366105780301
H            9.25571409669275       -0.19163301239253       51.60600929814021
C           16.45799236475671       -4.21433200073570       53.35382773581768
H           17.17275778087797       -3.39924142211669       53.52235556225385
H           16.24515436811414       -4.25893535299624       52.26830365735112
H           16.90178619915903       -5.17359256187973       53.65069194057747
C           17.30727817368000       -5.04074076643970       56.20665917398276
H           17.39430647863512       -5.99264515001220       55.67830028311734
C           18.51711139121993       -4.48591296112767       56.46265402934911
H           18.63699107775202       -3.56735790732933       57.03326617800165
H           19.42299934932584       -4.97372404514937       56.10181048132567
C           14.50106460954387       -6.67167355009480       60.34509024980737
H           15.28884912616627       -5.92356380151139       60.49362407631332
H           14.68882044154649       -7.22673719207645       59.41561270693573
H           14.53110885564177       -7.38097391756292       61.18814684888184
C           11.41171534150318       -6.18963470906042       61.52448521342614
H           10.41833904667341       -6.52029846117335       61.21115636981101
C           11.73084542028613       -6.11074666451135       62.83101006923161
H           12.72597001713916       -5.81936563710018       63.16158376630604
H           10.98963643506006       -6.32310108819122       63.60075446829099
C            7.17741133612255       -3.60399633795343       59.70900959137245
H            6.93404320607787       -2.56630606757474       59.97291317749930
H            7.23657918957329       -4.17842900055459       60.65636435652532
H            6.38095212568566       -4.04113306503428       59.09412064176016
C            6.52808630937537       -1.78233617794836       57.18722399660313
H            6.46533658676509       -1.29795643524944       58.17027182334054
H            5.84963568652574       -2.64496589107368       57.15018660641299
H            6.19521736084632       -1.04588464816925       56.43147133528664
C           11.91380098965797       -8.59690043255511       54.43432073000534
H           12.15453229132118       -8.52564006032046       53.36534494966643
H           11.12653903959148       -9.34950601347735       54.57284897588470
H           12.81383324116565       -8.90063697005926       54.98041096938817
N           10.34532252554765       -6.64425953915499       54.42742996321088
H            9.75578356209386       -7.00552350766221       53.69988934587568
C           11.44945928889614       -7.27809748214473       54.93417641980498
C           10.19955302960510       -5.47497575863678       55.06077468624368
H            9.40523212814306       -4.77230769394474       54.85677098798724
N           11.16479463538671       -5.33171034824080       55.94292462068540
C           11.94572517737417       -6.45003173416067       55.89328693571841
H           12.79569484588405       -6.56144567902135       56.54430038782954
C           10.63675288527634       -0.34186564295790       59.45471673891975
H           10.56517513833777       -0.14079625970992       60.53222078155881
H            9.77739967430371       -0.95332360719646       59.15722035090737
H           10.60419500944227        0.61480760287018       58.91911604893261
C           11.94150960099199       -1.07852615470078       59.16321820522460
H           11.94305114585955       -2.03192474932527       59.70698982023451
H           12.78029483928677       -0.46261291606212       59.51503764553664
S           12.19597136482353       -1.40361539232656       57.39254203769385
C           13.88276512978232       -0.88195421761852       57.27413026077699
H           14.53173535330047       -1.45627789129926       57.94810080216179
H           13.94638950967715        0.18328991259962       57.52935058967759
H           14.22887112552741       -1.03179492298152       56.24449739856759
87
 energy: -124.641266463186 gnorm: 0.076049777195 xtb: 6.7.1 (edcfbbe)
Fe          11.86863710513783       -3.48878536019727       56.65396703310459
N           11.42213011701668       -2.65023595174217       54.89745380932517
N           10.00231627848143       -3.26045684512990       57.23253929464264
N           12.31539355071129       -4.41410960339044       58.39170843312852
N           13.79584768705229       -3.75517856552403       56.01150884602807
C           12.23439253296630       -2.51793734315221       53.81654691753644
C           11.53382038902083       -1.81668181632479       52.76054916000874
C           10.31157559632137       -1.50688647169842       53.21883659373485
C           10.25041603627289       -2.04356800527442       54.56196742778786
C            9.02356847216653       -2.54633404488139       56.62356131084346
C            7.83921504675087       -2.52538227596769       57.42522227550587
C            8.11635883721577       -3.30198133447514       58.52979868109581
C            9.46512144829390       -3.73080734685080       58.38040791124990
C           11.44402207271162       -4.79386249658343       59.36058132842603
C           12.09702008792364       -5.63079236150981       60.36268995299452
C           13.37107793995020       -5.77702421665903       59.92750800121819
C           13.49859053885486       -4.99242890622426       58.70819988503145
C           14.81148406086015       -4.33336122983071       56.70528234548077
C           15.99327310822589       -4.45462199459287       55.87533877660180
C           15.60229841740228       -4.03964495239121       54.62059662699854
C           14.26426091109595       -3.54228273204388       54.75727848591291
C           13.54604313151764       -2.94683499159051       53.73728022303026
H           14.06530927755199       -2.80473006671503       52.80294762900650
C            9.14308269194535       -1.96720667782149       55.37602249755602
H            8.29260075284009       -1.42717526709561       54.99929534403918
C           10.11242224314265       -4.45880280560887       59.35661942145104
H            9.50320208178332       -4.77771582035293       60.18267800827746
C           14.66162837825296       -4.90761933811357       57.95346525390416
H           15.53210607633393       -5.39432514537974       58.35961587526351
C           12.21356345032015       -1.52211521036678       51.47857244122041
H           12.46279416937978       -2.50628729511449       51.09157927921437
H           13.10655749287962       -0.99092058979573       51.79756513121561
H           11.71581219539275       -0.94499310439547       50.69052339330143
C            9.18825085776505       -0.74420639036765       52.60163553649920
H            8.95851429805991        0.00894093797376       53.35113795279953
H            8.36850204496986       -1.45458674479164       52.50931304618236
H            9.31271172376528       -0.23511712448047       51.63422015412677
C           16.48921749041486       -4.20799839804147       53.40749622051428
H           17.22063478732600       -3.40768783342063       53.50116591467493
H           16.16614888053366       -4.23576842804976       52.34554504144648
H           16.95482380531204       -5.17155506008576       53.61948143764055
C           17.32519544526418       -5.03409637316031       56.13918312130203
H           17.39724228700206       -6.01578822097463       55.66484263789224
C           18.48988521768494       -4.48637956385359       56.46055584940058
H           18.61604156777063       -3.55903110425430       56.99991510903282
H           19.40856617238902       -4.98476007292692       56.16089140732058
C           14.51722287536619       -6.64756817740316       60.32579252160772
H           15.33246980375551       -5.94872950394992       60.50068163827783
H           14.72436332669644       -7.24006880144746       59.43198199968354
H           14.46609877790705       -7.33756645028017       61.17885646406047
C           11.39156749304319       -6.16130697159271       61.52368368491244
H           10.40440666626612       -6.51473830088309       61.23761560703414
C           11.73006021478319       -6.11034967527261       62.80625213346337
H           12.70943933224548       -5.80512600512571       63.14666958746499
H           11.01410667674832       -6.34941437949756       63.58339969194549
C            7.14807774465908       -3.56717274349237       59.65734937801702
H            6.88023779002725       -2.56430694181637       59.99185499097638
H            7.32115819660966       -4.16782613227304       60.57853684939392
H            6.31875096943635       -4.03272092682206       59.12538392063756
C            6.52685124803516       -1.81529679765582       57.23143229504266
H            6.40872827025639       -1.28735349348297       58.17857803568176
H            5.80266752649796       -2.62780984565679       57.16342398454365
H            6.28745841276883       -1.09112404726854       56.42922120450795
C           11.91306261317952       -8.60132782127043       54.43303922269460
H           12.15293480328145       -8.53300590492887       53.37196470177802
H           11.13603798134950       -9.35251257302483       54.56955571817603
H           12.80445907402265       -8.90177318828960       54.97524704816374
N           10.34514778900031       -6.65378658229391       54.42617283633751
H            9.75058402383310       -7.01093491819271       53.69736211738859
C           11.45000864940306       -7.28574822778756       54.93330943494408
C           10.21557213352279       -5.47075365891553       55.06278448586256
H            9.42356138332012       -4.77464617357770       54.86397014869105
N           11.18351117998565       -5.31500777957173       55.93171680629704
C           11.94621994234286       -6.44087779543208       55.88390278580031
H           12.79110753203718       -6.55814183422675       56.53338849057094
C           10.63595210179402       -0.34381207969078       59.45563487833163
H           10.56112528647641       -0.14203585955566       60.52403108232642
H            9.78499083552321       -0.94836544479554       59.15513336395526
H           10.60501548829058        0.60259571366175       58.91990175176624
C           11.93938647633209       -1.07846307346208       59.18089720181813
H           11.94647477525558       -2.03390606492002       59.70167205118720
H           12.77933501557317       -0.47012771193606       59.51414172816292
S           12.18268649304675       -1.38230022806984       57.38603186578761
C           13.90467195887640       -0.87324834222536       57.27556223143479
H           14.52966719295726       -1.45852670630632       57.94443057549472
H           13.95860909553877        0.18341483779232       57.52539486921572
H           14.22553609592530       -1.03110484583273       56.24994959359540
87
 energy: -124.675153853293 gnorm: 0.050658686409 xtb: 6.7.1 (edcfbbe)
Fe          11.85272944997819       -3.49544501055108       56.66194843370406
N           11.41744565124786       -2.65280563492553       54.89949724559686
N           10.00464252365516       -3.25173574616475       57.24627976737389
N           12.31444679618802       -4.42177428740366       58.38656456506737
N           13.78104191553970       -3.77548642263973       56.00967542985146
C           12.23178809821038       -2.51835390999972       53.82153827359213
C           11.54066198843469       -1.80841590256293       52.75621581411637
C           10.31431594069784       -1.49961724190163       53.22023578751740
C           10.24812018234657       -2.04529545864588       54.56713973276668
C            9.02397610563978       -2.54089797355921       56.62901057580947
C            7.83900838344309       -2.52295856172532       57.43390190338734
C            8.11450410932713       -3.29495676024466       58.53604515199213
C            9.47084673352378       -3.72233597621035       58.39811184608143
C           11.44712000331744       -4.80014955654318       59.35779143959313
C           12.10557279350628       -5.63530291253972       60.35332569848973
C           13.38306497049095       -5.78309551544001       59.92142426765067
C           13.50424192384737       -4.99656710900544       58.70078516960366
C           14.80336175211374       -4.33513067860884       56.70833766537683
C           15.97829351122783       -4.45545579201669       55.87733906743927
C           15.59480347856587       -4.04487655483625       54.62263110265342
C           14.24809923149399       -3.56552872090626       54.75092955970822
C           13.53805863261072       -2.95774525880155       53.72840716001361
H           14.06378043565356       -2.81136675851230       52.79862834289715
C            9.13446434944500       -1.95932446591052       55.37715567042226
H            8.27918444077318       -1.42556385581474       55.00008830591860
C           10.11289341000649       -4.46317884673569       59.37539228954116
H            9.50412879691470       -4.78267979765533       60.20185308336654
C           14.67420438523537       -4.90370522900839       57.96299517501524
H           15.55144514217065       -5.38639338283373       58.36167606981030
C           12.23688267770281       -1.53096393705302       51.47711237455664
H           12.50191377503806       -2.49388178906007       51.04228479033497
H           13.14468815643542       -0.98619411676909       51.73615938884156
H           11.67756504112622       -0.95099974952358       50.73428198606957
C            9.17654688264489       -0.74999752607022       52.62473554118137
H            8.90716066247005        0.03063082803184       53.33665878398755
H            8.33492160487777       -1.43217857142597       52.50512189624320
H            9.36806748774881       -0.27332045171593       51.65375494825680
C           16.50162290159847       -4.19663304513534       53.44327775493205
H           17.25862446898571       -3.41207489879009       53.48324104578977
H           16.08587623044628       -4.20377237051419       52.41524597522880
H           17.00424702745562       -5.16006670942431       53.58556157269623
C           17.32014450124700       -5.04239621746704       56.09170481970563
H           17.39250228537153       -6.03252748247072       55.64331272062198
C           18.46632654872750       -4.48805612275727       56.46582615652652
H           18.57629243998035       -3.53457639210577       56.96005327667945
H           19.40191107142662       -5.00612289977342       56.24533147180025
C           14.53115353503776       -6.63520251532680       60.32183303275217
H           15.37798540768376       -5.97637322753550       60.51649586567103
H           14.76811044398510       -7.25962103181039       59.45543000994424
H           14.39809320290770       -7.29863423399354       61.18732571364339
C           11.37774045086284       -6.14597009297153       61.51477493270291
H           10.38807800775476       -6.50506704889802       61.25454650535422
C           11.73663117564517       -6.11101948404908       62.79030721383300
H           12.70662639863193       -5.78168298200932       63.12752705742108
H           11.04146731639288       -6.38918948567333       63.57272877505222
C            7.12861015611764       -3.54291821349757       59.62581891647027
H            6.82464175317457       -2.56557735058841       60.01070146907637
H            7.39922589475890       -4.15984276217076       60.50860936694936
H            6.26312799118058       -4.01985249542436       59.15719128602322
C            6.52690589901340       -1.83695143816552       57.25697989186516
H            6.35103153412097       -1.27776185651387       58.18137181119285
H            5.75906127700478       -2.61042255796784       57.17480525032361
H            6.37842238648965       -1.13142446473740       56.41874301096324
C           11.91160680513764       -8.60645225516999       54.43379329666671
H           12.15185608686633       -8.54155480474508       53.37319512685605
H           11.13927095005791       -9.36160394976889       54.56852317801716
H           12.80222278327591       -8.90706089782387       54.97478287048929
N           10.34509523323800       -6.65733979889259       54.42803849143430
H            9.74495638004027       -7.01347448604749       53.70220368328797
C           11.45138273196733       -7.28905543586906       54.93345323901180
C           10.23195920738421       -5.46424686600675       55.05714680313494
H            9.44008612814781       -4.76959187703147       54.86487493114296
N           11.20772021903494       -5.30060556834583       55.91409582371018
C           11.95738234925503       -6.43395293125355       55.87063721512010
H           12.80037530295279       -6.55636490515136       56.51906135834096
C           10.63612163225683       -0.34684192878371       59.45807944825508
H           10.55222779956888       -0.14191547315706       60.52358738973615
H            9.78803408970527       -0.95011445492683       59.15021095640683
H           10.60782878754636        0.59577665541782       58.91759531706933
C           11.93921413810111       -1.07873253417457       59.19111668950379
H           11.94992555902367       -2.04235506363425       59.69460177566722
H           12.78271125236327       -0.47615436779519       59.51898078348913
S           12.17722158085956       -1.36194040224447       57.38277198164166
C           13.92036467062075       -0.86512262319376       57.27473965184779
H           14.52906381346071       -1.46472546443016       57.94261852240290
H           13.97956741724280        0.18949317814800       57.52289425693621
H           14.22635335224230       -1.03127773005902       56.24821800278445
87
 energy: -124.689555164490 gnorm: 0.038915083227 xtb: 6.7.1 (edcfbbe)
Fe          11.84581677366321       -3.50112819223397       56.66334177710040
N           11.41420559641548       -2.65400224930356       54.90295878742989
N           10.00204110313457       -3.24234405986858       57.26324032757837
N           12.31391591853295       -4.42893044934688       58.37748060983263
N           13.77107751605499       -3.79772054946667       56.00402141207316
C           12.22876162745231       -2.52153417059872       53.82583921415961
C           11.54806935804200       -1.80414324594706       52.75811606473144
C           10.31598922837396       -1.49597861469385       53.22761546282126
C           10.24763660693485       -2.04454400357247       54.57414977138200
C            9.02208850849965       -2.53325742007073       56.63833008144685
C            7.83327226548947       -2.51986740780176       57.44435803639161
C            8.10573893132445       -3.28459040096554       58.54626093078527
C            9.46918484353749       -3.71159504587815       58.41900608479983
C           11.44897355070369       -4.80701301530980       59.35085604820485
C           12.11086493953885       -5.63852414624365       60.34540658122275
C           13.39533376832669       -5.77909944533950       59.91485609280893
C           13.50700677280618       -4.99822533901510       58.69345882818010
C           14.79794661128727       -4.34452135443780       56.70695230691277
C           15.97073946618721       -4.46509666130093       55.87756252316478
C           15.59507941471927       -4.05172984873139       54.62589170859339
C           14.23745578298329       -3.58833669983730       54.74442386600590
C           13.52963780141709       -2.97387682621389       53.72398496899583
H           14.05677962561964       -2.82434043405654       52.79473987461024
C            9.13141453223155       -1.95520635863893       55.38336122087394
H            8.27077580149993       -1.42703185442391       55.00471398870378
C           10.11424714832170       -4.46195218291704       59.38817125388066
H            9.51374938801078       -4.78386286240785       60.22225500600332
C           14.68215667066224       -4.90112313211970       57.96829668283080
H           15.56896496350351       -5.36856561670416       58.36809155228187
C           12.24125766668459       -1.52989863328157       51.47304706387417
H           12.51913201606063       -2.47506775832175       50.99963932266147