87
 energy: -124.720031746677 gnorm: 0.000035894546 xtb: 6.7.1 (edcfbbe)
Fe          11.91348780875303       -3.51709276474694       56.52563690896580
N           11.44873219738380       -2.59333568323745       54.81575107939452
N           10.04709771877962       -3.22026701495505       57.19057176823916
N           12.36214500989951       -4.47871827298066       58.23124116116274
N           13.76738981466663       -3.85738299847759       55.84540746138372
C           12.25636940622264       -2.41752519962109       53.73803477318021
C           11.56570774799969       -1.69090302776897       52.69400997097819
C           10.32122461733585       -1.42875687226891       53.17214884003453
C           10.26692343085602       -2.00705211948756       54.49767323132737
C            9.04460246565397       -2.56594546876514       56.54763555819689
C            7.83966909074438       -2.56367448694732       57.34765476037511
C            8.13875323405240       -3.24058826402962       58.48885257071510
C            9.52209076306749       -3.64404012908827       58.36997040428319
C           11.52160472276564       -4.75218275922205       59.26071310689426
C           12.20398788850101       -5.50686934653983       60.29361203066522
C           13.47829845462178       -5.70983592047125       59.83296606031902
C           13.55001089562229       -5.06641602815859       58.54671677351858
C           14.78535601162016       -4.46311710080614       56.51108971663157
C           15.98232031943480       -4.49285336365800       55.69363509995663
C           15.63306544091449       -3.92660633077896       54.49741744616710
C           14.25742140183280       -3.52272154204950       54.62357504783505
C           13.55886033854915       -2.85782812832405       53.63077183656092
H           14.08002892546692       -2.65815239559834       52.70701051125477
C            9.14062303802591       -1.98143638060288       55.29827988390459
H            8.26544377906153       -1.47964784826116       54.91431318722033
C           10.19931440984013       -4.35515515850567       59.34198636990521
H            9.65080307585422       -4.62212670014943       60.23217066137759
C           14.68602808059151       -5.05559148354639       57.75509300542386
H           15.55947852836969       -5.56709851141492       58.12800127232875
C           12.16912094253722       -1.33054698574765       51.38001976996555
H           12.48690398697372       -2.22586437488586       50.84497545822471
H           13.04269813671293       -0.69430480120285       51.52285000764419
H           11.45435477971295       -0.79606054702854       50.75901077812390
C            9.19177564439988       -0.70365227267067       52.52399689401383
H            8.89579434770144        0.15642910493840       53.12470444617723
H            8.32426541426059       -1.35608172741282       52.41769896828649
H            9.47583773360611       -0.34950824292502       51.53611865527864
C           16.48768883877251       -3.69325334896651       53.30004328916952
H           16.62063000279896       -2.62489299013493       53.12558591602634
H           16.02812752946645       -4.12481306748899       52.41051965266990
H           17.46941867210793       -4.13977995603862       53.43745663418715
C           17.28549177717002       -5.00191631750427       56.06893650525125
H           17.82478900840582       -5.52019864888941       55.28299295036090
C           17.86629105621668       -4.84513230610401       57.25315104540714
H           17.39983817835481       -4.29149675735292       58.05056913178635
H           18.84484034481362       -5.24649032581485       57.45874431081383
C           14.57841275040938       -6.48902909077727       60.46493824571959
H           15.27996883905877       -5.82890678858282       60.97832319229205
H           15.13405008139766       -7.05099890302754       59.71560113747592
H           14.16995472123319       -7.18726223072165       61.19281104328511
C           11.59568740634447       -5.95403920987049       61.52672579291810
H           10.54083070688351       -6.19652167297716       61.46756837092921
C           12.21868983334074       -6.07575422354332       62.69450997522802
H           13.25186844037670       -5.80462864849118       62.82448714169283
H           11.70449643637228       -6.42887896938512       63.57304408030202
C            7.27338183480974       -3.53853088137770       59.66469763236156
H            7.69625881855833       -3.10471331651130       60.57124291918682
H            7.18639141113530       -4.61505292191712       59.81450016051092
H            6.27524458914567       -3.13093528294942       59.52396726403472
C            6.55976020979932       -1.91910110934518       56.93798578335169
H            5.80078053350633       -2.04406042619345       57.70634417620358
H            6.18592290937562       -2.35799515840367       56.01233982353031
H            6.70522865555071       -0.85159700493548       56.77021127462462
C           11.47391273043029       -8.83152244005249       54.88425136876684
H           11.52698788782688       -9.04349714800117       53.81639717458481
H           10.66967614655642       -9.43080878743966       55.31108411211638
H           12.41086365173813       -9.12816114233538       55.34509678004085
N           10.13007994688180       -6.73056766192153       54.65378513158748
H            9.38639777562060       -7.14419334566774       54.11575350597717
C           11.23833575662877       -7.38531603070013       55.12410509681118
C           10.22081635858043       -5.43936888221280       55.04366060066360
H            9.49111772386583       -4.69008420825916       54.81631988459348
N           11.31771030929962       -5.23725381419028       55.73155976530673
C           11.96146129759413       -6.43767052205465       55.78994732946835
H           12.89500859107640       -6.54008171412446       56.30290747868200
C           10.54856910320576       -0.19978682795300       58.78277108891265
H           10.03308163209621       -0.03680274212883       59.72721489443706
H            9.86307762100068       -0.68004473350918       58.09096410089562
H           10.83839327509570        0.76298958615245       58.36854858415742
C           11.77103105078717       -1.06966438459600       59.00198182592846
H           11.49919660903871       -2.03385111640495       59.42800349539905
H           12.48941236956970       -0.56775435556214       59.65009800533593
S           12.62710458927857       -1.37852813938569       57.40291163904111
C           14.30571110189701       -1.61417577357303       58.06372080623174
H           14.31250310960277       -2.44709766962407       58.75953322143254
H           14.62712181988620       -0.69604179488564       58.54867205667865
H           14.95179635458224       -1.83422564691511       57.22109912776577
