87
 energy: -124.720517593140 gnorm: 0.000027051336 xtb: 6.7.1 (edcfbbe)
Fe           2.96554059480940       20.97874098168209       13.00871167173439
N            4.34995724643464       19.85933380782656       12.10446134903186
N            3.60901373693477       20.33106351890867       14.79165041469854
N            1.57606399211649       22.10354150379776       13.92514988034508
N            2.37268265032380       21.69274155717071       11.23181321271706
C            4.57257204489393       19.76138134639801       10.76845567371048
C            5.62760000008543       18.80907911012777       10.49399772385694
C            6.03821422514514       18.33772078651917       11.70035096574046
C            5.22887825298901       19.00975585532503       12.69406397972589
C            4.62260161057799       19.45701754692752       15.02655591695597
C            4.81185413683339       19.26290247189280       16.44712063835483
C            3.88506800142620       20.04337700419693       17.06511206485531
C            3.14390712086968       20.70236335481341       16.01301986062530
C            1.36604250796635       22.21630299691764       15.26102603748517
C            0.25595215903142       23.10858021312504       15.53203470745303
C           -0.17368007672872       23.55815820156793       14.31126540125717
C            0.67088586632714       22.92864283203181       13.32918116858411
C            1.38881237953134       22.60015899790773       11.00265766682234
C            1.26646179394978       22.87578536104718        9.58416027561528
C            2.22302815858759       22.11184756706914        8.96947773146963
C            2.89457140297447       21.38427450310654       10.01562544961397
C            3.91136499346390       20.47287067685828        9.78927684814813
H            4.20535585825856       20.29983836259728        8.76543195357908
C            5.37214474543789       18.81909403193662       14.05535716142295
H            6.12862621674752       18.12380964376218       14.38625810178937
C            2.09142820874986       21.56740609433625       16.24335400209063
H            1.81511440105231       21.74816764085121       17.27074347971130
C            0.57444061208959       23.16132193939436       11.96740192856517
H           -0.19737530758700       23.83840844520619       11.63456658188170
C            6.11418909477709       18.46330213509028        9.12867341868655
H            6.50406397994833       19.34800719168678        8.62431481973581
H            5.30128415501635       18.06042310064321        8.52451045555224
H            6.90621766523229       17.71994087501536        9.17652302020178
C            7.09502728357360       17.33490141854670       12.01492392067518
H            6.67025304966696       16.49065500667325       12.55807298247239
H            7.87511529193161       17.77772002201872       12.63533007635408
H            7.55518348175603       16.95950701967713       11.10425993964395
C            2.58194199283266       22.06369154272882        7.52543552575180
H            2.13533507160308       21.19318974955407        7.04183668967357
H            3.66182947386783       22.00180901155861        7.39947943949709
H            2.22259362921031       22.95855870726813        7.02119702066909
C            0.32237172115966       23.80404666161557        9.00296363104563
H            0.07890112594616       24.66785885745182        9.61119606206205
C           -0.25745706334579       23.67175481768765        7.81428180969985
H           -0.09130249412723       22.81254584854718        7.18826871498403
H           -0.94334184040805       24.41182346416962        7.43651004493626
C           -1.23954709459669       24.55482298880890       14.01538005690026
H           -2.16154566352449       24.06040260698531       13.70405421670050
H           -0.93093968287994       25.22439573125073       13.21369535036451
H           -1.45083005285441       25.14893769990558       14.90213805672516
C           -0.23363013917480       23.43973899162965       16.85173795344038
H            0.51534587918006       23.47379806563471       17.63461318659946
C           -1.50164885642292       23.68776424159449       17.16330151941498
H           -2.29384797684120       23.62133821361527       16.43797899286998
H           -1.79554741522372       23.94198291561388       18.16822336374000
C            3.62406608251573       20.22719216972725       18.52056287817616
H            2.60797059526312       19.91954653401433       18.76931186830869
H            3.73813847904622       21.27440596347728       18.80181299811095
H            4.31544159198432       19.63547185648994       19.11561262428824
C            5.83710012901771       18.36002132006379       17.04306666464337
H            5.79233356649674       18.38787963782312       18.12899961307858
H            6.83945858716783       18.65728820861381       16.73329978569021
H            5.67554364618513       17.33121490981215       16.71987143521148
C            5.46949978770466       25.96668889557880       12.97904272987057
H            6.24575758392591       26.14364559739450       12.23461428782355
H            5.81205135632937       26.37122072217517       13.93147422092426
H            4.57172652264525       26.49754791341012       12.67834658773234
N            6.12187653213556       23.59747040179365       13.46285384453900
H            7.08372693737194       23.79965061841608       13.68103058898281
C            5.17324059164631       24.51662989970583       13.09768648341471
C            5.53109794037879       22.38167629636631       13.47529244794643
H            6.03481026710729       21.47106326228523       13.72552181236460
N            4.26757384480443       22.47514270507999       13.14073348658668
C            4.02982072452448       23.79631377126150       12.90287443722008
H            3.05971958857551       24.13919548268098       12.60936851268270
C            1.53837465438284       17.59318924513333       15.08650371398859
H            1.12312130266473       17.36749137209829       16.06673892217832
H            2.57463095761353       17.89390089810807       15.20850885419376
H            1.50998986944892       16.69375759648752       14.47599665043895
C            0.74225571991045       18.70318770075036       14.42829281899205
H            0.75242830378881       19.60872302878164       15.03257929727245
H           -0.28593722477210       18.38748335045134       14.25131993654015
S            1.46060439244757       19.11067503089772       12.78442132610297
C           -0.05409347883432       19.74526679909275       12.00211948187882
H           -0.43758858085184       20.58656331543179       12.57049588299068
H           -0.78660114703557       18.94419474226390       11.94663255027712
H            0.21671872681735       20.07069751609379       11.00383114139713
