87
 energy: -124.376009896360 gnorm: 0.395403082808 xtb: 6.7.1 (edcfbbe)
Fe           3.02700000000000       21.05100000000000       13.05200000000000
N            4.45900000000000       19.98100000000000       12.19100000000000
N            3.66200000000000       20.33400000000000       14.87100000000000
N            1.55400000000000       22.04200000000000       13.99200000000000
N            2.30500000000000       21.68600000000000       11.29500000000000
C            4.76800000000000       19.99000000000000       10.83700000000000
C            5.72300000000000       18.96200000000000       10.54100000000000
C            5.95600000000000       18.30600000000000       11.69500000000000
C            5.24700000000000       18.95100000000000       12.73400000000000
C            4.52000000000000       19.30100000000000       15.06300000000000
C            4.73600000000000       19.16400000000000       16.49800000000000
C            3.93000000000000       20.03300000000000       17.12700000000000
C            3.22000000000000       20.76400000000000       16.11200000000000
C            1.46800000000000       22.31500000000000       15.33300000000000
C            0.36000000000000       23.22500000000000       15.55500000000000
C           -0.18300000000000       23.51600000000000       14.35500000000000
C            0.57100000000000       22.78400000000000       13.36800000000000
C            1.23000000000000       22.50500000000000       11.04900000000000
C            1.25400000000000       22.89000000000000        9.63800000000000
C            2.31700000000000       22.31900000000000        9.08100000000000
C            3.05400000000000       21.61799999999999       10.14700000000000
C            4.18600000000000       20.87600000000000        9.96400000000000
H            4.69000000000000       21.00300000000000        9.00600000000000
C            5.22100000000000       18.60100000000000       14.09300000000000
H            5.78700000000000       17.72400000000000       14.40500000000000
C            2.29200000000000       21.78500000000000       16.31700000000000
H            2.20800000000000       22.19700000000000       17.32300000000000
C            0.28900000000000       22.83900000000000       11.99200000000000
H           -0.70100000000000       23.15500000000000       11.66500000000000
C            6.27500000000000       18.65300000000000        9.12200000000000
H            6.71700000000000       19.65500000000000        8.93500000000000
H            5.29100000000000       18.59200000000000        8.61000000000000
H            6.96100000000000       17.87600000000000        8.72100000000000
C            7.01900000000000       17.18000000000000       11.90100000000000
H            6.31300000000000       16.39800000000000       12.25500000000000
H            7.50100000000000       17.65700000000000       12.78100000000000
H            7.79000000000000       16.70400000000000       11.25800000000000
C            2.90200000000000       22.40000000000000        7.65500000000000
H            1.92800000000000       21.99500000000000        7.30700000000000
H            3.70100000000000       22.06500000000000        6.96000000000000
H            2.84800000000000       23.51000000000000        7.66500000000000
C            0.18200000000000       23.73999999999999        9.00000000000000
H            0.37200000000000       24.80800000000000        8.83700000000000
C           -0.66300000000000       23.07200000000000        7.85600000000000
H           -0.92000000000000       22.00400000000000        7.90300000000000
H           -1.00600000000000       23.66600000000000        6.99600000000000
C           -1.37500000000000       24.45500000000000       14.08400000000000
H           -1.97700000000000       23.71100000000000       13.52000000000000
H           -0.85200000000000       25.11700000000000       13.36100000000000
H           -2.05400000000000       25.05500000000000       14.72700000000000
C           -0.02600000000000       23.83200000000000       16.90900000000000
H            0.82300000000000       23.91700000000000       17.56800000000000
C           -1.53000000000000       23.86700000000000       17.23900000000000
H           -2.27900000000000       23.76500000000000       16.44000000000000
H           -1.87100000000000       23.99400000000000       18.27700000000000
C            3.71600000000000       20.21700000000000       18.66700000000000
H            3.55500000000000       19.12400000000000       18.78700000000000
H            3.08400000000000       20.75700000000000       19.40400000000000
H            4.78800000000000       20.44500000000000       18.84700000000000
C            5.66000000000000       18.08600000000000       17.12300000000000
H            4.80800000000000       17.68200000000000       17.71100000000000
H            6.20300000000000       18.83200000000000       17.74200000000000
H            6.34000000000000       17.25000000000000       16.85200000000000
C            5.55100000000000       25.88500000000000       12.49000000000000
H            6.33700000000000       25.92800000000000       11.70600000000000
H            5.91200000000000       26.42400000000000       13.39200000000000
H            4.62900000000000       26.36900000000000       12.10300000000000
N            6.14200000000000       23.54200000000000       13.32600000000000
H            7.10900000000000       23.70700000000000       13.51700000000000
C            5.27300000000000       24.49100000000000       12.82600000000000
C            5.50900000000000       22.41700000000000       13.50600000000000
H            5.98000000000000       21.51900000000000       13.90700000000000
N            4.22400000000000       22.53500000000000       13.13100000000000
C            4.07800000000000       23.79500000000000       12.68700000000000
H            3.12300000000000       24.12300000000000       12.29500000000000
C            1.15400000000000       17.97000000000000       15.42500000000000
H            0.44300000000000       17.74700000000000       16.24900000000000
H            2.02800000000000       18.51100000000000       15.84700000000000
H            1.48900000000000       17.01100000000000       14.97700000000000
C            0.47300000000000       18.83100000000000       14.36200000000000
H            0.13300000000000       19.78600000000000       14.81600000000000
H           -0.41700000000000       18.29900000000000       13.96300000000000
S            1.67800000000000       19.14600000000000       13.03500000000000
C            0.49400000000000       19.38100000000000       11.72000000000000
H           -0.18900000000000       20.22900000000000       11.93900000000000
H           -0.12400000000000       18.46700000000000       11.59200000000000
H            1.01900000000000       19.60000000000000       10.76600000000000
87
 energy: -124.545187974839 gnorm: 0.229184133694 xtb: 6.7.1 (edcfbbe)
Fe           3.01106473197711       21.03206521552828       13.06471817413273
N            4.46057204298984       19.96242946536616       12.18537932829382
N            3.65044020768154       20.34062033683587       14.86045831925451
N            1.55413664416142       22.06607998246800       13.99215309363762
N            2.32255876308741       21.70467470475373       11.30898491954411
C            4.77289652921637       19.98625900092480       10.84629246693483
C            5.73327407478782       18.95458647150664       10.53339454780648
C            5.98383399331686       18.30411100523903       11.68799469834953
C            5.23084179602285       18.94333142433315       12.72943488239373
C            4.52565655334806       19.32167081943223       15.05720973901991
C            4.72930379869321       19.15199715426724       16.47831505078144
C            3.91776666996711       20.04619596674415       17.11610911221536
C            3.22843449371141       20.77878002330424       16.09223493408819
C            1.47012286202632       22.33220382286117       15.33325418921674
C            0.35957965606448       23.24480354639343       15.58257800568331
C           -0.19735509836715       23.51539234631472       14.37467077433866
C            0.55619709954295       22.78096743988742       13.37905650022393
C            1.23316513693730       22.48964120255881       11.04540691993665
C            1.23207528151345       22.87273066089137        9.63126916076569
C            2.35230214704269       22.31790529620807        9.09814097187517
C            3.04821811377732       21.61444172329410       10.15932773632213
C            4.19039040853919       20.87506095682492        9.96199934506997
H            4.67978001258122       20.99306514806986        8.99958652804044
C            5.21631958531599       18.60947004866116       14.08399404786850
H            5.78671620459579       17.73960121489042       14.40302983360540
C            2.29332143506283       21.78715956147007       16.30816952529103
H            2.20138989719867       22.18037635973190       17.31777579014768
C            0.29300234043342       22.83557984842302       12.00016790856647
H           -0.68477815397390       23.17568042485934       11.66822295234132
C            6.25156200752812       18.68691745107721        9.12222250115205
H            6.71890801101811       19.65411915943066        8.90141373517600
H            5.30311926419669       18.59510918117145        8.57985662981702
H            6.93636353488604       17.88926889421799        8.77765087973884
C            6.99716994033158       17.18390709780774       11.93858126792291
H            6.33331948636817       16.37780926707384       12.27175268279280
H            7.52027440990605       17.62524459141709       12.79427153347331
H            7.74588727438851       16.75000873481725       11.24935596669660
C            2.85082716840816       22.42504763686626        7.65562593306757
H            1.92108570435681       22.01482664093125        7.24595390402961
H            3.69115307643687       22.05560061047393        7.03508780282100
H            2.84328314966899       23.52080961578886        7.61378832365643
C            0.19145999396696       23.68599818240456        8.91243440597051
H            0.35657117841729       24.77460520548091        8.84063432149336
C           -0.62069221398121       23.09565306222788        7.89635578660699
H           -0.89402193808011       22.03613137968059        7.91540826935578
H           -1.00648014406192       23.66812607729311        7.04562322844021
C           -1.36249944205862       24.43763726851684       14.04576487764513
H           -2.00175336496132       23.73290871321908       13.50122789030284
H           -0.87935339226231       25.12920590462894       13.34495789926175
H           -2.00214831866178       25.02193529722906       14.73244491561988
C           -0.08555831972847       23.78358545087568       16.90334739681796
H            0.76836000325001       23.91969334149796       17.57092837521986
C           -1.46258072867333       23.86261769915676       17.23075367387921
H           -2.23366976597570       23.75605901795814       16.46124685670663
H           -1.83634493962567       24.00770848895610       18.24986856974773
C            3.75162332865683       20.18149187026848       18.64723549972974
H            3.56553808061539       19.11665953786990       18.83586338391434
H            3.09005306796830       20.75845490519549       19.32596609056314
H            4.79197613417862       20.43342337586466       18.88812688428718
C            5.63203761075428       18.11321459494022       17.15747419113923
H            4.83177829276733       17.65543938989608       17.75171439428529
H            6.21820367656839       18.80539643000904       17.77503027013782
H            6.30210006774461       17.30027569814209       16.81303606147321
C            5.55698765042528       25.88687948676496       12.48827611902951
H            6.33321747100365       25.93660836959407       11.71162013565506
H            5.91000962990220       26.42606385997641       13.37953746019518
H            4.64448424564836       26.36500964037591       12.10943003517416
N            6.14168401906090       23.55627396814103       13.32520713903488
H            7.11389116276583       23.71930311620682       13.51734270553827
C            5.26189578988609       24.48313327952904       12.82031071109960
C            5.49975116670723       22.40814330184000       13.50657757763463
H            5.96830285796546       21.52140749022023       13.90327673667736
N            4.22874868177740       22.52044035560478       13.13025353382372
C            4.07798814534121       23.79119133960423       12.69265462621532
H            3.13013525421399       24.12263037463897       12.30209977194840
C            1.15156995933268       17.96901046631389       15.42908749098730
H            0.45023860886162       17.74827733429273       16.24399460679708
H            2.01705013633382       18.50041209099173       15.84283432065676
H            1.48736979363540       17.02287023255028       14.98431994461796
C            0.47407345750696       18.83145283834136       14.37273585992761
H            0.13818722045557       19.78301977122551       14.81014154955492
H           -0.40308744112160       18.30617561941185       13.96188200734906
S            1.67085250587652       19.12990160921804       13.02314435737881
C            0.47892488335025       19.38048150695366       11.70796561681778
H           -0.18296645396831       20.22485250224261       11.93777380815656
H           -0.12123824639407       18.47010045716398       11.58879264804087
H            1.01515037987032       19.59559004436942       10.77640737900179
87
 energy: -124.631046218551 gnorm: 0.143036420226 xtb: 6.7.1 (edcfbbe)
Fe           2.99624160778964       21.01936183528372       13.08020968983393
N            4.45801052207462       19.94016183556409       12.17780463713932
N            3.64255523493089       20.34779880482047       14.85139223842514
N            1.55055050039451       22.08655443524567       13.99470700767036
N            2.33570259984995       21.71721026973539       11.31720287046079
C            4.77125669991064       19.98190279476107       10.85546383567383
C            5.74346294103649       18.94835727759142       10.52651034681047
C            6.00957850855455       18.30017588878303       11.68082832387538
C            5.21390786600941       18.93863517621584       12.72294612575944
C            4.52984336902252       19.33690367595896       15.05579339044746
C            4.72445044684710       19.14178852558956       16.46462815124253
C            3.90953427882708       20.05667085495915       17.11071489286677
C            3.23745056048649       20.79075123793097       16.07633462640163
C            1.46903870937405       22.35044296742299       15.33285131531937
C            0.35027639039451       23.26115118738139       15.60093261632298
C           -0.21639625249549       23.51272115055681       14.38653928393772
C            0.54631392771520       22.78078214142780       13.38754565619169
C            1.23421942262024       22.47276701758016       11.04096981011581
C            1.20900342058695       22.84676410126860        9.62766512401293
C            2.37684978662022       22.31267749662159        9.11141497072223
C            3.04674500629609       21.61833666820750       10.16825649059630
C            4.19712587335873       20.87343006787605        9.95950990538058
H            4.66930934995764       20.97844598961843        8.99257964655746
C            5.21157636574672       18.61792826065153       14.07328055854759
H            5.78825819868067       17.75825111265799       14.40021578514414
C            2.29222553309004       21.79050308733960       16.29969710191075
H            2.19112197382930       22.16200978641074       17.31345595064915
C            0.30154207267104       22.83560624462633       12.00882210039252
H           -0.66326907981085       23.20155748797248       11.67148627532406
C            6.22912921885829       18.72173351172293        9.12495860834694
H            6.72051738161934       19.65692471513205        8.86408439770431
H            5.31400914616998       18.60119143646069        8.54810825620575
H            6.91169852358608       17.90063533680278        8.84534018831125
C            6.97448609005289       17.19093482062699       11.97480744245084
H            6.35233249076712       16.35753775482690       12.29130159582313
H            7.54043667822941       17.58952588909751       12.81352054623401
H            7.69681467385743       16.80318437862200       11.23507856395726
C            2.79463053077914       22.45278758208426        7.66437063083925
H            1.91277654815029       22.03763770619191        7.18564959081722
H            3.67857242430972       22.04133821931260        7.13076511291067
H            2.83227628278018       23.53484106402558        7.56186207440879
C            0.20400784872458       23.63179489842269        8.82854164508395
H            0.35559473844676       24.73338628036638        8.84288822417372
C           -0.57125791367534       23.11697556206213        7.94306215063010
H           -0.85103056976891       22.06002770536792        7.91920214303905
H           -1.01629702693436       23.67423082474975        7.10875550250742
C           -1.35071856513437       24.41898388182528       14.00876540354766
H           -2.02862852706239       23.75580424725788       13.47721234568647
H           -0.90481930673656       25.13931868405817       13.32602273848022
H           -1.94556723672205       24.98441895234425       14.74467980900733
C           -0.13109995546394       23.75060263410422       16.89882168264866
H            0.71479199596292       23.91365449076088       17.58435675844579
C           -1.39107279283278       23.84914749573579       17.21667427452153
H           -2.19249146068553       23.73498901448959       16.48108788046811
H           -1.79277894409184       24.02835130154533       18.21932565917046
C            3.78755586748348       20.14637224994147       18.62129360639187
H            3.57971790304020       19.10858053087923       18.88014250113515
H            3.09230412046196       20.76344255830014       19.22941979797487
H            4.79802835127835       20.41959620540455       18.92544963987668
C            5.59919258877939       18.14403711311029       17.18894042780408
H            4.85476348401324       17.63195618240724       17.79628051708718
H            6.22933728994332       18.78195716996762       17.80758871663787
H            6.25486508348861       17.35895090354911       16.75970828103610
C            5.56190255034068       25.88836836823657       12.48667392390104
H            6.33163492448014       25.94113150888340       11.71653236082892
H            5.90935115294321       26.42484389687180       13.37096518125254
H            4.65665567268043       26.36354593609229       12.11372730990789
N            6.14344403376011       23.57081038110900       13.32516914492417
H            7.11822674660986       23.72930315799283       13.51811451094306
C            5.25065200110579       24.47604467111230       12.81497799969763
C            5.49361221255780       22.40387435099048       13.50663373009938
H            5.96025955814593       21.52450801598483       13.90003504202697
N            4.23774003229602       22.51142636953788       13.13474947833696
C            4.07655380997658       23.78911645648966       12.69668483378765
H            3.13391396640725       24.12279510826194       12.30917694964644
C            1.14965496769505       17.96905277476726       15.43341326692188
H            0.45433983444571       17.74942495926728       16.24140131639100
H            2.00985723135161       18.49258005252438       15.84169116740269
H            1.48531705503870       17.03230402780908       14.98963525174421
C            0.47405829146590       18.83093885184884       14.38119293456904
H            0.14705964602788       19.78230803983669       14.80387480491812
H           -0.39175476782406       18.31126913127156       13.96001227717508
S            1.66868316812017       19.11880972543939       13.01330242636404
C            0.46295260773038       19.37922918507133       11.69641844675377
H           -0.17950297282470       20.22206512261487       11.93680311359498
H           -0.12302138504339       18.47131149386488       11.58306724644546
H            1.01184686646936       19.59143973250595       10.78392184127082
87
 energy: -124.674600428112 gnorm: 0.062987424259 xtb: 6.7.1 (edcfbbe)
Fe           2.98587941761121       21.00946425145077       13.08923904068009
N            4.44376875522434       19.92538403586290       12.17314541293115
N            3.64155391468227       20.35566493912934       14.84436677242667
N            1.55697304121956       22.10102711838375       13.99387900143050
N            2.35049276700587       21.72206836072817       11.32513610159757
C            4.76688237352259       19.98003847043492       10.85926595034362
C            5.74714817263419       18.95353452979298       10.52874540594559
C            6.01635893170532       18.30357103843329       11.68396742302392
C            5.19963822603970       18.93604077341345       12.71902793952921
C            4.53205292156668       19.34765935194838       15.05268908991455
C            4.71569725748038       19.14156302890227       16.45995969462013
C            3.90867959065844       20.06032649049779       17.10261124150111
C            3.24444671515624       20.80272623305453       16.06707491317773
C            1.47612364310152       22.36391184857080       15.32746804879642
C            0.35385011604264       23.26342236196596       15.59232721992673
C           -0.22424563702202       23.50570759010699       14.38064456360225
C            0.54552618812171       22.77870607117370       13.38814988830066
C            1.23833224049274       22.45733115819079       11.04582299804636
C            1.21789389791214       22.82625310072859        9.64125544574005
C            2.38266375370765       22.30712123522354        9.11648411963770
C            3.05467302713558       21.61898531362858       10.17233363579522
C            4.20214466582394       20.86846014174807        9.95861404934551
H            4.65650058268902       20.95468840206418        8.98195412228843
C            5.20745357673740       18.62683730147515       14.06755485079429
H            5.79609373427801       17.78066210436173       14.39944902845887
C            2.29385776782493       21.79652837272473       16.29193467027647
H            2.17311752851174       22.13910801151914       17.31275569409969
C            0.31088677878661       22.83489677499225       12.01319441634048
H           -0.63653972486203       23.24133947035142       11.67165665218488
C            6.21429781845487       18.75026446896408        9.12671319100799
H            6.72246319228739       19.66613438190939        8.81794444592457
H            5.32397345109570       18.61215150421251        8.50967402192530
H            6.89325689328452       17.90541358997890        8.92305004949453
C            6.95902272969995       17.19529593600095       12.00451848442801
H            6.37201556363983       16.33194278343582       12.31932155371745
H            7.56464036523825       17.54589787409119       12.84350317895544
H            7.64810386699842       16.85906354860236       11.21015901367243
C            2.75487369505524       22.47197584772284        7.67114071808072
H            1.90014422463427       22.07024658490309        7.11830853152303
H            3.67489542537228       22.02267741495332        7.23002981520219
H            2.81338238845642       23.55104386061681        7.50201885603679
C            0.26640073182633       23.62847297359998        8.82840837840038
H            0.39831770717995       24.71854267481731        8.85069519341601
C           -0.60516667354997       23.10602064334430        7.94629090204489
H           -0.81627654225050       22.04171601567424        7.89739743493063
H           -1.07193523271447       23.68663837790793        7.15184436987609
C           -1.34472294287054       24.40415110846046       13.97784992506521
H           -2.06432887287038       23.78170875577143       13.44260834193907
H           -0.93382885792001       25.14899534157079       13.29533562867673
H           -1.88757747761885       24.94788377594699       14.76590803371217
C           -0.11244522560843       23.71127400882727       16.89689176380181
H            0.69786580060865       23.89316662078839       17.60855494056423
C           -1.39300034276378       23.85816785449436       17.22083892384437
H           -2.18375500579908       23.69810793437721       16.49497577534312
H           -1.76571629838425       24.07012181348352       18.21715486817049
C            3.81397825200945       20.12263287508610       18.59972035389577
H            3.60002743540784       19.09830351452849       18.92954297126241
H            3.08497602916279       20.78018715608732       19.12185294705563
H            4.80873590245106       20.39929516730926       18.96727859870114
C            5.57244508078616       18.16682407530513       17.21032195542014
H            4.88010231119231       17.60817012531799       17.85183078161126
H            6.23746477136698       18.75729755881195       17.84890585521785
H            6.20709028403898       17.41743479884880       16.69121017833123
C            5.56433021691534       25.88685321124465       12.48505630431055
H            6.33417299797187       25.94516395699904       11.71790179222220
H            5.91091594370571       26.42429550823826       13.36638335532419
H            4.66407371618572       26.36671785631511       12.11456590367547
N            6.14337275294808       23.57768549681571       13.32651596581789
H            7.11800236122574       23.73988637087352       13.51960421606854
C            5.24492376747072       24.47333768477128       12.81173676407365
C            5.49295974442563       22.40451814273828       13.50765629812518
H            5.95741115148333       21.52508227113534       13.89991038806104
N            4.24022609782484       22.50497702288411       13.13809835328608
C            4.07248488584348       23.78494644160535       12.70099305799555
H            3.13058931961420       24.12062938657655       12.31927095759966
C            1.14778349094199       17.96922843063000       15.43715298777264
H            0.45381857960040       17.74958835223721       16.24411728492649
H            2.00823738984943       18.48709995460503       15.84540476772121
H            1.48423081357215       17.03522077845987       14.99419741284568
C            0.47914824427365       18.83078065207511       14.38315441389695
H            0.16036395186555       19.78739536701164       14.79608654947368
H           -0.38311469486608       18.31548547166028       13.95748173309045
S            1.66593674829050       19.10261338534744       13.00029185382805
C            0.45045770170871       19.37397214701175       11.68764241752507
H           -0.18039608318019       20.22137752944145       11.93565525241017
H           -0.13360724669256       18.46741215462418       11.57162664807180
H            1.00805347733604       19.58648358009024       10.78298794987258
87
 energy: -124.692434784739 gnorm: 0.056964150067 xtb: 6.7.1 (edcfbbe)
Fe           2.97898157296468       21.00579413683306       13.09339035052040
N            4.42372989889299       19.91716961823542       12.16989036480061
N            3.64085640906057       20.36223361437873       14.84187238958883
N            1.56647080536222       22.10751470453358       13.99205037469650
N            2.36077887113240       21.72213793568531       11.32304323622706
C            4.75455272167950       19.97884380872974       10.86127052984129
C            5.74593901896129       18.96309369732327       10.53430363660183
C            6.01358598016574       18.30929301141971       11.69161651236479
C            5.18264416268345       18.93839581578759       12.71755738823473
C            4.53178331551157       19.35371666946673       15.05304742052997
C            4.70907089262797       19.14365801150593       16.46152030895367
C            3.91048376478931       20.06385804245280       17.09973464965949
C            3.24704134773927       20.81215414081969       16.06419799615896
C            1.48050726051505       22.37220718703637       15.32152802360617
C            0.35067975109100       23.25887472016450       15.58147247180731
C           -0.23248469928637       23.49349740389276       14.36767775431311
C            0.55224609717736       22.77625098959952       13.38547575310800
C            1.24238504837807       22.44774600842199       11.04777185083305
C            1.20726358400579       22.80436272862998        9.64781630227361
C            2.37389420482478       22.30964373489443        9.11098510855504
C            3.05767192232173       21.61903904547642       10.16456606580764
C            4.20002132388129       20.85968318528667        9.95170256881939
H            4.63974475109580       20.92115710069242        8.96684904375580
C            5.20356006134471       18.63763510702306       14.06556937123745
H            5.81125993065447       17.80803013052771       14.39910038661955
C            2.29103396201033       21.79927825004678       16.28725496442047
H            2.14669979237075       22.11247776574057       17.31398284611818
C            0.32584508120426       22.84156435855142       12.01489106815022
H           -0.60008029408692       23.29378812878724       11.67057193616464
C            6.20917643858869       18.76917154793115        9.13411533625184
H            6.72844217357104       19.66722631513833        8.78626886575087