87
 energy: -124.720499810427 gnorm: 0.000032542650 xtb: 6.7.1 (edcfbbe)
Fe          84.48776888957245       17.90984862126086       30.65732751110140
N           84.04635805352537       16.45744481843407       31.96427459637805
N           83.21403664705255       17.10625130098688       29.34315128754238
N           84.90877261493443       19.36909154270393       29.36231363748530
N           85.71251939860569       18.74187618706011       32.00779307086990
C           84.60175201085423       16.26162622656505       33.19058069837652
C           84.02704537244526       15.10017364458124       33.83261321931972
C           83.08488171754973       14.62034101334466       32.97693873409221
C           83.11454795824072       15.48029062879141       31.81506736871177
C           82.38387683478767       16.05057755083039       29.54649940841905
C           81.60019553251591       15.78203886623321       28.36077305486117
C           81.99024956848395       16.69494505952742       27.43154221903251
C           82.99197977443957       17.52049950304040       28.06990550481262
C           84.47658327028982       19.47150943630846       28.08200030760784
C           85.03896029187634       20.64721922776713       27.44380722470180
C           85.80036210290096       21.26540908953663       28.39882419570641
C           85.70770359634453       20.44667880812822       29.58139367458257
C           86.36717895965496       19.92405079664155       31.88751476350553
C           87.14384250681822       20.20295280855596       33.07927330623425
C           86.92994423467064       19.14695019991181       33.92556143522388
C           86.02796393463974       18.25829416417851       33.24062468641682
C           85.54162157827177       17.08052059583391       33.78532373042876
H           85.89862429070511       16.79763951499811       34.76402485108501
C           82.31673978669170       15.29486334549377       30.70139612887915
H           81.60792856697158       14.48141788932709       30.72587636077424
C           83.60180797211319       18.60037661619830       27.46010560934329
H           83.34848954206736       18.79435830859369       26.42921498145149
C           86.37336640878939       20.72458537165411       30.76094331883958
H           86.97491665096059       21.62018801624523       30.79246795646700
C           84.42764896655193       14.59669356236571       35.17726652984360
H           84.21010778793614       15.33810414995618       35.94723773270113
H           85.49686098886106       14.38527525884198       35.20586415760272
H           83.89191372312359       13.68303153514490       35.42294590607739
C           82.17923625091123       13.44705671420281       33.13181766383252
H           82.36348245521766       12.71350173433809       32.34628944896458
H           81.13625272748030       13.75741363673832       33.06541757059905
H           82.33185379401878       12.96399501996097       34.09395393055892
C           87.43875163895774       18.95471076012133       35.31194072308634
H           88.30040219674358       18.28478853726968       35.32140825273496
H           86.67008595847237       18.52202802236906       35.95098894792512
H           87.74362046899228       19.91062619262082       35.73309339662421
C           87.94875578535243       21.38733260344887       33.27939987510634
H           87.57139515475218       22.29257457899413       32.81752755867900
C           89.08826768157329       21.43916889557934       33.96148301744648
H           89.53441488869024       20.56322526209526       34.39910173802799
H           89.63126124738294       22.36188373254096       34.08220050528625
C           86.53907874070779       22.55441110947245       28.30448777230410
H           87.60242780909715       22.38130805817629       28.13093411786850
H           86.43712592616990       23.12556867020185       29.22622524639676
H           86.14864117486287       23.14927232610312       27.48122673680106
C           84.77851574910166       21.05069337525568       26.07982617710648
H           83.79447485389214       20.80513982905396       25.69711239460478
C           85.63999680272298       21.67405755240262       25.28249039158321
H           86.64618888396394       21.89832186961279       25.59038875181925
H           85.37410877942608       21.95694917001297       24.27735696545237
C           81.52108546819171       16.87608684960763       26.02887669364369
H           82.35713165379987       16.79852159227688       25.33372400287513
H           81.06462978349535       17.85806474690255       25.90010688056128
H           80.78526716507415       16.12001904751575       25.76587580313570
C           80.59039132733503       14.69149071198902       28.24953183036428
H           80.11269240234269       14.70512666339553       27.27297765185187
H           79.81853328823803       14.80513653115814       29.01102836877984
H           81.05984354043339       13.71680541953416       28.38757064859316
C           80.03245187326203       21.18844089848186       31.29265438315383
H           80.17452293971772       22.16427136939312       31.75696600209241
H           79.12705115346034       20.74328520702013       31.70523199428154
H           79.89637970447657       21.32773505729612       30.22482399933578
N           81.62223671320179       19.96639173744699       32.79293139580420
H           81.19197445013315       20.25761619664543       33.65530652114555
C           81.20761016027396       20.31350818919811       31.53359050342587
C           82.70681373969927       19.17008569679268       32.66163654744783
H           83.24368640670106       18.74645194881322       33.48508357515730
N           83.00312360506237       18.99249651662292       31.39786710160645
C           82.08024698478097       19.69704045062415       30.68347189042609
H           82.10668718485692       19.71251331241470       29.61391969251689
C           88.63515825833616       17.71452482005503       30.37378141775144
H           89.51277947427998       17.69206104757475       31.01680517523858
H           88.11270952557322       18.65406844895817       30.53091378916392
H           88.95692537126286       17.66813504521867       29.33616069488005
C           87.72224934105834       16.54749284796943       30.69488843092314
H           87.40039668368226       16.57093616558802       31.73504023902155
H           88.21444248845908       15.59854201213614       30.47995382602805
S           86.21963081570486       16.61570927291931       29.63737598608569
C           85.72821433593683       14.87227496281508       29.79711004195816
H           85.62060522859031       14.61315311096485       30.84539721015881
H           86.47657601244248       14.24714283756562       29.31690541050003
H           84.77306441837608       14.76771997553103       29.29437394087164
