72
 energy: -105.898169457949 gnorm: 0.251284763493 xtb: 6.7.1 (edcfbbe)
Fe          -1.70400000000000      -19.66700000000000       18.70900000000000
N           -2.36900000000000      -21.60000000000000       18.79799999999999
N           -3.34800000000000      -19.12900000000000       19.78600000000000
N           -1.27700000000000      -17.66800000000000       18.33000000000000
N           -0.30800000000000      -20.18000000000000       17.30200000000000
C           -1.73600000000000      -22.69800000000000       18.22400000000000
C           -2.44500000000000      -23.91200000000000       18.57000000000000
C           -3.48200000000000      -23.55500000000000       19.35400000000000
C           -3.45900000000000      -22.09500000000000       19.47700000000000
C           -4.30100000000000      -19.96700000000000       20.33500000000000
C           -5.22100000000000      -19.17100000000000       21.12000000000000
C           -4.80800000000000      -17.88700000000000       21.05900000000000
C           -3.61800000000000      -17.84400000000000       20.21400000000000
C           -1.82500000000000      -16.61800000000000       19.03200000000000
C           -1.10700000000000      -15.41800000000000       18.68800000000000
C           -0.16400000000000      -15.73100000000000       17.78000000000000
C           -0.24800000000000      -17.17700000000000       17.57300000000000
C            0.51000000000000      -19.29100000000000       16.61900000000000
C            1.34100000000000      -20.01800000000000       15.70700000000000
C            1.01100000000000      -21.47200000000000       15.92800000000000
C           -0.03300000000000      -21.48100000000000       16.93600000000000
C           -0.61900000000000      -22.62800000000000       17.42200000000000
H           -0.15300000000000      -23.57300000000000       17.14500000000000
C           -4.34700000000000      -21.33300000000000       20.19000000000000
H           -5.16300000000000      -21.85700000000000       20.68700000000000
C           -2.89200000000000      -16.70700000000000       19.89500000000000
H           -3.20100000000000      -15.78200000000000       20.38200000000000
C            0.52700000000000      -17.92400000000000       16.72300000000000
H            1.21600000000000      -17.38400000000000       16.07400000000000
C           -4.54300000000000      -24.49299999999999       19.97100000000000
H           -4.15300000000000      -25.53300000000000       19.98900000000000
H           -5.46900000000000      -24.46600000000000       19.35800000000000
H           -4.76600000000000      -24.17400000000000       21.01100000000000
C           -2.04800000000000      -25.34600000000000       18.12800000000000
H           -1.36200000000000      -25.78900000000000       18.88100000000000
H           -1.52900000000000      -25.30600000000000       17.14700000000000
H           -2.95700000000000      -25.98000000000000       18.05100000000000
C           -6.42900000000000      -19.76100000000000       21.89400000000000
H           -6.07700000000000      -20.19900000000000       22.85200000000000
H           -6.91000000000000      -20.55900000000000       21.28800000000000
H           -7.16300000000000      -18.95700000000000       22.11400000000000
C           -5.44100000000000      -16.62200000000000       21.68900000000000
H           -5.41300000000000      -15.67100000000000       21.13800000000000
C           -6.03100000000000      -16.62200000000000       22.88800000000000
H           -6.08800000000000      -17.54600000000000       23.48200000000000
H           -6.46700000000000      -15.69800000000000       23.29500000000000
C           -1.44900000000000      -14.05700000000000       19.29500000000000
H           -1.68600000000000      -14.18100000000000       20.37300000000000
H           -2.33400000000000      -13.62700000000000       18.77900000000000
H           -0.58000000000000      -13.37200000000000       19.19400000000000
C            0.88400000000000      -14.80600000000000       17.11000000000000
H            1.88500000000000      -15.20500000000000       16.88900000000000
C            0.65100000000000      -13.54100000000000       16.77800000000000
H           -0.33100000000000      -13.08400000000000       16.97300000000000
H            1.43700000000000      -12.93400000000000       16.30400000000000
C            2.38100000000000      -19.43000000000000       14.74000000000000
H            3.15500000000000      -18.88100000000000       15.31700000000000
H            1.88500000000000      -18.72400000000000       14.04000000000000
H            2.87000000000000      -20.24900000000000       14.17100000000000
C            1.57500000000000      -22.71100000000000       15.23300000000000
H            2.32600000000000      -22.40100000000000       14.47500000000000
H            0.75500000000000      -23.26200000000000       14.72400000000000
H            2.06800000000000      -23.36900000000000       15.98000000000000
O           -3.32900000000000      -19.73300000000000       16.94400000000000
H           -3.67700000000000      -20.62500000000000       16.93900000000000
H           -3.56800000000000      -19.07200000000000       16.39900000000000
C           -0.12700000000000      -21.33100000000000       21.13300000000000
H            0.15400000000000      -21.36500000000000       22.20700000000000
H            0.66600000000000      -21.85100000000000       20.55500000000000
H           -1.08500000000000      -21.88000000000000       21.01100000000000
S           -0.30600000000000      -19.63100000000000       20.55500000000000
H           -1.41200000000000      -19.39100000000000       21.24300000000000
72
 energy: -105.952269972161 gnorm: 0.102038504601 xtb: 6.7.1 (edcfbbe)
Fe          -1.77007343453249      -19.65622404522265       18.62806627156393
N           -2.35683577233609      -21.61403548884130       18.80506413164139
N           -3.33749124366449      -19.12478143021920       19.81218747708599
N           -1.26187154144942      -17.67353457533723       18.34700621417440
N           -0.30685011388174      -20.17633021409917       17.31688565320075
C           -1.72752258834298      -22.69557812207734       18.23037947114126
C           -2.43478440824092      -23.91644639491657       18.57222566452576
C           -3.48832700749510      -23.55747880292746       19.35203594681958
C           -3.44221454513541      -22.10415082228170       19.48181074642594
C           -4.29564567569819      -19.95128486333169       20.34531447189095
C           -5.22858905752163      -19.16777312735710       21.13188029707267
C           -4.81692236761791      -17.86952499517693       21.06511849055346
C           -3.62605209722836      -17.84841038584168       20.21976374480193
C           -1.81207163133300      -16.62505468003506       19.03160636055945
C           -1.10869688017793      -15.40643493632623       18.68691812830648
C           -0.14900236977976      -15.72586662559978       17.77387159749788
C           -0.25177537444331      -17.17435848479723       17.57729664749182
C            0.50182404504437      -19.32148504873237       16.60894407844336
C            1.34101867505631      -20.06738131622014       15.70896274138432
C            1.02560904623722      -21.43556275858399       15.92098060046387
C           -0.00868239799865      -21.45412546809157       16.93388454123923
C           -0.60855251906355      -22.61391260039787       17.41915233362691
H           -0.16145989783082      -23.55749526498560       17.12365381469523
C           -4.34201034377464      -21.32905390646853       20.19240620772481
H           -5.15643542593488      -21.85096293836427       20.68342550745932
C           -2.89310884510366      -16.71390369372582       19.89599627676276
H           -3.20708545151655      -15.79100839885127       20.37196031808689
C            0.52377330520042      -17.93574011016092       16.72217763806616
H            1.21839662348818      -17.39792217594609       16.08530523991485
C           -4.52910640925349      -24.47586850660589       19.96316286295260
H           -4.15704938265189      -25.50590696121753       19.98709129114075
H           -5.45229964950702      -24.45957152918696       19.37126482965356
H           -4.76289610261170      -24.17424453796752       20.98954307702202
C           -2.04992643155480      -25.32066492814175       18.13483650209851
H           -1.37321913017854      -25.77531342634406       18.86904293780475
H           -1.54199663781559      -25.30204346150657       17.16581602961861
H           -2.93783994053688      -25.95687438891928       18.05112830609261
C           -6.41238531157072      -19.75227059069540       21.88160553260541
H           -6.07941990241815      -20.19002035082619       22.83140213727162
H           -6.89735331897714      -20.54023429485142       21.29489350999575
H           -7.14705204344833      -18.97138356977887       22.10080619106526
C           -5.43734724699888      -16.65810215864522       21.68436270897076
H           -5.39136442199002      -15.72166090812748       21.12535277649603
C           -6.02017941405466      -16.62262991902618       22.87930876933228
H           -6.08550667477818      -17.51819834384665       23.48743893171135
H           -6.45610980821208      -15.71289189420441       23.27971018869512
C           -1.44344810324096      -14.06689298243287       19.29163080075617
H           -1.68108475094358      -14.17832349568242       20.35534503475098
H           -2.31574245728283      -13.63172083510995       18.78836587991709
H           -0.59516104957698      -13.38265492997251       19.19513874495992
C            0.85888369259856      -14.82389302518562       17.12157389258828
H            1.84629210987378      -15.23406401719458       16.90660375225186
C            0.63975443350372      -13.55610133485605       16.78821261496696
H           -0.32075304074122      -13.08558649283309       16.95985093748180
H            1.41420953213347      -12.95231867554998       16.32008793019168
C            2.35817524310273      -19.45756097311449       14.76267059847845
H            3.12974282263644      -18.90137380958963       15.31353152540032
H            1.88658754908308      -18.75284496669482       14.06318296106789
H            2.85769139153957      -20.23802205575170       14.18103448574417
C            1.57122992899435      -22.67136521735625       15.24112586351285
H            2.31573275129036      -22.40132782156740       14.48565415229674
H            0.77204045271601      -23.23723690415877       14.74153182821763
H            2.05337022354708      -23.34272719620779       15.96571585121522
O           -3.30761024837510      -19.74112940772878       16.95774243280712
H           -3.68254114334691      -20.61973312204596       16.93152422320263
H           -3.58166463031166      -19.05594129036254       16.37654066451335
C           -0.13071776161382      -21.34663624173111       21.14053807455192
H            0.15578673294891      -21.35647298512388       22.19830225196020
H            0.65180863887439      -21.83782846257409       20.55434116082658
H           -1.07395763972744      -21.88313571517590       21.00856107326497
S           -0.32364701048338      -19.64791125030031       20.53674918822302
H           -1.40348654556551      -19.38549534689135       21.26939688170380
72
 energy: -105.967494879117 gnorm: 0.039356144519 xtb: 6.7.1 (edcfbbe)
Fe          -1.78979654757261      -19.65292061638077       18.60628109001444
N           -2.35150130253722      -21.61437049439121       18.79986003880206
N           -3.33878580862023      -19.11848191374795       19.80701746829229
N           -1.26854803194525      -17.68504272906262       18.34677067770444
N           -0.33041512566451      -20.16949759250525       17.31387213415875
C           -1.72111714181916      -22.68329879208021       18.23470039769946
C           -2.42178803500509      -23.90908805393871       18.57582121423347
C           -3.48536770666077      -23.54766451133466       19.35310681762973
C           -3.42787835810486      -22.10146910734341       19.48079603957930
C           -4.28620206351074      -19.93779311215025       20.34652574325737
C           -5.22452349503041      -19.16625099654676       21.13777398836204
C           -4.81504081572982      -17.85639122390581       21.06647119021860
C           -3.63064305469679      -17.85309006874459       20.21478575851432
C           -1.80760650967592      -16.63925497304996       19.02753918680867
C           -1.11811562376070      -15.40863143435409       18.68582069429364
C           -0.15023100812998      -15.73467760353318       17.76845892013875
C           -0.26242114909504      -17.18279920639301       17.58254443110393
C            0.48328351985294      -19.33997675636162       16.60533784238361
C            1.33383554947793      -20.10594384982566       15.71558237153799
C            1.03437330574465      -21.40311767257325       15.92050776141433
C           -0.00538854137565      -21.43167697274235       16.93078966338562
C           -0.60518911013702      -22.59677526041291       17.41387096825569
H           -0.17644454266100      -23.53723995627805       17.09249568704255
C           -4.33150279998934      -21.32120312557982       20.19304022410144
H           -5.14343560090270      -21.84216234616770       20.68057587105551
C           -2.89353903943249      -16.72167897082697       19.89406458726248
H           -3.21475723989959      -15.79821609517191       20.35548297770623
C            0.51824892794279      -17.94997156625504       16.72902253537004
H            1.22306911459059      -17.41683968030546       16.10529635068804
C           -4.51205217591344      -24.45148466338080       19.95539519891145
H           -4.14993138931010      -25.47640692039111       19.98158155405075
H           -5.43576481388893      -24.43965906581533       19.37625223517420
H           -4.75259413314549      -24.15698318064635       20.97379610267241
C           -2.04869787148603      -25.29016424410882       18.14294113072531
H           -1.37608979229167      -25.75348872341111       18.86566500287606
H           -1.54914635945027      -25.28313455236284       17.17868326109402
H           -2.92886163850092      -25.92359887569617       18.05777565500801
C           -6.39223723209859      -19.74094534244943       21.86669018555904
H           -6.07373569269945      -20.17997909543291       22.81336082966868
H           -6.87672653076917      -20.52326043817074       21.28709355259839
H           -7.12799749179417      -18.97150643306076       22.08282580625393
C           -5.41191636795023      -16.68285756034272       21.67615375611039
H           -5.36273111737994      -15.75979304618587       21.10714277385165
C           -6.01983084218824      -16.65366627622956       22.85770767793023
H           -6.06938783929036      -17.52119927869906       23.49120669274021
H           -6.44356970452271      -15.74914003567266       23.26167602129730
C           -1.43812620167913      -14.08183944070546       19.28663092354322
H           -1.67578917462041      -14.18484727493813       20.34281724536071
H           -2.30167719372444      -13.63701518254671       18.79163776068597
H           -0.59878803619840      -13.40021576349919       19.18947228599796
C            0.82242342193151      -14.85793276796003       17.13514870035323
H            1.79699282935918      -15.28477320257483       16.92379839402485
C            0.62174393154902      -13.58485335905156       16.80067874633032
H           -0.32295657324569      -13.09454906342029       16.94797022286483
H            1.39448045982470      -12.98642956979883       16.34316756070284
C            2.33428716234471      -19.48928302808931       14.78509482953156
H            3.09572868153484      -18.93107789334855       15.33339272763933
H            1.86319805294365      -18.78781656557135       14.09388810734645
H            2.84082138783242      -20.24798401077418       14.19514008633191
C            1.57113625575652      -22.63205821361420       15.25280714926890
H            2.31077655994702      -22.38109525774465       14.49832747030642
H            0.77455906375225      -23.19581413429612       14.76287888549478
H            2.04203010422676      -23.30481749867246       15.97228505077075
O           -3.25730287178230      -19.73610946318253       16.95586615662175
H           -3.69307340380630      -20.59133805978001       16.92150461221089
H           -3.59300832449109      -19.04892270035780       16.37442451986999
C           -0.13535851705196      -21.36324328465582       21.14484897931685
H            0.15407846935247      -21.34702213460407       22.19095686921062
H            0.64441742807275      -21.83007396283949       20.55460891430009
H           -1.06877173625005      -21.89317499366573       21.00683444491778
S           -0.31942558377151      -19.65471323016505       20.53750411447773
H           -1.38469696477886      -19.37220753012434       21.29415517498339
72
 energy: -105.972073217181 gnorm: 0.028231169200 xtb: 6.7.1 (edcfbbe)
Fe          -1.80053368616180      -19.65051742793652       18.58505226800787
N           -2.34057271858248      -21.60620857131104       18.80368607492158
N           -3.33035569847787      -19.12132384107455       19.80354743644908
N           -1.28045182719690      -17.69554593904709       18.34998575192028
N           -0.33705484421944      -20.16920979398461       17.31634607489037
C           -1.71517062831217      -22.67340851641389       18.23876678154014
C           -2.41167006901775      -23.89626372694875       18.58066513815716
C           -3.47363457937467      -23.53396299227471       19.35737338239216
C           -3.41475303468254      -22.09337450732231       19.48452959536742
C           -4.27242068362126      -19.93998324919025       20.34768626659789
C           -5.20812286235776      -19.17620206596299       21.14108226330687
C           -4.80241833963954      -17.86724672207711       21.06740764412607
C           -3.62788079993409      -17.85959054364140       20.21019289112138
C           -1.81838155101038      -16.64915837647839       19.02728015354375
C           -1.13465096976999      -15.42033583115179       18.68742850050713
C           -0.17001977143586      -15.75142166840610       17.77013735084379
C           -0.27643642731628      -17.19440863957611       17.58808094307684
C            0.47281808273166      -19.33657622538250       16.61203066553990
C            1.33054844289914      -20.09964670263011       15.72398235276840
C            1.03168518073013      -21.40627271513889       15.93094545281705
C           -0.01329946073615      -21.43119007127981       16.93565050038628
C           -0.60893085125143      -22.59281497982580       17.40833098979282
H           -0.19565430724706      -23.53057588498663       17.05971605042171
C           -4.31911991023041      -21.31956059498312       20.19610669542573
H           -5.12980715143056      -21.84075732711538       20.68340414437456
C           -2.90239524050082      -16.72505254924515       19.89042097659559
H           -3.23061483041550      -15.80006181458559       20.34193480074042
C            0.51008197595747      -17.95400434659513       16.73681591022426
H            1.22793783725751      -17.42378102498684       16.12647520419701
C           -4.50354639653858      -24.42979186934305       19.95592731438967
H           -4.14300773792614      -25.45540033834035       19.98003828434113
H           -5.42664893623004      -24.41000385726320       19.37490238755875
H           -4.74270287292730      -24.13085707494404       20.97389047561371
C           -2.04063948741077      -25.27232116080145       18.14593583418666
H           -1.36560676813129      -25.73606324135170       18.86689295716975
H           -1.54541611411268      -25.26130794398491       17.17894637453781
H           -2.92598039097526      -25.89918494604562       18.06408507956768
C           -6.38238524113993      -19.74228637378553       21.85690976841251
H           -6.07382280993422      -20.17977160498539       22.80815803518015
H           -6.86134242115622      -20.52275707446859       21.26933457322335
H           -7.11496240329411      -18.96544575492870       22.06114010123153
C           -5.39978536593250      -16.69840112920503       21.66851768960907
H           -5.33539793602251      -15.78281477116516       21.09086788241156
C           -5.99879636929879      -16.65870099109172       22.85493339563773
H           -6.06016718166458      -17.52014921981276       23.49618235392025
H           -6.44418424666362      -15.75559885721309       23.23688504895607
C           -1.43951176926283      -14.09242454905946       19.28672668186399
H           -1.67490289680992      -14.19307286057426       20.34416809302824
H           -2.29876569007028      -13.63686708807685       18.79225757940132
H           -0.59119497171519      -13.42119988933051       19.18378255382229
C            0.80021256210438      -14.88837059986808       17.13698958829557
H            1.76621346022585      -15.33334804421212       16.92498666505747
C            0.60967114793049      -13.61350670668840       16.80499841770650
H           -0.33471423128737      -13.11515358502385       16.93754617263832
H            1.39054162729787      -13.02068881769388       16.35768873530384
C            2.32582459109949      -19.49374272977547       14.79476833256170
H            3.08141777103432      -18.94056277134884       15.35274256178307
H            1.84061154429129      -18.79947140493383       14.10885434664759
H            2.82765354916520      -20.25817187724152       14.20817796831469
C            1.57400077738032      -22.62387454974383       15.26278815501959
H            2.31266014773008      -22.36178043981419       14.51117545293773
H            0.77145055975146      -23.17675593855685       14.77375217565322
H            2.04340345172405      -23.28800227724326       15.98844777230426
O           -3.19366246923956      -19.73012576890523       16.88675966384525
H           -3.73455913473518      -20.54250730000071       16.91421189135698
H           -3.62396149381451      -19.02034687835193       16.37692412039539
C           -0.14039616537040      -21.37185208067940       21.14337618995890
H            0.15807252212192      -21.34363630017951       22.18697901581584
H            0.63854795056598      -21.83068571719764       20.54504201825750
H           -1.07142493710112      -21.90820024067921       21.01228832991537
S           -0.33372665915304      -19.66261672844156       20.52988260044874
H           -1.35878984115813      -19.35572199809705       21.34207510166577
72
 energy: -105.974330041339 gnorm: 0.022566665477 xtb: 6.7.1 (edcfbbe)
Fe          -1.79634090349374      -19.65118833411660       18.58952555300584
N           -2.33427136062614      -21.59123419816115       18.79719468770285
N           -3.33153250137941      -19.12347862414255       19.78227506477825
N           -1.29791234735370      -17.71223080689779       18.35291717685096
N           -0.34517644519983      -20.16893245030347       17.32858183178623
C           -1.71323307065687      -22.66119638321429       18.23617158926882
C           -2.40268682618684      -23.88116159936845       18.58290304197366
C           -3.46058362500912      -23.51817669529088       19.36070391206216
C           -3.40375277830944      -22.08208391342027       19.48286328319838
C           -4.26348751128130      -19.94374075863947       20.34116178544490
C           -5.19226348239274      -19.18818605392035       21.14132508995607
C           -4.79061220246999      -17.88116870192590       21.06650917443274
C           -3.62894869896680      -17.86630312709143       20.20032085641167
C           -1.83606465939591      -16.66097154651558       19.02372813861018
C           -1.15627161403081      -15.43636989957746       18.68496631652270
C           -0.19448173220226      -15.77335742022050       17.77003712054930
C           -0.29552899830670      -17.21089506284352       17.59265527584393
C            0.46141741005431      -19.33461565903553       16.62519442699041
C            1.32315313477600      -20.09203325495697       15.73783859984394
C            1.02399335405599      -21.40608820474285       15.94391771893423
C           -0.02497733077494      -21.42964035961146       16.94232352431850
C           -0.61682405761558      -22.58972553972595       17.39694513626032
H           -0.21651221078241      -23.52300945974250       17.02487173022100
C           -4.30851988656005      -21.31924050580015       20.19684951498767
H           -5.11256746407251      -21.84261596558592       20.69156269121904
C           -2.91673919965029      -16.72711927431625       19.88380472195133
H           -3.24825944831221      -15.80122181211423       20.32879432203933
C            0.50142935485973      -17.96016285816135       16.74708954438398
H            1.22866412900212      -17.43252630825330       16.14695526414545
C           -4.49581262945885      -24.40554607705718       19.96174949321446
H           -4.14186882597641      -25.43396447146439       19.98494332382829
H           -5.41864818861203      -24.37448906415302       19.37885086786371
H           -4.73101979685543      -24.10059412832394       20.97991959550795
C           -2.02970973728798      -25.25613999678940       18.14746226099690
H           -1.34838445654320      -25.71719844853251       18.86517395670609
H           -1.54007523997826      -25.24052110458076       17.17665770782072
H           -2.91734893419928      -25.88152857552203       18.07132674390349
C           -6.37400518097983      -19.74911122374289       21.84870275262590
H           -6.07947099397117      -20.18537961904806       22.80572066517843
H           -6.84864134653235      -20.52790653643296       21.25346648679036
H           -7.10251142672688      -18.96324839053414       22.03945063074962
C           -5.39086464699106      -16.70980112341070       21.66208742137832
H           -5.31622185656706      -15.80138384125326       21.07526596199243
C           -5.99377894526740      -16.66336505602092       22.84598689304788
H           -6.04437183990834      -17.51635454627747       23.50206975304960
H           -6.43012527362786      -15.75283143914469       23.22058168649398
C           -1.44304938390515      -14.10562657439688       19.28632683317214
H           -1.67612920535111      -14.20375243490050       20.34565037818649
H           -2.29624720988446      -13.63376017488580       18.79381333581443
H           -0.58099956890530      -13.44977225862459       19.17906276095952
C            0.78216734560927      -14.92103095432275       17.13376884118083
H            1.74083308980560      -15.38295512958524       16.92439899874423
C            0.59934157597325      -13.64614648011098       16.80234074584475
H           -0.34258760997642      -13.14106185983452       16.93345300409327
H            1.38744896128139      -13.06071550661336       16.35896840451731
C            2.31613533896511      -19.49324080635308       14.80711817658375
H            3.07232928672044      -18.94248900137844       15.36533115890677
H            1.82447576803549      -18.80371767398387       14.12218781474219
H            2.81378340322567      -20.26312959970278       14.22272484318871
C            1.57652394525074      -22.61508363631686       15.27543005778650
H            2.31670562318169      -22.34238259623112       14.52779494860304
H            0.77611324006141      -23.16566550856847       14.78166836274418
H            2.04742197020093      -23.27488483275263       16.00305134910260
O           -3.17002852192049      -19.69857336755083       16.85309150713116
H           -3.73155892169063      -20.48527942156707       16.88698255286649
H           -3.64636935395216      -18.98911582632817       16.38535203131419
C           -0.14183471766832      -21.38033070018861       21.14117187247056
H            0.16297995103913      -21.35027606073012       22.18267706251332
H            0.63401758782227      -21.83540074772543       20.53425614457820
H           -1.07336142215953      -21.92032611945017       21.01589101152894
S           -0.33262635530580      -19.66689984741524       20.53249520858193
H           -1.32473452468847      -19.34234446049863       21.38158930000260
72
 energy: -105.974901467226 gnorm: 0.016901854721 xtb: 6.7.1 (edcfbbe)
Fe          -1.80233202529797      -19.65066678334232       18.58608435482833
N           -2.33210256181738      -21.58288612477503       18.79047817490990
N           -3.33105018514839      -19.12501060620893       19.77607773787352
N           -1.30583645605025      -17.72310753577376       18.35847023802618
N           -0.34949958581822      -20.17003610519854       17.33810697397916
C           -1.71434715269050      -22.65662760801134       18.23118371451983
C           -2.39929785969856      -23.87588011080686       18.58304921356737
C           -3.45307415290191      -23.51211085443999       19.36477679833115
C           -3.39744613914848      -22.07675283624581       19.48263789667351
C           -4.26037102745632      -19.94623369968238       20.33997430681879
C           -5.18754752490410      -19.19396930669282       21.14243393680680
C           -4.78938880180859      -17.88645550866710       21.06576961343120
C           -3.63245585152767      -17.86882366960110       20.19639019800703
C           -1.84663832492497      -16.66670391468714       19.02207675088187
C           -1.16797525280442      -15.44445192469181       18.68119841804151
C           -0.20508171966929      -15.78494869031875       17.76964117852742
C           -0.30389660151740      -17.22084187656770       17.59812853290484
C            0.45994968738989      -19.33665342287661       16.63719526282757
C            1.32079791735521      -20.09059708345670       15.74840802136622