72
 energy: -105.980605305165 gnorm: 0.000042249949 xtb: 6.7.1 (edcfbbe)
Fe          32.02321529562967        2.05750324293378       47.47440939671148
N           31.45567384265820        1.60367137488887       49.32626526142881
N           30.58913074735340        3.47000412862362       47.38174564925694
N           32.54827875391829        2.48338608939261       45.57269474222021
N           33.38738293686464        0.60944135636783       47.52156132166235
C           32.01345217265473        0.67419492398664       50.14086748603963
C           31.33853043640238        0.64246557445960       51.42109021269027
C           30.34698741915263        1.56877207239766       51.35197919109016
C           30.43670738270429        2.15948458925499       50.03357547649747
C           29.67903116555913        3.77496041470755       48.34921960760033
C           28.81955790174644        4.84713472213533       47.92349504499619
C           29.23402731902722        5.19834817861122       46.66510202401946
C           30.33442559203235        4.31305870544965       46.34436001137814
C           32.05376773947833        3.48705498489054       44.79300994169006
C           32.71610437061688        3.51448191583754       43.51580506892850
C           33.62759882489361        2.49139275969694       43.53271578059972
C           33.51445465788101        1.87449747519642       44.83774854872845
C           34.21895938235559        0.23182564163734       46.51656540071532
C           35.07616070327872       -0.85447988538968       46.94229746932763
C           34.74987420049412       -1.11130017736534       48.23570721053680
C           33.68894969850056       -0.18771487302173       48.57724068242572
C           33.06650687126277       -0.15578507980788       49.80867047061604
H           33.41134477030077       -0.84864766010096       50.56030861063769
C           29.60048437846491        3.16292615145024       49.58865181671531
H           28.83424768167522        3.50787622027015       50.26519171866727
C           31.02900218735754        4.34580730523648       45.15005086407550
H           30.73478027703441        5.09003425864141       44.42690207479110
C           34.27840380570099        0.80307312277881       45.26075580519224
H           34.99319881524810        0.39463004563222       44.56387150922454
C           29.33851480044392        1.95454429495306       52.37847226488010
H           29.47178055869839        1.37380754777320       53.28763894397605
H           28.32873396638002        1.78106498617757       52.00626003391918
H           29.42992435722440        3.01165059507142       52.62994413760538
C           31.70954761580970       -0.26424678587821       52.54310918220210
H           32.74759614332861       -0.10695773180414       52.83653757410183
H           31.59670553036160       -1.30645402412352       52.24424894405494
H           31.07748649369471       -0.08625971983391       53.40954623708414
C           27.67411894860733        5.38734991770226       48.70519874827230
H           28.01393591762278        6.11699604186830       49.44229322765632
H           27.15883152573611        4.58781456806638       49.23522240958839
H           26.96661034213124        5.87699197828402       48.03919926265269
C           28.70233889509918        6.20801354872479       45.77608928975204
H           28.74149552670578        5.97048217427239       44.71928613367889
C           28.19243310833578        7.37468530126283       46.15601695552553
H           28.17121933397232        7.68274127125471       47.18681412858090
H           27.80007929318503        8.07724431135352       45.43988211078486
C           32.46966990302808        4.51802311817851       42.44468624537465
H           32.29402178667286        5.50393102935215       42.87267177411101
H           31.59581710728574        4.24749201613043       41.84938733942084
H           33.33132121445851        4.57417958372959       41.78285184953671
C           34.56328303825038        2.08360944639563       42.50762938716224
H           35.51159200705129        1.70101172374021       42.86584438700277
C           34.34102345658268        2.13736568778082       41.19877601870975
H           33.40110400391799        2.46452526527049       40.78940063060531
H           35.08913209050601        1.82886181730693       40.48774988017660
C           36.09915977903636       -1.50514059825405       46.07684609953891
H           36.85118513557207       -0.78070672706156       45.76346114524899
H           35.63628566573866       -1.92160138962361       45.18201936453333
H           36.60010653216034       -2.30956232076591       46.60937121884416
C           35.31523933177817       -2.12285157526069       49.17148473704960
H           35.73290294765628       -1.63660802466484       50.05314036195627
H           36.10386650814500       -2.69608157354686       48.69067124215817
H           34.53967986129320       -2.81434411004031       49.50119687142247
O           30.53932987719979        0.63239484444070       46.58415941768540
H           31.00753551032637        0.34070997123495       45.79369931951516
H           29.84713631818408        1.23898805195715       46.29722151861925
C           32.98448576705365        4.44286245152362       49.70743112304879
H           33.53518311565074        5.36288696040793       49.87763703492752
H           33.16302855099130        3.74358930707069       50.51758335616879
H           31.92057114887400        4.63061235463530       49.61219256278270
S           33.60572668231778        3.64693739150854       48.18449954868249
H           33.22302097268660        4.63534944464880       47.36876958293315
