72
 energy: -105.892193980032 gnorm: 0.264554101416 xtb: 6.7.1 (edcfbbe)
Fe          32.11500000000000        2.23000000000000       47.48199999999999
N           31.45100000000000        1.64500000000000       49.32100000000000
N           30.47300000000000        3.45300000000000       47.26700000000000
N           32.59000000000000        2.52200000000000       45.51100000000000
N           33.44700000000000        0.64800000000000       47.52600000000000
C           32.06700000000000        0.73100000000000       50.19199999999999
C           31.30500000000000        0.76200000000000       51.42799999999999
C           30.27800000000000        1.59700000000000       51.33499999999999
C           30.33599999999999        2.21300000000000       50.01200000000000
C           29.55900000000000        3.75300000000000       48.26400000000000
C           28.70200000000000        4.82000000000000       47.77900000000000
C           29.09500000000000        5.15000000000000       46.53000000000000
C           30.21400000000000        4.29900000000000       46.15300000000000
C           32.04000000000000        3.55400000000000       44.71700000000000
C           32.72300000000000        3.54800000000000       43.42800000000000
C           33.62000000000000        2.53400000000000       43.46000000000000
C           33.54300000000000        1.91300000000000       44.78100000000000
C           34.27000000000000        0.27600000000000       46.45700000000000
C           35.16900000000000       -0.77100000000000       46.89600000000000
C           34.78100000000000       -1.09900000000000       48.31000000000000
C           33.74100000000000       -0.14000000000000       48.63000000000000
C           33.13700000000000       -0.08300000000000       49.86800000000000
H           33.53300000000000       -0.72900000000000       50.65100000000000
C           29.44500000000000        3.14100000000000       49.53700000000000
H           28.60500000000000        3.42300000000000       50.17200000000000
C           30.96900000000000        4.37400000000000       44.98899999999999
H           30.69700000000000        5.12600000000000       44.24800000000000
C           34.32600000000000        0.86400000000000       45.21500000000000
H           35.05500000000000        0.46500000000000       44.51000000000000
C           29.20000000000000        1.91800000000000       52.39200000000000
H           29.39400000000000        1.32600000000000       53.31199999999999
H           28.19600000000000        1.65100000000000       51.99700000000000
H           29.23300000000000        2.99900000000000       52.64600000000000
C           31.70799999999999       -0.13500000000000       52.63200000000000
H           32.81500000000000       -0.15300000000000       52.72700000000000
H           31.34400000000000       -1.17100000000000       52.46599999999999
H           31.27300000000000        0.27500000000000       53.56800000000000
C           27.53600000000000        5.35700000000000       48.63100000000000
H           27.94000000000000        5.92100000000000       49.49900000000000
H           26.92300000000000        4.50900000000000       49.00500000000000
H           26.90700000000000        6.03900000000000       48.02000000000000
C           28.52100000000000        6.19800000000000       45.58599999999999
H           28.54800000000000        6.00000000000000       44.50500000000000
C           27.98500000000000        7.34100000000000       45.95999999999999
H           27.92299999999999        7.60600000000000       47.02600000000000
H           27.59200000000000        8.04500000000000       45.21099999999999
C           32.42500000000000        4.56300000000000       42.30700000000000
H           32.27300000000000        5.57100000000000       42.74999999999999
H           31.50200000000000        4.26400000000000       41.76600000000000
H           33.28200000000000        4.60500000000000       41.60100000000000
C           34.62800000000000        2.08800000000000       42.43699999999999
H           35.54100000000000        1.57100000000000       42.76800000000000
C           34.47500000000000        2.28700000000000       41.12800000000000
H           33.58100000000000        2.79900000000000       40.74200000000000
H           35.24100000000000        1.94200000000000       40.41800000000000
C           36.17300000000000       -1.47900000000000       46.02000000000000
H           36.89099999999999       -0.73900000000000       45.60700000000000
H           35.64900000000000       -1.98100000000000       45.17899999999999
H           36.73199999999999       -2.22800000000000       46.61999999999999
C           35.41100000000000       -2.12300000000000       49.26300000000000
H           36.09400000000000       -1.60200000000000       49.96800000000000
H           35.99400000000000       -2.86800000000000       48.68100000000000
H           34.61400000000000       -2.63400000000000       49.84400000000000
O           30.55600000000000        0.75700000000000       46.83600000000000
H           29.74299999999999        1.25500000000000       46.74600000000000
H           30.65800000000000       -0.11400000000000       46.68900000000000
C           33.60700000000000        4.03200000000000       49.86600000000000
H           33.87700000000000        5.04800000000000       50.22600000000000
H           34.37500000000000        3.32100000000000       50.23799999999999
H           32.62200000000000        3.76400000000000       50.30299999999999
S           33.52600000000000        3.97600000000000       48.07100000000000
H           32.42900000000000        4.71400000000000       47.98199999999999
72
 energy: -105.949661720018 gnorm: 0.110997292032 xtb: 6.7.1 (edcfbbe)
Fe          32.06979929678604        2.16735607068655       47.45035993331898
N           31.46247809416399        1.67448359139852       49.33568553431745
N           30.49529479418064        3.48485778869166       47.27750257890062
N           32.58297115229055        2.54209617382761       45.51231257892860
N           33.45704359065601        0.66029747090775       47.53150460565841
C           32.05260739388363        0.75219526836330       50.18275046666618
C           31.31822766899391        0.74537501823197       51.43840893028057
C           30.27775071571394        1.59891220815903       51.33571293931850
C           30.35477028917049        2.19940495190937       50.00539865990525
C           29.56630364342945        3.76137558337954       48.24855849413230
C           28.68887176683316        4.81775931242974       47.78357969952513
C           29.08615494051451        5.15621564458925       46.52028202131410
C           30.22177376548460        4.31152331168658       46.18800214746410
C           32.04406654159636        3.53965918260355       44.71354521276673
C           32.72788427528635        3.54882610960260       43.42758914528392
C           33.64036495806562        2.53298963803158       43.45911262436854
C           33.54050443193348        1.92296566966132       44.78677843650661
C           34.28166445716935        0.28002308044925       46.49615022285995
C           35.14759691984336       -0.79412841099013       46.92975724304619
C           34.79832251207804       -1.07690775345735       48.27558516168882
C           33.75137888143205       -0.13249853433718       48.60829406363973
C           33.12739989933854       -0.06393549790069       49.85281262313350
H           33.51395059075574       -0.71740572685937       50.63111475544185
C           29.46980797826647        3.13688701782535       49.50906697802523
H           28.63758591346611        3.42397702717375       50.14764681289309
C           30.97129376038576        4.36196651798607       45.01586405654214
H           30.69149600555289        5.10246504767559       44.27168801875945
C           34.32252302260297        0.86511708500700       45.23518533715688
H           35.04311853694554        0.46234577630068       44.53003076972445
C           29.21703064224032        1.91481521402830       52.37394669322363
H           29.39220676730067        1.33759027652733       53.28837607969594
H           28.21908598023101        1.65913914239794       51.99850350815121
H           29.23276789338089        2.97997279970160       52.63383528714772
C           31.70717600435263       -0.12647986073080       52.62035199132848
H           32.79651405919753       -0.15115476882588       52.72549562462689
H           31.34912614979240       -1.15106518030678       52.46850100080628
H           31.27977703332770        0.26504099335374       53.54869454800048
C           27.54723956811836        5.35316291924043       48.62000028055917
H           27.93455431282831        5.91126737918049       49.48196338138398
H           26.93522003045019        4.52499865553942       48.99510159522369
H           26.91360067700575        6.01992308936902       48.02870545744196
C           28.52486267778490        6.18031618886005       45.59922721827946
H           28.56713084573304        5.97292141634340       44.52980360412757
C           27.98556823666799        7.33397425111301       45.96850644771560
H           27.92789588888471        7.62027370085984       47.01172840573238
H           27.59820200805476        8.03326255362428       45.23275757544413
C           32.43057528662566        4.54940800314080       42.32789024035939
H           32.27508515956477        5.54967789646565       42.74857554849368
H           31.52338357436200        4.26521247314415       41.77867212733803
H           33.26608096380165        4.60668296149263       41.62327113356204
C           34.61442335067828        2.09814859871201       42.44039096522720
H           35.51212672397655        1.58396475047680       42.78259125549296
C           34.47096227657924        2.28799646055529       41.13180572668441
H           33.59218846365217        2.77542180066428       40.73068987082240
H           35.22559259115821        1.95091649291764       40.42816656356443
C           36.15563381304803       -1.47417856211877       46.04587312412368
H           36.87063185487992       -0.75253626604950       45.62527271752841
H           35.65842928349947       -1.97289203572428       45.20213867536157
H           36.72267547637426       -2.22059817534955       46.61012736869882
C           35.40097722719745       -2.09337995931258       49.22849146920169
H           36.07801694214901       -1.60543193647909       49.94488271694144
H           35.97895662377437       -2.84895350729724       48.68523713188149
H           34.62835815737615       -2.61213853169767       49.81319130450473
O           30.55400807158565        0.76469686477361       46.82228186544835
H           29.72703844207443        1.23721204530278       46.73900617970747
H           30.63901810184043       -0.15848016583094       46.67582949317171
C           33.60291332316607        4.03583331729496       49.88427334295793
H           33.87912821682840        5.04278627330772       50.21778299992361
H           34.36252878146729        3.32677909582004       50.22697672523593
H           32.63252295507795        3.75996606802388       50.30591261920699
S           33.51236473270234        3.95772241943647       48.07962907724480
H           32.43841503438941        4.73800622502268       47.98326100686090
72
 energy: -105.967021292559 gnorm: 0.037524078957 xtb: 6.7.1 (edcfbbe)
Fe          32.04863847894530        2.14450922211391       47.43913139606583
N           31.45201116595427        1.67468359790546       49.32891526841053
N           30.50633786786020        3.49411438854964       47.27932445015620
N           32.56185776224973        2.54314550031825       45.51425344330310
N           33.45195854352139        0.67539763641280       47.53165704792149
C           32.04208184964135        0.77513566184567       50.16540701566943
C           31.33169179557350        0.73712793865392       51.43523703620627
C           30.28380068743504        1.60223720378099       51.32465685829064
C           30.37922639910237        2.19159204930516       49.99415766385179
C           29.57917443400344        3.76499893886417       48.23861648191691
C           28.68751624304705        4.81171888313127       47.79126372160820
C           29.09249807480705        5.16075460133491       46.52213638625199
C           30.23425249676165        4.31328151116375       46.22069487733881
C           32.04567200275280        3.52200337708860       44.71923641633614
C           32.72418078028569        3.54442497697990       43.43636743520823
C           33.65020515983361        2.53017431282918       43.46901362255709
C           33.53576510210715        1.92860555042819       44.79904100824930
C           34.27644817694877        0.28915373860072       46.52279445615978
C           35.12875508597947       -0.80004066340662       46.96094076936247
C           34.80483152323797       -1.05426627965088       48.24602871829894
C           33.75206929130189       -0.11478854767055       48.59295788994823
C           33.12034899238498       -0.03828478890879       49.83648197818746
H           33.49064468341499       -0.70410280743369       50.60730577857429
C           29.50302902926143        3.14088671042395       49.48780433452998
H           28.67697154594125        3.42864153291027       50.12726004342678
C           30.97687746502843        4.34857942137322       45.04566925944737
H           30.68480224446717        5.07601571684715       44.29867292836816
C           34.31387531929040        0.86939997747199       45.25553122455711
H           35.02982241383081        0.46197304756459       44.55459589153379
C           29.23689851040063        1.91340805005461       52.34718627510275
H           29.40366391133666        1.34302447078754       53.25787807178492
H           28.24157363070134        1.66492585593205       51.98110255602369
H           29.24179853517455        2.97085484777380       52.60966804099142
C           31.70853709058990       -0.11625109162620       52.59980862313556
H           32.78828912200946       -0.14789923750454       52.71852585016951
H           31.35359955487275       -1.13705801850189       52.46152415692463
H           31.27985545836228        0.26579103984828       53.52237390884992
C           27.55745797467032        5.34177281719446       48.60752670477687
H           27.93511860189226        5.90213918104743       49.46331526674488
H           26.94518116213257        4.52631588947151       48.98912746639807
H           26.92287578988143        5.99813912030706       48.02182302448548
C           28.53986689683442        6.15911368812781       45.62085332823725
H           28.59204636525837        5.93558183547039       44.56081784247488
C           27.99551504065308        7.31965637559059       45.97972797463388
H           27.93713683248798        7.63071311648697       47.00624387759534
H           27.60566146384052        8.00954004460369       45.24964158850059
C           32.43670006202574        4.53451608509563       42.35373831259842
H           32.27410774226274        5.52822803679371       42.76695945289547
H           31.54068979058873        4.25572330370010       41.79635237916587
H           33.26437263838795        4.59926798218689       41.65333097885530
C           34.59656299062850        2.11063242186659       42.45418459353376
H           35.48343973856925        1.59954101801949       42.80875389643899
C           34.46262498292657        2.28740884359456       41.14170615146164
H           33.59325862707909        2.75179485902095       40.71740268045279
H           35.21427690623710        1.95603070654254       40.44565783587498
C           36.13727049488619       -1.46663446033929       46.07509676465048
H           36.84352378543385       -0.74666366075416       45.65762289516413
H           35.64967194809051       -1.96109364730559       45.23212711701285
H           36.70782590268269       -2.21328676300108       46.61967002513335
C           35.38924361842083       -2.06347769171390       49.19325615998952
H           36.05903104174095       -1.58553848874921       49.91286946876507
H           35.96398260745739       -2.82081811314576       48.66499232650682
H           34.61923868027282       -2.57886624120308       49.76981629636203
O           30.56911086850810        0.77177490591172       46.77671664381835
H           29.70660211052258        1.19441733338926       46.73570158084051
H           30.61492413783110       -0.18239900373589       46.67768248949631
C           33.59858912049178        4.03477803839834       49.90291126470785
H           33.87827165395117        5.03830627960218       50.20886550805612
H           34.35571525647209        3.32777271805784       50.22191541296379
H           32.63740055464171        3.75515650189718       50.31538019972915
S           33.51652521554484        3.94981025768464       48.08569224920151
H           32.45961896827801        4.76077838429577       47.97729935775892
72
 energy: -105.972127866626 gnorm: 0.037206082937 xtb: 6.7.1 (edcfbbe)
Fe          32.03051454226361        2.12494355123594       47.42434722990993
N           31.45881027321174        1.68353083902999       49.32084257669399
N           30.52538549650350        3.50311913876048       47.29220930711875
N           32.55926939835251        2.54347657046335       45.52132069204229
N           33.44998109776679        0.69057809346549       47.53038756680015
C           32.04339318710263        0.78536110908191       50.15415314629933
C           31.34059144935176        0.74261766191546       51.42326425122234
C           30.29423801726962        1.60878439413734       51.31159351864154
C           30.38924551327340        2.19334959982408       49.98546358086032
C           29.59325760583915        3.76859599522565       48.24610716912547
C           28.69938270141839        4.80894233990932       47.80170332598947
C           29.10940970804382        5.16135956053410       46.53700388866421
C           30.24930178336509        4.31414181593210       46.23793553672681
C           32.04197957450694        3.51649401949200       44.72845969212566
C           32.71680665322256        3.54233998923886       43.44942659744629
C           33.64547409050683        2.53194422317650       43.48089712520530
C           33.53488565522820        1.93289554397642       44.80707682197259
C           34.26957815612919        0.30364799986910       46.52164894041118
C           35.11954042022827       -0.79032699803709       46.95429277800775
C           34.80253484668555       -1.03312894214472       48.25171238526800
C           33.74819989752826       -0.09519005394503       48.59470293020561
C           33.11746786019394       -0.02702989426975       49.83017200992619
H           33.47646164602511       -0.69960896551779       50.59678264252936
C           29.51602464804374        3.14530904864601       49.48605867748635
H           28.70078878974895        3.44246222401494       50.13013929209828
C           30.97760905110787        4.34379931436195       45.05888721638928
H           30.67415298501087        5.06326279153744       44.31193790017541
C           34.31009557703052        0.87641770107329       45.25877869437389
H           35.02390826628687        0.46291490826552       44.56190512483695
C           29.24651728278575        1.91979128495670       52.32482658209772
H           29.41399598285253        1.34780849217684       53.23417439856096
H           28.25408837933243        1.67030262599068       51.95092375244689
H           29.25122120170075        2.97854099286914       52.58289314378416
C           31.71375888140084       -0.11241656352571       52.58388291369894
H           32.79360069417051       -0.14517573860795       52.70987682803462
H           31.35832023758476       -1.13391771734297       52.44462970627977
H           31.27746887118509        0.27064667342046       53.50324520821764
C           27.55987667432062        5.33038035483533       48.60375708951595
H           27.92886366900763        5.90368937788873       49.45549724834162
H           26.95315532363028        4.51233869630579       48.99004897757957
H           26.92366043418722        5.97367063244370       48.00387914015370
C           28.55492223035509        6.14682191350810       45.63530360211313
H           28.61510096203448        5.90748034092208       44.57933301953533
C           28.00614850275659        7.30735644449445       45.98565991971272
H           27.96022825307929        7.63943705059237       47.00816560579762
H           27.60958234873245        7.98773504525909       45.25140233438881
C           32.43728928805970        4.53250707309834       42.37359340222944
H           32.26447985205877        5.52107784788226       42.79526727384917
H           31.54925037713982        4.24748657966288       41.80631296369072
H           33.27563911311861        4.60083629180217       41.68604560597043
C           34.58602861281499        2.11637163139193       42.46704076606684
H           35.47375842779595        1.61495284486698       42.83217274695163
C           34.45510501119567        2.27954799922818       41.15199236884668
H           33.57803351528516        2.71685308959679       40.70865929196621
H           35.21600402797674        1.95246469895059       40.46433245994738
C           36.12685238457448       -1.46164959566489       46.08094990377407
H           36.82983939515183       -0.73448233623460       45.67576612924103
H           35.63603966426528       -1.95567073949129       45.24165826679916
H           36.69141765237713       -2.20659618274346       46.63417827593225
C           35.38096008974679       -2.04440389159889       49.18526315980305
H           36.04819710730388       -1.56351378834374       49.90253543117868
H           35.95185060529728       -2.79387673121030       48.64325521610110
H           34.59867594613286       -2.55507593306118       49.74518932093176
O           30.57488800352288        0.75437705182211       46.66061207553630
H           29.66605230617303        1.12025000074539       46.75484892306594
H           30.57945125017901       -0.22604619904619       46.69668056676190
C           33.59434440207164        4.02827342780605       49.91390431592122
H           33.88227692982078        5.03410349123363       50.20495445348101
H           34.35120114148932        3.31845389631244       50.22695808962293
H           32.63449916833400        3.75457847883584       50.33326726519398
S           33.50769410206532        3.92988423108117       48.09253213184290
H           32.49437280568706        4.80380327763841       47.97331950648248
72
 energy: -105.974451626941 gnorm: 0.022394171083 xtb: 6.7.1 (edcfbbe)
Fe          32.02337520647598        2.12384071387250       47.41791684582822
N           31.45432499450826        1.67618233068140       49.30002998908618
N           30.53562726052601        3.49371924203674       47.30175225457894
N           32.55882817310565        2.54287050043549       45.53466078099846
N           33.43620836483014        0.70532354317577       47.52436624892764
C           32.04338275645419        0.78773843429671       50.13962102764255
C           31.34900802119733        0.74858305213105       51.40780078554471
C           30.30571856362956        1.61467663202901       51.29774515996865
C           30.39431773315077        2.19365773803728       49.97606217007625
C           29.60424675114560        3.76610007302825       48.25524416012562
C           28.71321912055558        4.80420143201924       47.81211594671247
C           29.12742307942735        5.15758406966038       46.55347108663515
C           30.26273921370462        4.30865703372925       46.25239464822604
C           32.03592098353077        3.51123837045773       44.74070120572055
C           32.70555322336373        3.53811513514387       43.46421758437917
C           33.63505548320105        2.53220776417964       43.49410360467299
C           33.52993826527096        1.93404340046249       44.81533380954699
C           34.25614735000887        0.31735437255959       46.51663622885138
C           35.10990027754823       -0.77153502628671       46.94693542542966
C           34.79294818058607       -1.01174497967343       48.25428254492311
C           33.73977772886695       -0.07586521083125       48.59267084355131
C           33.11640467886525       -0.02022869517542       49.82246877351554
H           33.47021069707380       -0.69412826154102       50.58687849617982
C           29.52556427572188        3.15186613304975       49.49176680683556
H           28.72450530467365        3.46317325405975       50.14386473725793
C           30.97699537616565        4.33933865520249       45.07045100753067
H           30.66232430324316        5.05247377129236       44.32452347078094
C           34.30365641954320        0.88063575694310       45.25837197383690
H           35.01755093666222        0.46143751997754       44.56651255342784
C           29.25512171790069        1.93112930433631       52.30344980414328
H           29.42033857527858        1.35976490979926       53.21415666172513
H           28.26571036064494        1.68041802854305       51.91948291012771
H           29.26132061674831        2.99244508201109       52.55409784973502
C           31.72299579108059       -0.10819023607573       52.56806130798827
H           32.80370049915832       -0.13868961149532       52.69853591382694
H           31.36877489965500       -1.13095632835345       52.42447171842721
H           31.27938976056117        0.27569381983484       53.48517633441489
C           27.56104685008410        5.31829073819944       48.60119821886900
H           27.91579156452861        5.91127608068714       49.44752069627840
H           26.96399443855136        4.49482938514320       48.99437624310131
H           26.92109557152786        5.94271326334364       47.98164104286071
C           28.57287810255248        6.13627680070450       45.64696483158384
H           28.63130146961633        5.87741866010191       44.59516236081295
C           28.02462634758500        7.29747931640604       45.98996859354504
H           27.98315234475550        7.64217825721888       47.01034887285606
H           27.61355984262044        7.96534452362746       45.25095262530126
C           32.43496950496645        4.53138011185094       42.39206961685823
H           32.24855982758655        5.51503673255691       42.82217109862512
H           31.55732500105031        4.24087551500860       41.81008953870161
H           33.28783538488535        4.60440012302991       41.72075666834455
C           34.57574020105324        2.11962390749128       42.48081545783561
H           35.47177916383298        1.63859685250630       42.85573498587605
C           34.44252568989648        2.26404041660859       41.16402329052496
H           33.55984836907580        2.68032432041537       40.70591218936430
H           35.21500677949034        1.94234200821235       40.48484948743324
C           36.11655089161013       -1.45075295876816       46.08727081468480
H           36.82196292395253       -0.72206964358908       45.69123706338770
H           35.62581551241217       -1.94587491704227       45.24930475735548
H           36.67275380074905       -2.19558553381522       46.65131969876300
C           35.37062171388386       -2.02362941262474       49.17828477847679
H           36.03414705386844       -1.54314656187789       49.89814706482329
H           35.94243780596813       -2.76467745513333       48.62484628916284
H           34.58055841300918       -2.53533753850099       49.72435015382101
O           30.55427462808325        0.71251672289876       46.66078893119103
H           29.66901700769514        1.06807148515729       46.69414424924370
H           30.55209771028787       -0.24984476345059       46.68156756659260
C           33.59278216791846        4.02124547065707       49.92401162787490
H           33.88614168872730        5.02856189132766       50.20593819567392
H           34.34731766637927        3.30805994288970       50.23798119117764
H           32.63112549800319        3.75482958609048       50.34804807073637
S           33.51383306777986        3.91500870067492       48.09979390965123
H           32.54230105194881        4.84106624844087       47.96607714743197
72
 energy: -105.974987466729 gnorm: 0.037348769770 xtb: 6.7.1 (edcfbbe)
Fe          32.02648593432836        2.13681069078368       47.42058912638952
N           31.44626149169981        1.66641207971447       49.28128668755806
N           30.53859922347597        3.47809682548916       47.30553200964791
N           32.55584192279338        2.54176957156533       45.54624091433061
N           33.42004543631853        0.71696863597315       47.51707700939001
C           32.03940028112537        0.78415551037224       50.12725760263679
C           31.35306255152518        0.75023221957566       51.39701898734089
C           30.31219127792527        1.61818967488332       51.28995273181038
C           30.39529732863477        2.19237932265063       49.96998983956851
C           29.60967559888792        3.76169957004885       48.26055691418694
C           28.72265729862883        4.80169450263273       47.81839365318039
C           29.13868946080223        5.15475756741273       46.56280558747429
C           30.27057710244681        4.30274159490500       46.26119156328970
C           32.03158284907111        3.50914940252695       44.74941794781878
C           32.69650108704402        3.53619797902990       43.47300995700657
C           33.62686855747495        2.53292442837233       43.50198975081977
C           33.52307582340153        1.93399083570500       44.81973681141746
C           34.24452292051283        0.32609326286355       46.51387176993084
C           35.10308192182374       -0.75396941436436       46.94670036071762