81
 energy: -118.296176482713 gnorm: 0.265046761141 xtb: 6.7.1 (edcfbbe)
Fe          -4.34800000000000       15.07600000000000       18.13300000000000
N           -2.87100000000000       16.29600000000000       18.61799999999999
N           -4.48500000000000       14.34900000000000       19.98500000000000
N           -5.76300000000000       13.89500000000000       17.67400000000000
N           -4.19300000000000       15.84500000000000       16.17700000000000
C           -2.19400000000000       17.23200000000000       17.83500000000000
C           -1.22600000000000       17.88800000000000       18.62300000000000
C           -1.25600000000000       17.36600000000000       19.84000000000000
C           -2.27100000000000       16.35900000000000       19.87100000000000
C           -3.64000000000000       14.72400000000000       21.03500000000000
C           -4.05400000000000       13.99300000000000       22.21400000000000
C           -5.09900000000000       13.23400000000000       21.90500000000000
C           -5.39400000000000       13.46100000000000       20.50100000000000
C           -6.63700000000000       13.16400000000000       18.49900000000000
C           -7.79100000000000       12.72200000000000       17.78700000000000
C           -7.60300000000000       13.10500000000000       16.52500000000000
C           -6.35900000000000       13.81100000000000       16.42100000000000
C           -4.89000000000000       15.28300000000000       15.14900000000000
C           -4.42100000000000       15.82200000000000       13.90500000000000
C           -3.32700000000000       16.77200000000000       14.28700000000000
C           -3.26100000000000       16.73400000000000       15.72100000000000
C           -2.43000000000000       17.48100000000000       16.50300000000000
H           -1.92100000000000       18.32800000000000       16.04400000000000
C           -2.59800000000000       15.60100000000000       20.96400000000000
H           -1.97300000000000       15.70800000000000       21.85100000000000
C           -6.43100000000000       12.90300000000000       19.81800000000000
H           -7.11200000000000       12.23200000000000       20.34000000000000
C           -5.89400000000000       14.35700000000000       15.24300000000000
H           -6.36200000000000       14.02600000000000       14.31600000000000
C           -0.32900000000000       17.80200000000000       21.00100000000000
H           -0.20900000000000       18.90600000000000       20.98500000000000
H            0.66900000000000       17.32900000000000       20.88200000000000
H           -0.77800000000000       17.50300000000000       21.97200000000000
C           -0.28600000000000       19.03500000000000       18.18500000000000
H           -0.69500000000000       20.00500000000000       18.54000000000000
H           -0.21300000000000       19.05800000000000       17.07700000000000
H            0.72100000000000       18.88500000000000       18.62900000000000
C           -3.44700000000000       14.03700000000000       23.63300000000000
H           -4.15600000000000       14.54100000000000       24.32400000000000
H           -2.49400000000000       14.60700000000000       23.61600000000000
H           -3.26400000000000       13.00300000000000       23.99500000000000
C           -5.84100000000000       12.35300000000000       22.95100000000000
H           -5.64000000000000       12.50800000000000       24.02100000000000
C           -6.71300000000000       11.41400000000000       22.63100000000000
H           -6.83600000000000       11.09900000000000       21.58400000000000
H           -7.32800000000000       10.93500000000000       23.40700000000000
C           -8.99200000000000       11.91400000000000       18.38100000000000
H           -9.89300000000000       12.56300000000000       18.42000000000000
H           -8.74500000000000       11.57800000000000       19.41100000000000
H           -9.20900000000000       11.03500000000000       17.73600000000000
C           -8.54200000000000       12.87800000000000       15.32300000000000
H           -8.15800000000000       12.99200000000000       14.29900000000000
C           -9.83800000000000       12.54000000000000       15.47600000000000
H          -10.26700000000000       12.41500000000000       16.48100000000000
H          -10.48200000000000       12.38500000000000       14.59800000000000
C           -4.89600000000000       15.44300000000000       12.48000000000000
H           -5.98300000000000       15.65300000000000       12.38300000000000
H           -4.72100000000000       14.36000000000000       12.30200000000000
H           -4.34400000000000       16.04600000000000       11.72800000000000
C           -2.50200000000000       17.65300000000000       13.35400000000000
H           -3.00500000000000       18.63600000000000       13.23100000000000
H           -2.41300000000000       17.16600000000000       12.35900000000000
H           -1.49200000000000       17.81700000000000       13.78800000000000
C           -0.54200000000000       11.88300000000000       15.41900000000000
H           -0.27900000000000       10.86700000000000       15.78400000000000
H            0.39300000000000       12.43400000000000       15.18300000000000
H           -1.16700000000000       11.78700000000000       14.50600000000000
N           -0.77100000000000       12.86200000000000       17.72000000000000
H            0.14500000000000       12.59100000000000       18.01600000000000
C           -1.30100000000000       12.60900000000000       16.47400000000000
C           -1.66900000000000       13.51500000000000       18.44400000000000
H           -1.50800000000000       13.86300000000000       19.46400000000000
N           -2.76200000000000       13.65900000000000       17.71600000000000
C           -2.55800000000000       13.11800000000000       16.47800000000000
H           -3.32500000000000       13.14500000000000       15.71400000000000
C           -5.37600000000000       18.10600000000000       18.98000000000000
H           -4.53300000000000       17.99100000000000       19.69500000000000
H           -6.09200000000000       18.83900000000000       19.40900000000000
H           -4.96700000000000       18.51200000000000       18.03000000000000
S           -6.20000000000000       16.53300000000000       18.68100000000000
H           -6.13800000000000       16.12900000000000       19.94100000000000
81
 energy: -118.356172650962 gnorm: 0.116361543391 xtb: 6.7.1 (edcfbbe)
Fe          -4.34444672769023       15.05629982076260       18.14041750262691
N           -2.86999346370746       16.30555982585579       18.62572988275953
N           -4.48190255539178       14.34947443782645       20.01214022994880
N           -5.79485295623139       13.88581173744558       17.65532027150935
N           -4.18810163739004       15.81504137054305       16.19345860689010
C           -2.21081571733998       17.23729129611888       17.84101329286353
C           -1.21580664799322       17.90945429396443       18.61923188880377
C           -1.24015342385331       17.37329301883063       19.85777650709126
C           -2.26841165335654       16.36668062798144       19.86612367444765
C           -3.64309440188434       14.70214534687013       21.04930698252218
C           -4.04079209065702       13.98697842672138       22.24117570712033
C           -5.10572979630874       13.21087114021759       21.92746307754581
C           -5.37876115724018       13.45384145087855       20.52166224179225
C           -6.64691197536601       13.16963585842615       18.48306554870782
C           -7.80494092423830       12.70246007768256       17.77325990909356
C           -7.62625471046534       13.08751717612782       16.48338359428796
C           -6.37547551796536       13.80998545312798       16.40943354133650
C           -4.86299116573726       15.28595284463811       15.14030812481997
C           -4.38415964169035       15.84284409384080       13.90160865896302
C           -3.36638319363446       16.75952076889380       14.26686288689858
C           -3.29280987911300       16.71770778502010       15.70489870411599
C           -2.44521570948678       17.47223209670838       16.49919056116597
H           -1.91567186584295       18.30066160542353       16.03787208923649
C           -2.59943444365775       15.59839619113496       20.96573194022090
H           -1.98328478132148       15.71742499078743       21.85042156725813
C           -6.42539637563454       12.91155253558373       19.81393626663948
H           -7.11351548133663       12.25962686976009       20.32806510554482
C           -5.88811722432180       14.35998903759796       15.23813866739446
H           -6.36171415309993       14.04541088446422       14.31683428488030
C           -0.33993056877357       17.79513352370964       20.99985143476209
H           -0.21422847907682       18.88327722109159       20.98643698339421
H            0.64902076535667       17.33434841385719       20.88880753481950
H           -0.76747060656025       17.50541124248032       21.96311017902446
C           -0.29509317196908       19.02786715989928       18.18042181980231
H           -0.68899666939006       19.98950134340484       18.53155142687715
H           -0.20989593888795       19.06042160882600       17.09156033901113
H            0.70011405259454       18.88590823103428       18.61519340033948
C           -3.43779257073215       14.04698965600712       23.62474572398342
H           -4.13883841159613       14.53703376007469       24.31145038885686
H           -2.49752985392280       14.60200422862233       23.62325480846914
H           -3.25852803929466       13.02856672099432       23.98666852945023
C           -5.84058503325635       12.36454251680075       22.92282765975743
H           -5.64003511087711       12.55030202626495       23.97908641331864
C           -6.71084188483963       11.40905872143544       22.62734411478738
H           -6.85444857051683       11.08113186647554       21.60817260777508
H           -7.30036509447149       10.92210248026494       23.39807064016046
C           -8.96786423581770       11.92438637855565       18.37848811662649
H           -9.86380491361124       12.55572129996648       18.43142343349136
H           -8.74280309137982       11.58259414525494       19.39208922326045
H           -9.19389725432454       11.05274160344944       17.75261216851129
C           -8.54612444856897       12.87297932747579       15.33505549823033
H           -8.14918273596468       12.99447320306948       14.32929422640993
C           -9.82901381247985       12.54070954442415       15.47012287370427
H          -10.27810498123225       12.42537280907561       16.44436311956221
H          -10.46742608443548       12.38844137986301       14.60676939655800
C           -4.87691995542091       15.46060190401547       12.51296376970231
H           -5.95299508055273       15.65507415888590       12.39981263478368
H           -4.71643812208037       14.39079141936708       12.31589294722100
H           -4.34983362666926       16.03698195149852       11.74649389164417
C           -2.52632495404429       17.63355352302545       13.36502841228825
H           -2.99986285125388       18.61637375653677       13.23230100395504
H           -2.41523185144823       17.17412578001589       12.37677952561027
H           -1.52397427266827       17.80216077454024       13.78191324563459
C           -0.53777444097162       11.87963788076018       15.41966956663964
H           -0.27423082705596       10.87464918485969       15.77039044605922
H            0.38437139219678       12.42008902046961       15.17674631177232
H           -1.15164433260498       11.78935170215498       14.51966929367512
N           -0.76616183421652       12.85724505800659       17.71017238611922
H            0.15452666559842       12.58795826015549       18.01094900997850
C           -1.29672773962202       12.60217011088828       16.47123888458017
C           -1.68538348548673       13.51237523253246       18.43420790097370
H           -1.52587701426497       13.85491740046274       19.44377054543238
N           -2.77686228893548       13.67877269832856       17.71913913571824
C           -2.55744619304430       13.11996935525075       16.49332334259003
H           -3.31572033224256       13.14574146112343       15.73205217095902
C           -5.36932376891929       18.13101052221612       18.99093432109088
H           -4.53728365557221       17.99274684869605       19.68700509841700
H           -6.08990760816513       18.84327778813811       19.40515153659609
H           -4.97658081643346       18.50536297780065       18.04077607109123
S           -6.18119494053852       16.54989336897730       18.67882647086569
H           -6.15139204959896       16.13448638568164       19.94318869917332
81
 energy: -118.373613879676 gnorm: 0.032363236124 xtb: 6.7.1 (edcfbbe)
Fe          -4.33322075700198       15.03973361539014       18.13577093298075
N           -2.86851405394202       16.31428580583539       18.63850364509782
N           -4.46808154912599       14.34185491751099       20.02867788232499
N           -5.81986932415801       13.87136712643757       17.63080459369778
N           -4.18002434295633       15.77901793105419       16.20486577629052
C           -2.22883845559898       17.23638841413753       17.85164198835040
C           -1.21581911684996       17.92298927798329       18.61947463900278
C           -1.23472108162913       17.37999742571238       19.86984623757025
C           -2.27111001771152       16.37406371859838       19.86632026507445
C           -3.64340030143381       14.68360833960038       21.05854194316671
C           -4.02920825870494       13.98050165284274       22.25646918995708
C           -5.10985531838684       13.19483215036765       21.93667118304930
C           -5.36386630367988       13.44814607740433       20.53032067508225
C           -6.65031742334567       13.17608020959168       18.46432316604935
C           -7.81201283363370       12.69098247199543       17.76233185040888
C           -7.64679623361011       13.07360815988712       16.45355106079189
C           -6.38856772876101       13.80222468438057       16.39634296322655
C           -4.84347482629080       15.27363002097491       15.13608692138112
C           -4.35785345674959       15.85824527724606       13.90406616638935
C           -3.39979520225642       16.74615009073721       14.25834633821888
C           -3.31165432479508       16.69616083662511       15.70324607362452
C           -2.45708163515677       17.45332927752980       16.50130210811849
H           -1.90620348565790       18.25945581814427       16.03198567387379
C           -2.60427667932758       15.60104191644764       20.96928205433426
H           -1.99789194137374       15.73427067677916       21.85422760888460
C           -6.41854234062346       12.92874530302992       19.80334782201841
H           -7.12083359920725       12.29900411563166       20.31495426609722
C           -5.88471868868139       14.35756064662836       15.23163545282106
H           -6.37023954215876       14.07131496373371       14.31106903567138
C           -0.35089753066382       17.78794368426236       20.99807034898078
H           -0.21947668832958       18.86840201563536       20.99036438898145
H            0.63522572708567       17.33288295975963       20.89624196827924
H           -0.76527844607654       17.50118634045060       21.95858683253021
C           -0.30873200449550       19.01998135667780       18.17550430970414
H           -0.68870209717880       19.98258509128407       18.52079084542452
H           -0.21524153668868       19.05770987192947       17.09580468710845
H            0.68280456482761       18.88322460186519       18.60331354931260
C           -3.42568958224049       14.05524220708773       23.61574900860655
H           -4.11904116842803       14.54078137319089       24.30380339732049
H           -2.49279687800716       14.60550402346411       23.62248937746412
H           -3.24147613204647       13.04860441348616       23.98788188945965
C           -5.83702836503595       12.38072751768471       22.88478120796350
H           -5.64333675272643       12.60738324323433       23.93010494194169
C           -6.70088087092268       11.40111744201968       22.62298170118220
H           -6.87452304040929       11.05159725135568       21.62484474868685
H           -7.25737070863611       10.90658135799940       23.40221792844210
C           -8.94217680172341       11.93122661619743       18.37118538208327
H           -9.83357861689316       12.55675297445119       18.44010721407612
H           -8.71563025339767       11.58824590551137       19.37531445331297
H           -9.18304721505660       11.06257509189203       17.75842184550167
C           -8.54252591843231       12.86377288518774       15.34647342108424
H           -8.12989679399240       12.99559434065173       14.35412894549749
C           -9.82752960517374       12.54047515622952       15.45801993566033
H          -10.30429036081713       12.43238394320161       16.41012552443037
H          -10.45554226448239       12.39246878697290       14.59727663117166
C           -4.85572138498235       15.47898934335194       12.54254815066404
H           -5.92594501249096       15.66986720407585       12.43860240671313
H           -4.70098221945159       14.41495304209790       12.34683727412339
H           -4.34165589472503       16.04259148005991       11.76804777453261
C           -2.55370520287060       17.61629862284758       13.37766003242083
H           -3.01106361770288       18.59943663923505       13.24344842814900
H           -2.43184893103878       17.16953494487310       12.39290658316352
H           -1.55933622177665       17.77400654671377       13.79631159545750
C           -0.53790365731419       11.87708625324941       15.41890456431002
H           -0.27059572775454       10.87809716573033       15.76015712625443
H            0.37782748788594       12.41243146778501       15.17353811296369
H           -1.14386501462339       11.79077549206608       14.52433379292919
N           -0.76857793513281       12.85435501093494       17.70552464852619
H            0.15418177659962       12.58910319126965       18.01141921385877
C           -1.29861110660636       12.59742590931196       16.46960810353638
C           -1.70259316848416       13.51246900386034       18.42581043802320
H           -1.54594146973711       13.84909467757041       19.42986616527735
N           -2.79252714554339       13.69096276718479       17.71982552215948
C           -2.55968805091715       13.12257361669532       16.50241314010043
H           -3.31071617458740       13.14250456459824       15.74036846232502
C           -5.36054916345927       18.15670260858544       19.00136695907965
H           -4.53521111978204       18.00752606605710       19.68578577944675
H           -6.08784434531225       18.85265576516282       19.40590819750603
H           -4.98205220591674       18.51255589523022       18.04946146489698
S           -6.15877974129357       16.56078383697434       18.67470720170159
H           -6.17784659023214       16.14767751055773       19.94704686411902
81
 energy: -118.378055619529 gnorm: 0.017270795898 xtb: 6.7.1 (edcfbbe)
Fe          -4.32794096648376       15.03391012909504       18.13038574612654
N           -2.87165067655721       16.31413547622626       18.65183621600293
N           -4.44917085204818       14.33413218968455       20.02642129168020
N           -5.82001343347077       13.85775333347553       17.60882348998483
N           -4.17230022547903       15.74639845670964       16.20943457263652
C           -2.23793908943428       17.23098313465469       17.86410742904507
C           -1.22536794750789       17.92571514406731       18.62619805098790
C           -1.24204916071272       17.38658886316107       19.87818073234820
C           -2.27575303570299       16.37887609121341       19.87689278824657
C           -3.63262343573042       14.67640295622184       21.06011062629334
C           -4.01946560039975       13.97673071626424       22.25451765132147
C           -5.10366684382388       13.19347851473617       21.92661274383420
C           -5.35104430633063       13.44560677219083       20.52089869129899
C           -6.64502595950019       13.17510674757900       18.45076660429324
C           -7.80737944116496       12.68526472325388       17.75570514317857
C           -7.65301519704172       13.06296085812746       16.44335698428055
C           -6.39285843530446       13.78739856116156       16.38111807190828
C           -4.83887160054328       15.24740358630706       15.13861509387098
C           -4.35505433703929       15.84297310925334       13.91132624377028
C           -3.40445535547473       16.74602446360391       14.27452827480430
C           -3.31117096789572       16.67605453909291       15.71935882492828
C           -2.45984138587871       17.43332974270772       16.51169247698231
H           -1.89099023674853       18.21878954045997       16.02989656774250
C           -2.60441473378093       15.60702184709501       20.97905145405503
H           -2.01245791693124       15.75867093903598       21.87096987166016
C           -6.41270610760045       12.94285290174606       19.79277659989786
H           -7.13534063273876       12.34133035494522       20.31331286792177
C           -5.88858259062352       14.34679237709901       15.22063392486021
H           -6.38825709099823       14.09258535144886       14.29634217088256
C           -0.35699926189076       17.78556145787004       21.00798137699862
H           -0.22093259147052       18.86584619536540       21.00566473118925
H            0.62775347267902       17.32597516345741       20.90614561113172
H           -0.77096543786082       17.49436933139045       21.96854317874426
C           -0.32023694773330       19.01797566444147       18.16786123665807
H           -0.69505655663741       19.98588448360051       18.50633429979019
H           -0.22977202103772       19.04874466802012       17.08665833021544
H            0.67363076928177       18.88152955322559       18.59161769524518
C           -3.40829671897362       14.06364411983941       23.61124630446568
H           -4.09713093901937       14.55380923603320       24.30172111286352
H           -2.47632304955666       14.61864340403004       23.61022281178489
H           -3.21332757096707       13.06244684882386       23.99470313646567
C           -5.84337170123694       12.39003312600443       22.86826072270131
H           -5.66273306697176       12.65583735532487       23.90772808385763
C           -6.68910229017614       11.38620421835858       22.62943512154927
H           -6.87274258778187       11.00492920178271       21.64128153228230
H           -7.20612391517268       10.87689251621990       23.42858998416201
C           -8.92570541648809       11.92601300853204       18.37759628518726
H           -9.81136121711106       12.55784900718631       18.47036015736086
H           -8.67483522120653       11.57559572142959       19.37425152374302
H           -9.18130636711236       11.06359588762158       17.76144058963468
C           -8.54582257354787       12.85388581157673       15.33400541226993
H           -8.11493026905376       12.98436724434037       14.34890779136166
C           -9.83760572238000       12.53820424798152       15.41908394313297
H          -10.34767242277278       12.44484177037755       16.35876645529672
H          -10.44587096477689       12.39542472540991       14.54343358291751
C           -4.84891749109882       15.48259776645629       12.55221776313509
H           -5.91727966545719       15.68259892480593       12.46507317670641
H           -4.69110090193016       14.42033654833258       12.35934688754279
H           -4.33230954233709       16.05326085294346       11.78516228510226
C           -2.56854417843358       17.61636564703782       13.39420918710065
H           -3.02775512224283       18.59799251063689       13.26523658217399
H           -2.45308631856177       17.16754318289240       12.40953832836828
H           -1.57630124300971       17.76020054701990       13.81782437090326
C           -0.54077832945330       11.87580108982357       15.41680562535358
H           -0.26940596527754       10.87563358269485       15.75320514448844
H            0.37489543050750       12.41249625157036       15.17176226796611
H           -1.14414555365994       11.79060762743264       14.51981606173229
N           -0.77990604218111       12.85229039877644       17.70498894974851
H            0.14247939304116       12.59060806182551       18.01479877337259
C           -1.30616752283100       12.59374655128637       16.46706865507888
C           -1.71840867387165       13.51117199103152       18.42033764652836
H           -1.56879808829370       13.84409418246204       19.42633330039401
N           -2.80452866720265       13.69273219879985       17.71048173786032
C           -2.56683302293667       13.11945811079844       16.49645930087082
H           -3.31478119543259       13.13401506102910       15.73180145444675
C           -5.35067387092952       18.18672816760520       19.01072089081624
H           -4.52532331538504       18.03968777594173       19.69607336855107
H           -6.08817778671170       18.87407526555650       19.41366775133057
H           -4.97641491351455       18.54451544057485       18.05796833991873
S           -6.13506086466206       16.58207955694094       18.66799690473287
H           -6.21142839621174       16.17998731686243       19.94639302992306
81
 energy: -118.380676154820 gnorm: 0.013241027511 xtb: 6.7.1 (edcfbbe)
Fe          -4.31565146977304       15.02781953882606       18.12258236151041
N           -2.86750426884575       16.30876986961662       18.66637495457000
N           -4.43115078853777       14.33586541257105       20.02233790958826
N           -5.82224056831832       13.84730704379687       17.58694142011441
N           -4.16826872849648       15.71367607533178       16.22248121672090
C           -2.23919063741574       17.22063281493480       17.87800555876359
C           -1.23212178050878       17.92808529539956       18.63515599916177
C           -1.24912523300077       17.39749660079736       19.88969914104652
C           -2.27828408893499       16.38588808867481       19.89212952261250
C           -3.62088803217134       14.67420354545447       21.06182338246484
C           -4.01262111501569       13.97852611196923       22.25283148550842
C           -5.10152285792870       13.20301654987555       21.91681031061344
C           -5.34039869845594       13.45359474297409       20.51116362450943
C           -6.64152598148529       13.17440211624525       18.43932805835189
C           -7.80424110492070       12.67794348891733       17.74937575550959
C           -7.65927263606476       13.04823250605730       16.43477982424761
C           -6.39991887394697       13.77182463947858       16.36513698426772
C           -4.83608509043712       15.22224260474756       15.14810714448548
C           -4.35535815170879       15.83229638116339       13.92812502480058
C           -3.40605463555102       16.73511151750314       14.29916851221036
C           -3.30881557873327       16.64815655109895       15.74241569520407
C           -2.45481366199956       17.40365612270108       16.52297881185490
H           -1.87465870703115       18.16959427990294       16.02751802539970
C           -2.60461978522549       15.61809769802813       20.99389526122909
H           -2.03033508099537       15.78799762136183       21.89389474382000
C           -6.40831871976821       12.96400914877273       19.78577808550414
H           -7.14388245247043       12.39006700798311       20.32275553825311
C           -5.89554721589317       14.33799388516056       15.20932207499594
H           -6.40127330583945       14.11547602662558       14.27969205463562
C           -0.36385356302791       17.78771742847405       21.02331172589086
H           -0.21969430931715       18.86736225404352       21.02881934411430
H            0.61760218389234       17.31926158371979       20.92122034260575
H           -0.78185691838858       17.49167488208639       21.98186715806290
C           -0.33246924551069       19.01738880996285       18.15891244119843
H           -0.70617013254340       19.99029050729770       18.48592455382333
H           -0.25079196447552       19.03325389399776       17.07546259824803
H            0.66511102732831       18.88572229617157       18.57713150615355
C           -3.38920136709436       14.07280356378588       23.60464641793235
H           -4.06939190696547       14.57014015998917       24.29991866814009
H           -2.45789994915785       14.63241882595538       23.58506682559416
H           -3.18212358559002       13.07691540019623       23.99770909260035
C           -5.83993357332825       12.39274513262332       22.85447731302426
H           -5.68247152158779       12.69370211282193       23.88832046461074
C           -6.65113886683055       11.35809524149478       22.63150978530762
H           -6.84061421060364       10.95089463859118       21.65295106986378
H           -7.16314649176212       10.86931005042689       23.44170262233847
C           -8.91808159831075       11.91556059807778       18.37316543932188
H           -9.79680008181537       12.55340421828925       18.49226497837902
H           -8.64542654153414       11.54423608592970       19.35832722122422
H           -9.19245182884863       11.06590599490296       17.74792966418748
C           -8.54768482796085       12.83850016370659       15.32002120792175
H           -8.09893144902339       12.95334763505121       14.34035961535947
C           -9.84506845019988       12.54093327856402       15.38285318334484
H          -10.37715753621688       12.44058922040127       16.31130469554313
H          -10.43053138344163       12.39661319362336       14.48979947760079