78
 energy: -116.058025388115 gnorm: 0.000132430769 xtb: 6.7.1 (edcfbbe)
Fe          32.88550543272696        9.59852488825594       15.29731446477638
N           34.26734343480306       10.91736602643875       15.85894539981357
N           31.59764872606872       11.07942903290280       14.93213725676257
N           31.47807757930417        8.24649553391601       14.79032553370194
N           34.15572190704563        8.09618178398964       15.71412201484668
C           35.53436897333884       10.65476318571502       16.27020088714352
C           36.23550641495533       11.88072622772124       16.58759095949628
C           35.35701431463485       12.89196681389411       16.35899803562486
C           34.13365565892986       12.26921388799389       15.89958173095621
C           31.82391684785131       12.41162311071533       15.08431335924750
C           30.66283842174161       13.17741546775413       14.70794974352291
C           29.71398958285564       12.27009984960568       14.31886039682028
C           30.32932934351294       10.96365715206692       14.46155300847074
C           30.22373401210328        8.51328110364716       14.32993455231467
C           29.51414891156659        7.29459657206219       14.04223325017403
C           30.37264331053310        6.26818439366987       14.33987862719195
C           31.59983559866026        6.89263776742699       14.79126368829247
C           33.91654142824192        6.76119264390507       15.59585004414193
C           35.09177794710473        5.99820839969935       15.95172221773745
C           36.05172271329632        6.90582680850831       16.27672327923407
C           35.44778570245383        8.20995052037980       16.12277068973598
C           36.10038107172939        9.39915124906960       16.38452203075761
H           37.12679631387560        9.34196170892576       16.71291525617730
C           33.00271404080893       12.97517609952682       15.54250316164116
H           33.03871059208848       14.05008189099455       15.63482767955488
C           29.68057484502814        9.77727763231511       14.18170513799289
H           28.66204091686251        9.83784008746740       13.83032156379987
C           32.72591898010447        6.19106802947943       15.18411831190808
H           32.67989705159341        5.11340024375951       15.15031172047211
C           35.54170183204788       14.36145575221502       16.52614099575352
H           36.53994778464777       14.58655749417702       16.89336515605214
H           34.81710140140689       14.75848588228566       17.23705004401232
H           35.40143389427197       14.87863682928150       15.57626096887407
C           37.64349758737578       11.94320409389463       17.07207182010918
H           38.32008478467857       11.49365610424354       16.34477893040245
H           37.74897814595755       11.40094468493616       18.01190112694433
H           37.95134867162572       12.97310080400929       17.23532088902616
C           30.58247552729139       14.66425216895786       14.69394024944292
H           31.52552879914035       15.10017685404197       14.36698383006688
H           30.36086817060885       15.05012906757244       15.69014697756802
H           29.79495568613848       14.98926796380720       14.01690171364289
C           28.37320591029812       12.50208595602247       13.82922819605501
H           28.01785775596056       11.79814717522361       13.08526885010758
C           27.56755338106449       13.48385130742637       14.22126099309739
H           27.84750153549503       14.18162204273870       14.99084587511745
H           26.58236255203227       13.60536067613662       13.80216631861841
C           28.14298728992578        7.21633416235580       13.46777372044176
H           27.99019081996525        8.00174473167769       12.72915567151153
H           27.38668705103555        7.33356928781170       14.24582451887809
H           27.99420371062097        6.25179866414691       12.98657872253268
C           30.16855654411966        4.84141015684544       14.22168556379550
H           31.04590216088249        4.26250792443342       13.95648932201832
C           29.01695111634396        4.20805992363555       14.41968726163364
H           28.12537357822088        4.72361057780490       14.73124747855864
H           28.93371427805303        3.14044263263175       14.30098488539192
C           35.16414616797668        4.50960917731827       15.93727511993042
H           34.98711366282041        4.12619590769490       14.93189481349128
H           34.41071595494063        4.08149956126686       16.59902236869808
H           36.14219375996981        4.16705046853860       16.26594623340107
C           37.45743475618941        6.67730730859953       16.71514635623741
H           38.15496590203223        7.15610239291690       16.02767342907728
H           37.68485690701465        5.61463524234632       16.74894001810907
H           37.62209586019639        7.09529167728813       17.70860990141223
O           32.11487219796260        9.37023228347239       17.44609663966703
H           31.26296641173260        8.95146746449571       17.28203766634602
H           32.71251926000808        8.68346018019749       17.76146638394279
C           34.56360245142532        8.34337907524426       10.13106776953692
H           35.60119019913445        8.54634848149031        9.86607329133686
H           33.93212891146494        8.65568825492434        9.29945126189922
H           34.44420604752806        7.27436180949924       10.27614627744930
N           34.23321713327339       10.42432401655964       11.48453889457737
H           34.51547040975984       11.06275126674703       10.75901781162549
C           34.18737511269861        9.05907210080286       11.37637675825873
C           33.83120902851044       10.75039828960255       12.73369430104552
H           33.76746609943246       11.75372298833421       13.10208101790826
N           33.53391975592353        9.67506072112397       13.42234233440511
C           33.75078328295432        8.61541607555709       12.59162190805629
H           33.57944068404941        7.61191422585021       12.92092536160979
