87
 energy: -124.457191598847 gnorm: 0.318014267070 xtb: 6.7.1 (edcfbbe)
Fe          12.33500000000000       14.87700000000000        7.12500000000000
N           11.31300000000000       15.62500000000000        8.64300000000000
N           11.59600000000000       16.28400000000000        5.94100000000000
N           13.40700000000000       14.17700000000000        5.59800000000000
N           13.05100000000000       13.43000000000000        8.29800000000000
C           11.33200000000000       15.20400000000000        9.96100000000000
C           10.48900000000000       16.03600000000000       10.76900000000000
C            9.92000000000000       16.94700000000000        9.92900000000000
C           10.42300000000000       16.67300000000000        8.61900000000000
C           10.52700000000000       17.12900000000000        6.19800000000000
C           10.11100000000000       17.80500000000000        5.02000000000000
C           10.99600000000000       17.43200000000000        4.01900000000000
C           11.87400000000000       16.50900000000000        4.60800000000000
C           13.61000000000000       14.78900000000000        4.39500000000000
C           14.67000000000000       14.10100000000000        3.68500000000000
C           15.05600000000000       13.07100000000000        4.44600000000000
C           14.26100000000000       13.12100000000000        5.63900000000000
C           13.81600000000000       12.37700000000000        7.93300000000000
C           14.09400000000000       11.52800000000000        9.08000000000000
C           13.53200000000000       12.12100000000000       10.14600000000000
C           12.84800000000000       13.29600000000000        9.63700000000000
C           12.07500000000000       14.12800000000000       10.44000000000000
H           12.04900000000000       13.92500000000000       11.51100000000000
C           10.02100000000000       17.30900000000000        7.48100000000000
H            9.21700000000000       18.03700000000000        7.58900000000000
C           12.89500000000000       15.85800000000000        3.94700000000000
H           13.15800000000000       16.24000000000000        2.96100000000000
C           14.37900000000000       12.19000000000000        6.69300000000000
H           14.94500000000000       11.27600000000000        6.51500000000000
C           10.27300000000000       15.85900000000000       12.24600000000000
H           11.34200000000000       15.94400000000000       12.53700000000000
H            9.99600000000000       14.78400000000000       12.20200000000000
H            9.65100000000000       16.38100000000000       13.00400000000000
C            8.97100000000000       18.06500000000000       10.28700000000000
H            8.18500000000000       17.77500000000000        9.55800000000000
H            9.57500000000000       18.89200000000000        9.85600000000000
H            8.48400000000000       18.40100000000000       11.22700000000000
C           13.60100000000000       11.72300000000000       11.57500000000000
H           13.29300000000000       12.05400000000000       12.59000000000000
H           14.71100000000000       11.71000000000000       11.52200000000000
H           13.20000000000000       10.70300000000000       11.39200000000000
C           14.92700000000000       10.24500000000000        8.98100000000000
H           15.97800000000000       10.31600000000000        9.29600000000000
C           14.18200000000000        9.02000000000000        9.35400000000000
H           13.12800000000000        8.89800000000000        9.06400000000000
H           14.67400000000000        8.21900000000000        9.92500000000000
C           16.21000000000000       12.10100000000000        4.24900000000000
H           15.61200000000000       11.16500000000000        4.26200000000000
H           16.66800000000000       12.25000000000000        5.25000000000000
H           17.00500000000000       12.01000000000000        3.47800000000000
C           15.22200000000000       14.57200000000000        2.34300000000000
H           15.29900000000000       15.64600000000000        2.24700000000000
C           15.18300000000000       13.56300000000000        1.29400000000000
H           15.10200000000000       12.49600000000000        1.54800000000000
H           15.23500000000000       13.85600000000000        0.23500000000000
C           10.98300000000000       17.87300000000000        2.58600000000000
H           11.43300000000000       17.64200000000000        1.59700000000000
H           11.28500000000000       18.89800000000000        2.88900000000000
H            9.87700000000000       17.81200000000000        2.50200000000000
C            8.91900000000000       18.71099999999999        4.88100000000000
H            8.67900000000000       18.28600000000000        3.88300000000000
H            9.56600000000000       19.60400000000000        4.74700000000000
H            7.97300000000000       19.00000000000000        5.38600000000000
C           17.29800000000000       16.66300000000000        8.93600000000000
H           17.22100000000000       17.11600000000000        9.94700000000000
H           17.98500000000000       17.27900000000000        8.31700000000000
H           17.69700000000000       15.63100000000000        9.03300000000000
N           15.16300000000000       17.72600000000000        8.04300000000000
H           15.46300000000000       18.67299999999999        8.15900000000000
C           15.93600000000000       16.62400000000000        8.29800000000000
C           13.95600000000000       17.32100000000000        7.61800000000000
H           13.15100000000000       18.00300000000000        7.34600000000000
N           13.90500000000000       16.01500000000000        7.58500000000000
C           15.15600000000000       15.55900000000000        7.99000000000000
H           15.37100000000000       14.49800000000000        8.01900000000000
C            9.72000000000000       13.86800000000000        3.99900000000000
H            9.73300000000000       13.42200000000000        2.98200000000000
H           10.22800000000000       14.85500000000000        3.96000000000000
H            8.66300000000000       14.00300000000000        4.31300000000000
C           10.43900000000000       12.95400000000000        4.98000000000000
H           11.49100000000000       12.82300000000000        4.64900000000000
H            9.94600000000000       11.95900000000000        4.97600000000000
S           10.40000000000000       13.65200000000000        6.64100000000000
C           10.40200000000000       12.12700000000000        7.61700000000000
H           11.31000000000000       11.52000000000000        7.41500000000000
H            9.51300000000000       11.51000000000000        7.36600000000000
H           10.38300000000000       12.36600000000000        8.70200000000000
87
 energy: -124.586191746106 gnorm: 0.169989692093 xtb: 6.7.1 (edcfbbe)
Fe          12.33215117944306       14.87546642935718        7.12464745028935
N           11.31085846707997       15.62610989699638        8.65675626628112
N           11.59687403154931       16.28121732666084        5.94540260355950
N           13.41574862048533       14.17140970147430        5.59875049896943
N           13.04620509900595       13.43428790561715        8.29531665391563
C           11.33707248313501       15.21052618682122        9.96288005119861
C           10.48104375013325       16.04184100857344       10.77309054145278
C            9.91851541684096       16.94639972879093        9.94541040777871
C           10.42359565545318       16.66917886970986        8.62585196971207
C           10.53515669784691       17.11066784657371        6.21149837114017
C           10.11061599078768       17.77685795389680        5.03342520961403
C           10.99071675737257       17.40651182812091        4.03419659394131
C           11.88606283348424       16.49237120745602        4.62426206120081
C           13.62919382955581       14.79159729373838        4.39953464419812
C           14.68555412516806       14.11753761250083        3.66768527792082
C           15.07109046520404       13.07666819939904        4.43502546170965
C           14.26577798422277       13.11373112728362        5.63405801434654
C           13.81430912109687       12.37804594914578        7.92634435402433
C           14.08863685911298       11.52187822019287        9.06513981057669
C           13.51727331854681       12.13871941528900       10.13487586257301
C           12.84462019439715       13.30972206783458        9.63194040817079
C           12.07711045137722       14.13704086749352       10.43473081159280
H           12.04742966927295       13.92309712656445       11.49891344380031
C           10.01792229586152       17.31022220560058        7.48159007445072
H            9.22036048490367       18.03964912839601        7.58232600812581
C           12.90809769385800       15.85933707547430        3.94301921468842
H           13.15178003490060       16.23640792235832        2.95578527187055
C           14.37430468837038       12.19154502879642        6.68109517689729
H           14.94863275458368       11.28612099133353        6.51680762258005
C           10.30251857861574       15.82839266995891       12.24399270108303
H           11.34183119567298       15.92481663751387       12.58127325052927
H           10.00095799473474       14.77385391424390       12.24874029597566
H            9.65761243555263       16.38904307937556       12.94013862970883
C            8.97065057162928       18.07159432235076       10.24441162188984
H            8.15746102946862       17.81632543488509        9.55493458522025
H            9.54183675153857       18.92342250454307        9.85426304755635
H            8.52771198160471       18.35252726295031       11.21404654848082
C           13.62748928617751       11.68718002704851       11.55645995838343
H           13.27751814219956       12.08458339261736       12.52457093942588
H           14.72525442911764       11.66698902648939       11.57658963511128
H           13.22416279220564       10.67337840874876       11.43672274105936
C           14.87230187399008       10.23336530042536        9.06463238056439
H           15.94823536862246       10.30495654476254        9.28540863281655
C           14.20293959002175        9.05611610505608        9.35310483860587
H           13.15584089380297        8.92174620283692        9.07997581678272
H           14.68408128353287        8.22840543193555        9.87611494450013
C           16.19333336427573       12.08428729777695        4.27999068145990
H           15.64147355362346       11.13634263929792        4.26923876079179
H           16.69487827313090       12.21294686865323        5.24721356531697
H           16.95591850556414       12.05238519325776        3.48485334540782
C           15.17022267834870       14.53017657343155        2.32323630171878
H           15.29804815430925       15.60644986002578        2.22122973429760
C           15.18427130849573       13.59695867420179        1.31908508905359
H           15.09276064902442       12.53592599055106        1.55170575864335
H           15.25922001930021       13.86308666096592        0.26458437638471
C           10.95385039553863       17.90574207544215        2.61344701007810
H           11.44339001927619       17.60601031510500        1.66861289026406
H           11.26155762271682       18.93590687896275        2.83868649027909
H            9.86888396880552       17.84966438523405        2.45418684002240
C            8.94904476343259       18.71790504753551        4.84027244773075
H            8.63889655233733       18.33500768547961        3.85908660906778
H            9.52876699963788       19.64295494896579        4.71746719904284
H            8.03185086820885       18.95128404565407        5.40981139219367
C           17.29324092534929       16.66714682640112        8.93052201478270
H           17.22507686089453       17.11138589445948        9.93358550538729
H           17.98198101223028       17.27135826074633        8.32561612729299
H           17.68999459841297       15.64950142617031        9.02806779769958
N           15.16892689676223       17.72917759356783        8.04872626523774
H           15.46810922660678       18.68041470469623        8.16279634583342
C           15.93548722329847       16.62123423519553        8.30429796000440
C           13.95876567840945       17.31651377312543        7.61939199412036
H           13.15921440609335       17.99017982700419        7.34926516240640
N           13.90723010830353       16.00918787929937        7.58097792893610
C           15.14500097978345       15.55844560826062        7.99161583882148
H           15.36395224664547       14.50652536318750        8.01944039960359
C            9.71868788999961       13.86753096331591        3.99749626465673
H            9.73212724774480       13.42901027996376        2.99175309099388
H           10.21701405305276       14.84290056062503        3.95994044348318
H            8.67542761779009       14.00550423756061        4.30806450171013
C           10.44091856964321       12.94829045924388        4.97005072510852
H           11.48611248531853       12.82154366363488        4.65524119024081
H            9.95063394223276       11.96454896445528        4.98204158515293
S           10.39441615169272       13.64494966265332        6.64671628025746
C           10.40288731605199       12.11351941607358        7.61803746474547
H           11.30584689604014       11.52641378739670        7.41516506863885
H            9.51682875435869       11.51697827911702        7.36844439873054
H           10.38263606572088       12.36984080611323        8.68429645012912
87
 energy: -124.653958011250 gnorm: 0.087070344501 xtb: 6.7.1 (edcfbbe)
Fe          12.33314880189296       14.87414708628880        7.12478237833872
N           11.30824261476873       15.63027569263918        8.66828613813536
N           11.59518767579877       16.27767177018031        5.94554217456612
N           13.42552127508263       14.16943904744647        5.59776925839015
N           13.04327780666628       13.43535931288397        8.29381608885910
C           11.34224497734627       15.21810766061841        9.96325247137715
C           10.47460585999706       16.04737721057759       10.78168851023247
C            9.91421775930985       16.94963410160492        9.95924290080494
C           10.42443695256747       16.66646963889723        8.63000364582684
C           10.53876978119515       17.09347696603992        6.21982325568638
C           10.10604085772491       17.76061696631254        5.03756760100114
C           10.98263629036212       17.39211977781857        4.04060361403090
C           11.89458657957343       16.47742954805676        4.63429225649712
C           13.64789110466338       14.79356857299662        4.40522134492857
C           14.70070840482593       14.12516376456260        3.65848574981701
C           15.08293786285825       13.07361903528483        4.42743923770410
C           14.27248187997873       13.11017534729698        5.63078660830389
C           13.81081583058065       12.37522428808208        7.92104658026001
C           14.08232151683186       11.51554477271259        9.05138564218895
C           13.50572807348686       12.14749956360835       10.12757944618063
C           12.84554302139834       13.31694275498222        9.63047222126898
C           12.07930977289551       14.14641660541658       10.43070145581944
H           12.04566419690340       13.92161468745781       11.48808930250123
C           10.01336535221935       17.31052581176442        7.48216138191093
H            9.22378191603695       18.04205891223121        7.57517559002817
C           12.91994568461681       15.86021580873707        3.93687816421020
H           13.14525298994845       16.23243066184986        2.94902157022090
C           14.37003137086695       12.19383143047479        6.67013033018045
H           14.95431601521232       11.29627770036873        6.51992171309090
C           10.33173171939725       15.79804477368370       12.24377567673722
H           11.34368015031968       15.90264511332394       12.62986734461776
H           10.00803902629220       14.76020321570188       12.29990461820572
H            9.66064394730180       16.40478650519038       12.86803951061611
C            8.96968234815334       18.07824736890223       10.20272680147476
H            8.12754243995042       17.85996803288798        9.54989596348921
H            9.50660079525427       18.95741393986606        9.84901143127343
H            8.57690898727308       18.29439572899017       11.20687634431282
C           13.65614883287341       11.64799899846506       11.53325940174928
H           13.25486438232852       12.12760330602930       12.44325999529304
H           14.74151301291332       11.62022991191941       11.62857969856749
H           13.24960164728667       10.63998847886608       11.47980195379254
C           14.82643544542145       10.23110930305041        9.13617045095136
H           15.91447906739060       10.31011757318438        9.28777333320023
C           14.21686846703920        9.09477518497858        9.35592373936788
H           13.16741387732186        8.94995378659363        9.11812394978996
H           14.70177722895595        8.22947060588522        9.80737346027540
C           16.17783285785411       12.06781371328807        4.30832394088830
H           15.67215191040581       11.10418010092787        4.27650127521204
H           16.72374793427215       12.17120642351199        5.24579131006330
H           16.90243131953598       12.10364496973149        3.48354356100032
C           15.13452756663064       14.50144428270785        2.31684272957457
H           15.28601318908629       15.57665055765931        2.19224085244677
C           15.18111557971069       13.62363423034427        1.34146516291227
H           15.07138737638362       12.56414504628121        1.54899641320084
H           15.29542191568684       13.87119639725801        0.29180622294942
C           10.92403223102549       17.93863272871947        2.64234823121518
H           11.46302639896425       17.55455027000416        1.75547204395400
H           11.23721464978913       18.97307779147814        2.79134699417787
H            9.85996060501744       17.89004883437552        2.40995397983403
C            8.98011710964036       18.72463100590822        4.79972284035688
H            8.60310374380025       18.38540128888278        3.83455996461349
H            9.49475204042722       19.68007025967825        4.68804899360114
H            8.10013878858829       18.88773594201906        5.44868132190388
C           17.28907117139000       16.67036051351252        8.92586031269546
H           17.22765925136259       17.10993108928014        9.92356062252237
H           17.97747925617216       17.26730346959896        8.32855109679847
H           17.68441799733310       15.66182953981173        9.02201857500189
N           15.17352182744091       17.73145628515846        8.05567192909099
H           15.47130017042586       18.68566642022033        8.16748801469280
C           15.93437352207224       16.61841371537817        8.31068673686453
C           13.96186912663159       17.31413345928646        7.62069503318011
H           13.16537163426055       17.97958468070293        7.35138680820528
N           13.91008978525461       16.00637907952976        7.58027971054980
C           15.13449047973778       15.55931247015673        7.99267515055250
H           15.35891885634644       14.51334946699314        8.02248106062993
C            9.71775924965882       13.86614293145056        3.99479736368903
H            9.73115975570819       13.43320151325408        2.99617899834088
H           10.20986779271112       14.83407414436333        3.96086571138885
H            8.68446838089782       14.00573483197207        4.30616768922980
C           10.44195122870883       12.94213511386417        4.95993313289712
H           11.48343194849405       12.82175584431600        4.66208879160578
H            9.95308305916826       11.96757066278150        4.98825842394989
S           10.38930134964630       13.64234558731672        6.65212623455025
C           10.40337664438652       12.10127383425078        7.61819633419119
H           11.30388476042261       11.53074115451894        7.41316640961766
H            9.51859582930597       11.52060881226065        7.36959483276577
H           10.38263810456274       12.37444521253633        8.67009488301026
87
 energy: -124.684883476296 gnorm: 0.049252487647 xtb: 6.7.1 (edcfbbe)
Fe          12.33334175178605       14.87280111472704        7.12442612823288
N           11.30965902261659       15.63524169748814        8.67071416910504
N           11.59246899240367       16.27301594586979        5.94274486275295
N           13.43381501066311       14.17344752692758        5.60184199094634
N           13.03997053600183       13.43616998762965        8.29348592783404
C           11.34971474624547       15.22555063074922        9.96180664626572
C           10.47790288858939       16.04873107032812       10.78629055915745
C            9.91300291870381       16.95232898176680        9.95978336008105
C           10.42631817063970       16.66515902932452        8.62864279494738
C           10.53628916509082       17.08320795610047        6.21957641876966
C           10.10436077422785       17.75848874212586        5.03291874109222
C           10.97787123371788       17.39245413345814        4.04109796578102
C           11.89692601194600       16.47026126685205        4.63469669171873
C           13.66061855047931       14.79860993717053        4.41586883156956
C           14.70695580297094       14.12491026265450        3.66873396018452
C           15.08757157129846       13.06638120896153        4.43447772885237
C           14.27602946968902       13.11056230760006        5.63432607930530
C           13.80338333379791       12.37341990515701        7.91862724512864
C           14.07384718034116       11.52250799178112        9.04806994806830
C           13.49989379494409       12.14718644983296       10.12737690007485
C           12.84742521971995       13.31980652307148        9.63206525170590
C           12.08350281011260       14.15529424060827       10.42873842298589
H           12.04325154167265       13.92190217554044       11.48174840136469
C           10.01051919849780       17.30818778660214        7.48030683962620
H            9.22709725847344       18.04460035096049        7.56747815186740
C           12.92727191316937       15.86121490254289        3.93597163466921
H           13.13822831167885       16.22427770393464        2.94228510659956
C           14.36558594068745       12.19433295168110        6.66753798775978
H           14.96297745887105       11.30485248043465        6.52619255906808
C           10.35041935138727       15.78159970863273       12.24371547575955
H           11.34410434233190       15.88126075857270       12.68294841221988
H           10.01562714795451       14.74874062165419       12.35469007887810
H            9.65868245524620       16.42844015875642       12.80094761761546
C            8.96907860289308       18.08093546428300       10.17778262077434
H            8.09607264660949       17.90547702742755        9.54775808244126
H            9.46786575310599       18.99301536032072        9.84442173437487
H            8.62264173800870       18.23677195840267       11.20937702924739
C           13.67110943025368       11.62405021760567       11.51779073000599
H           13.22790489290622       12.17286706919033       12.36856051095343
H           14.75196334322289       11.57376035973885       11.68174288407370
H           13.27445060743725       10.60768478043634       11.52675219967295
C           14.81920410793097       10.26441391360913        9.18506210772480
H           15.90123969948063       10.34057302340440        9.31280751567854
C           14.22062108394217        9.07776793859725        9.32979470431068
H           13.15072814706601        8.96695013341361        9.17163434149993
H           14.72526954946011        8.19722461809641        9.72078517314123
C           16.16881386078089       12.05389120846010        4.32285890937688
H           15.70598696813950       11.06686738704701        4.28021614619394
H           16.75799486430074       12.12303077640411        5.24082887258072
H           16.85228353018638       12.15516221858946        3.46854466400017
C           15.10081982970596       14.50197219162638        2.32358742893631
H           15.25971382680958       15.56887128180504        2.16960140240246
C           15.19682977917677       13.61985817741486        1.33473589085707
H           15.04233061352369       12.56665839725370        1.53262828684723
H           15.35267618789117       13.87756495340692        0.29724736107334
C           10.90914270600582       17.95790192211599        2.66092557515082
H           11.49218569731766       17.49966000244772        1.83774622590992
H           11.21270711061876       19.00725119230161        2.74141537237242
H            9.85734260882573       17.92929145430996        2.35913502825364
C            9.00042843220788       18.72976009898104        4.78053175808599
H            8.56186930076662       18.44171606327073        3.81836161761446
H            9.45833235002649       19.71653023915335        4.66060165662386
H            8.16442470897404       18.82633092703784        5.49999872648223
C           17.28661941858410       16.67305985119664        8.92150950847162
H           17.23174567961863       17.11200389961644        9.91797028757449
H           17.97410730088132       17.26784463712938        8.32377034641908
H           17.68224916658200       15.66684992202811        9.01463912856943
N           15.17389728482333       17.73214046662977        8.06277843543706
H           15.47198090579163       18.68734509433746        8.17380370763882
C           15.93113271907865       16.61708837302382        8.31624263157539
C           13.96329689315432       17.31396181380939        7.62260693833534
H           13.16685573558774       17.97457271781333        7.35182447850889
N           13.91006872213356       16.00633411169571        7.58033965662811
C           15.12756423420233       15.55992985985740        7.99709978276953
H           15.35469892018215       14.51552295355987        8.02928187862724
C            9.71728751780152       13.86220648713895        3.99304631391550
H            9.72904814596446       13.43442717675203        2.99395750483685
H           10.20630979960066       14.82979503086759        3.96181553374809
H            8.68675083522182       14.00415576906311        4.30621555840166
C           10.44168580408588       12.93777375099919        4.95547331517933
H           11.48475077590052       12.82085152838875        4.66939067549228
H            9.95376221757979       11.96551765788163        4.99484992409287
S           10.38439854949375       13.64094386722278        6.65415549443197
C           10.40268787525176       12.09439339075088        7.61576476408748
H           11.30546643319725       11.53151525012726        7.40839160158830
H            9.51586824577554       11.51927258407431        7.36954328030686
H           10.38310096597644       12.37973694038723        8.66216180671524
87
 energy: -124.695667638673 gnorm: 0.055862905866 xtb: 6.7.1 (edcfbbe)
Fe          12.33425870214559       14.87076221287172        7.12330454873089
N           11.31415058862797       15.63795156319539        8.66721505520273
N           11.58574416618266       16.26758130933772        5.93367242769786
N           13.44133050360116       14.17971471917566        5.60767802667047
N           13.03880238188460       13.43268976562305        8.29776395002785
C           11.35918800693532       15.23132422424296        9.95826832064946
C           10.48676883058136       16.04953908635758       10.78667867416808
C            9.91438848011429       16.95284500922971        9.95412872832192
C           10.42943919333699       16.66257282734144        8.62365498795194
C           10.53132792696510       17.07905809601840        6.21351402885634
C           10.10583259255141       17.76841547461776        5.02471368044503
C           10.97762492128234       17.40402534919411        4.03597568665737
C           11.89602441290485       16.46762848641730        4.62671781496067
C           13.66995820764057       14.80208870937369        4.42435508089284
C           14.70685815244799       14.11530279496290        3.67511362548471
C           15.08496154084377       13.05257477570179        4.44231604632212
C           14.27889757947212       13.11234981786216        5.64087263727012
C           13.79839805845602       12.36783875427929        7.91992482625105
C           14.06742648511292       11.51790433514330        9.04650978864813
C           13.50520164061141       12.13908715829394       10.13191372183926
C           12.85151985606902       13.31584288368322        9.63827961540778
C           12.08946892033721       14.16070396077349       10.42826823722718
H           12.04200674491627       13.92563540214462       11.47952490988563
C           10.00888636671884       17.30466618627089        7.47518102934117
H            9.22961829068490       18.04518529503158        7.55977754661317
C           12.93091602111170       15.86039905189398        3.93410984044648
H           13.13301187399712       16.21224561660652        2.93454357654132
C           14.36428215642848       12.19366265860140        6.67021816891298
H           14.97309973746701       11.31180462545044        6.53322476682996
C           10.35746812472609       15.78171074954840       12.24292511140557
H           11.33456278473598       15.87728005141459       12.72540906646631