87
 energy: -124.720682782116 gnorm: 0.000059663752 xtb: 6.7.1 (edcfbbe)
Fe          12.27539900741181       14.87383472244290        7.11020027893051
N           11.19547823787392       15.59050052857824        8.63310633703599
N           11.60836685965407       16.34965502690637        5.94474504895956
N           13.38860795647849       14.18116915516669        5.59777072841311
N           12.97768249028318       13.41679520422779        8.29210459476612
C           11.19440625158552       15.14213642800805        9.91630418196779
C           10.28083909229440       15.91745750981997       10.72669997938718
C            9.72429244167628       16.83954202434087        9.89670271855731
C           10.31849528043539       16.62547135984080        8.59559186361323
C           10.67422065562829       17.28230247823736        6.26178384359093
C           10.44625645062272       18.17691285896195        5.14777285036250
C           11.28056102114768       17.76935583418958        4.15513338379133
C           11.99376237130698       16.62148355669861        4.67178584215599
C           13.55382491821354       14.75255886040568        4.37990729230031
C           14.43177028414113       13.95011653923578        3.55178224901110
C           14.79660781988338       12.87505546702283        4.31833063099591
C           14.14722129930784       13.05038315243498        5.59191721097580
C           13.79402739667889       12.39374766187226        7.93091504779778
C           14.07443004180344       11.53636013946492        9.06671813656602
C           13.43141920215522       12.10594988263382       10.13418548059119
C           12.75112547532281       13.26813321512581        9.62503944726753
C           11.93186900093844       14.07749809560577       10.39378438268996
H           11.83529638355211       13.83663504592571       11.44141310032663
C           10.04926392735854       17.40780332823848        7.48784565265563
H            9.31980890016875       18.19551288978589        7.59868078116458
C           12.91425646044581       15.89760644375528        3.93971415203304
H           13.12307188805453       16.23143399783511        2.93477977437799
C           14.30982674949703       12.19074312835222        6.66527787271312
H           14.91772703425938       11.31261526282943        6.50914873345962
C           10.04018019234111       15.68520059183562       12.17913463626590
H           10.96912870794299       15.78060131371188       12.74196037433337
H            9.64504278804822       14.68291512710627       12.34775500680676
H            9.32613188101141       16.40443888546551       12.57274864246563
C            8.71009371777910       17.89000317966059       10.19503756905266
H            7.83345054596375       17.76460377323854        9.55959469081693
H            9.11960567391355       18.88425786641211       10.01280798298771
H            8.39124387398607       17.83674273180889       11.23314204732878
C           13.45272823068332       11.68175745124482       11.56105617500416
H           13.50025809705348       12.54824951817355       12.21900430670651
H           14.31994003464950       11.05226342331474       11.75047057424489
H           12.55467423321481       11.11501620403383       11.81344055805890
C           14.90699075930941       10.35514730726967        9.02478344599824
H           15.72448053892622       10.38143910644739        8.31333838278096
C           14.73923167792276        9.26612305931123        9.76831505377230
H           13.91867780700511        9.16222106518815       10.45657339162594
H           15.40826600029608        8.42492135746368        9.69346522510162
C           15.73753943149446       11.77233409009733        3.97786852776644
H           15.19399489510282       10.86935984044256        3.69387174716059
H           16.37244060388334       11.52843405916744        4.82860659428569
H           16.37194408084028       12.06746143662613        3.14461626063960
C           14.81610141245505       14.28126043859700        2.19763221900053
H           14.91887240722034       15.33947197139783        1.98598588364829
C           15.03457881767278       13.40459759093037        1.22299993488978
H           14.90014540158025       12.34628739531109        1.36413183622649
H           15.33150571064301       13.72026697524717        0.23655849629917
C           11.46792226512903       18.32933005532124        2.78692220117913
H           11.21139480896184       17.58636394826195        2.03126133574600
H           12.50603776210735       18.62429920504264        2.63169128748419
H           10.83765674026207       19.20236179820893        2.63616622632353
C            9.47436181983978       19.30669353008337        5.16180049167279
H            9.47019848376499       19.82518787525584        4.20617739356700
H            9.72968652621167       20.02586655043617        5.94093906193104
H            8.46678805974042       18.94011153780778        5.35792738980021
C           17.28794281859578       16.92714003358132        8.42978691607159
H           17.46515487695708       17.22374747740454        9.46354948274942
H           17.70887570055180       17.69313757165735        7.77850651590696
H           17.80362035247726       15.99039325219889        8.24322982521057
N           14.93316199703572       17.77412538331670        8.33053447658041
H           15.15017905155072       18.71113148104740        8.62814857447584
C           15.83591635789381       16.75530537151175        8.17159257521000
C           13.71037085866034       17.29123268757186        8.01576293141372
H           12.80871497268343       17.86696650684770        8.04832013472130
N           13.78446691439380       16.03023436564870        7.66767240382025
C           15.09912700954952       15.68211030425083        7.75958759311113
H           15.42526740296720       14.69023381277642        7.52514829897131
C           10.49712685232834       13.12515247672203        3.79003878333055
H           10.73356041320228       12.44424389744188        2.97480570345427
H           11.14760486657048       13.99259006150077        3.71872343540352
H            9.46668881363910       13.45642867929621        3.68565860270783
C           10.69549892914825       12.43191131074083        5.12350476071716
H           11.71906710703709       12.07711712641691        5.23646472347042
H           10.00033863176760       11.59956140925071        5.23714100032086
S           10.34773948033373       13.60322516929591        6.49726894399988
C           10.08700134584287       12.37195657540643        7.81010952867192
H           10.94835371518607       11.71508295865272        7.87828919364154
H            9.18471150193315       11.80648248572922        7.59174753283536
H            9.97030114457291       12.92212954386245        8.73748151578065
