78
 energy: -115.922578088184 gnorm: 0.344375515308 xtb: 6.7.1 (edcfbbe)
Fe           0.93500000000000       22.73400000000000       -3.76600000000000
N           -0.27500000000000       22.71800000000000       -2.11400000000000
N            0.15200000000000       24.55500000000000       -4.27900000000000
N            2.15900000000000       22.74600000000000       -5.48300000000000
N            1.81900000000000       20.92899999999999       -3.28300000000000
C           -0.21000000000000       21.74400000000000       -1.16100000000000
C           -1.20800000000000       22.05300000000000       -0.13800000000000
C           -1.86500000000000       23.19600000000000       -0.53600000000000
C           -1.28500000000000       23.58400000000000       -1.83400000000000
C           -0.84500000000000       25.22500000000000       -3.60500000000000
C           -1.09700000000000       26.44400000000000       -4.30200000000000
C           -0.27300000000000       26.44000000000000       -5.39900000000000
C            0.56800000000000       25.27900000000000       -5.33500000000000
C            2.19800000000000       23.75300000000000       -6.39900000000000
C            3.00000000000000       23.37500000000000       -7.55200000000000
C            3.42000000000000       22.10300000000000       -7.28700000000000
C            2.98700000000000       21.73700000000000       -5.93000000000000
C            2.72300000000000       20.22100000000000       -4.03300000000000
C            2.98200000000000       18.96000000000000       -3.34600000000000
C            2.34500000000000       18.97100000000000       -2.03800000000000
C            1.58000000000000       20.26300000000000       -2.11400000000000
C            0.62400000000000       20.63500000000000       -1.14300000000000
H            0.53100000000000       19.97500000000000       -0.28100000000000
C           -1.54800000000000       24.79100000000000       -2.49400000000000
H           -2.35000000000000       25.42300000000000       -2.11200000000000
C            1.57000000000000       24.95600000000000       -6.30200000000000
H            1.85200000000000       25.73100000000000       -7.01500000000000
C            3.27700000000000       20.55900000000000       -5.26900000000000
H            3.97200000000000       19.86000000000000       -5.73500000000000
C           -3.07500000000000       23.86000000000000        0.12900000000000
H           -3.37500000000000       23.27300000000000        1.02300000000000
H           -3.92600000000000       23.89000000000000       -0.58500000000000
H           -2.81000000000000       24.89100000000000        0.44700000000000
C           -1.45800000000000       21.21900000000000        1.13200000000000
H           -0.48600000000000       20.87600000000000        1.54800000000000
H           -2.07600000000000       20.33100000000000        0.88200000000000
H           -1.97600000000000       21.84000000000000        1.89300000000000
C           -2.21100000000000       27.43400000000000       -3.96200000000000
H           -2.30100000000000       27.52600000000000       -2.85900000000000
H           -3.17600000000000       27.06900000000000       -4.37300000000000
H           -1.97000000000000       28.43100000000000       -4.38800000000000
C           -0.11700000000000       27.58100000000000       -6.19600000000000
H           -1.02100000000000       27.95600000000000       -6.69300000000000
C            1.09800000000000       28.36600000000000       -6.47200000000000
H            2.06100000000000       28.07900000000000       -6.02500000000000
H            1.05600000000000       29.24800000000000       -7.12800000000000
C            3.21900000000000       24.22600000000000       -8.80700000000000
H            3.17100000000000       25.30300000000000       -8.53800000000000
H            2.42600000000000       24.00500000000000       -9.55300000000000
H            4.21900000000000       24.00700000000000       -9.23900000000000
C            4.28700000000000       21.26900000000000       -8.16000000000000
H            4.76100000000000       20.41600000000000       -7.66100000000000
C            4.58200000000000       21.35100000000000       -9.35600000000000
H            4.17500000000000       22.16200000000000       -9.97700000000000
H            5.25600000000000       20.61400000000000       -9.81700000000000
C            3.86500000000000       17.83200000000000       -3.87000000000000
H            4.90000000000000       18.20900000000000       -4.01700000000000
H            3.47200000000000       17.46900000000000       -4.84400000000000
H            3.88600000000000       16.99900000000000       -3.13500000000000
C            2.28500000000000       17.84500000000000       -0.74000000000000
H            3.12800000000000       17.12700000000000       -0.83300000000000
H            1.32700000000000       17.28300000000000       -0.77500000000000
H            2.37500000000000       18.38300000000000        0.22800000000000
O           -0.73100000000000       21.37300000000000       -4.93900000000000
H           -0.45900000000000       21.35600000000000       -5.85700000000000
H           -1.44600000000000       20.97100000000000       -4.59500000000000
C            5.72600000000000       24.87400000000000       -1.38900000000000
H            6.01000000000000       24.29700000000000       -0.48300000000000
H            5.82800000000000       25.95900000000000       -1.17100000000000
H            6.40100000000000       24.58900000000000       -2.22400000000000
N            3.27700000000000       24.81500000000000       -0.87900000000000
H            3.36500000000000       25.26000000000000        0.01200000000000
C            4.31200000000000       24.56300000000000       -1.75500000000000
C            2.14300000000000       24.35200000000000       -1.44900000000000
H            1.15900000000000       24.40700000000000       -0.98400000000000
N            2.43000000000000       23.83000000000000       -2.64800000000000
C            3.78500000000000       23.96099999999999       -2.84900000000000
H            4.25100000000000       23.61000000000000       -3.76100000000000
78
 energy: -116.005224515792 gnorm: 0.124902527469 xtb: 6.7.1 (edcfbbe)
Fe           0.95250661434505       22.72807825505977       -3.76715129388492
N           -0.27468281104512       22.70203436270025       -2.13263167357743
N            0.15216228690074       24.53015790180764       -4.27819112541009
N            2.15305210716824       22.73972055420425       -5.47978391608536
N            1.82111021739427       20.92465537163468       -3.25949641706840
C           -0.21212625033933       21.74729733496737       -1.16083614381139
C           -1.21233960897243       22.04971376365446       -0.13853124467842
C           -1.87429893547181       23.17849712382635       -0.54274279283006
C           -1.26107457362401       23.58542790519273       -1.81092285096262
C           -0.84754560380841       25.20745474844602       -3.62144042077386
C           -1.11044975712210       26.43913921727258       -4.31273812830074
C           -0.23737667316629       26.47995061579812       -5.37991997132811
C            0.56901918674248       25.28246326814964       -5.32240640388620
C            2.19525649505743       23.74894177392192       -6.39324357439155
C            3.00117437427541       23.37047083828050       -7.54512872241240
C            3.44211779982994       22.10190636053147       -7.27331248385867
C            2.96347810373253       21.73343579930192       -5.93505952208921
C            2.70709387800729       20.19597588023122       -4.00406228941776
C            2.98900605612872       18.94769400209372       -3.29646386493258
C            2.33137846293906       18.96990733022954       -2.04904335003752
C            1.57135419729408       20.24416440873593       -2.10533150744688
C            0.63036168316677       20.63760911542283       -1.14216427222067
H            0.53235880419366       19.97906509514769       -0.28684398569744
C           -1.53474215197756       24.77287454053075       -2.49284930563929
H           -2.33377919254245       25.40562635301749       -2.11479985653211
C            1.55097384449652       24.96027658788683       -6.28260098940221
H            1.81800464657535       25.72717455497060       -7.00388178720468
C            3.25106656084059       20.55534733129753       -5.25107046720957
H            3.95264013335112       19.86747012615118       -5.71764251121495
C           -3.05808490465856       23.85087798114537        0.12056595204002
H           -3.36933343350063       23.28360879788241        1.00594466423058
H           -3.90758632414552       23.89241925340296       -0.57380920557480
H           -2.81318798265488       24.87413733829921        0.43724691792277
C           -1.45175962566853       21.23040368568853        1.11588932850707
H           -0.50084956879653       20.88365669121504        1.53990617848859
H           -2.06476183982796       20.34852176534945        0.88517506143219
H           -1.96762900464779       21.82816995451938        1.87672321329665
C           -2.19910652248769       27.42628932805975       -3.96471100383380
H           -2.29946867726226       27.52421682772538       -2.87690809440644
H           -3.15967148555521       27.07797687590442       -4.36833071129171
H           -1.97401270169705       28.41450063722911       -4.38191330902359
C           -0.08003851343515       27.62133060314234       -6.22590967182005
H           -0.99891003433530       27.98022999923483       -6.69362761929050
C            1.06354639851236       28.33511822432002       -6.47446508637472
H            2.02062262992048       28.07224480335179       -6.02866116654280
H            1.04070389182793       29.21757085820431       -7.10820380670895
C            3.21603400935695       24.21638017382651       -8.78336215705563
H            3.16913830536087       25.28476823192408       -8.53984358318504
H            2.44223822742356       24.00659933531793       -9.53606239908688
H            4.20010941134229       24.01464818028848       -9.22415506318481
C            4.28854939042469       21.25732401447416       -8.11538329368146
H            4.75153940801227       20.40883720629243       -7.61810554000234
C            4.58710170522473       21.35485349316725       -9.38813761188824
H            4.18114779751053       22.14601091205548      -10.00456908549688
H            5.25245869092500       20.63171326484517       -9.84470453831491
C            3.85858164100873       17.84428630767226       -3.85457765531969
H            4.88545290862850       18.20259951843397       -4.01361141218682
H            3.47653248463761       17.47920754046048       -4.81983778533499
H            3.88681608090649       17.00869588406203       -3.14801397585243
C            2.29078268574979       17.90200910262165       -0.81536923151488
H            3.10979419172363       17.16768419818590       -0.85941391947532
H            1.35350820500490       17.32245907047247       -0.80196934171249
H            2.37286120435000       18.39399435576192        0.16768193905089
O           -0.69991944944218       21.40482245754974       -4.93659589295854
H           -0.46163069573779       21.35136548514437       -5.85956138034954
H           -1.45433644800252       20.96553569060814       -4.58880719228225
C            5.72657942146897       24.87632828631598       -1.38801145665796
H            6.01363173614514       24.30798092854480       -0.49375035303725
H            5.83626779499737       25.94664000535080       -1.17365701052964
H            6.39257433048306       24.59748919004946       -2.21030615840326
N            3.28150980842684       24.81131936041372       -0.88504023514450
H            3.36607590536232       25.25916287357600        0.01113286763429
C            4.31811690711045       24.56204126394192       -1.75007226435831
C            2.15022529355227       24.34951473305351       -1.45998280697182
H            1.17659117482135       24.40645687378024       -0.99899053452225
N            2.41994136525690       23.82298697317785       -2.64123014417680
C            3.77004956472965       23.95768835706062       -2.84014628071126
H            4.23550474728012       23.61179258643132       -3.74716727203444
78
 energy: -116.033893024683 gnorm: 0.054514096197 xtb: 6.7.1 (edcfbbe)
Fe           0.96621240712168       22.72352920782165       -3.76698864591578
N           -0.26274494573419       22.68710897280344       -2.14287059012065
N            0.14970303694622       24.50352421022435       -4.28129789008074
N            2.14020290907779       22.73053243031232       -5.47418886711915
N            1.81470712095914       20.92038006264773       -3.24060252552210
C           -0.21227663801878       21.74301014196021       -1.16255357102549
C           -1.20940083033267       22.04384922857970       -0.14224612505750
C           -1.86900729174618       23.16682389437252       -0.55118586095990
C           -1.24019733317966       23.57640242868187       -1.80039254450498
C           -0.85179748948700       25.18115357509960       -3.64084650971173
C           -1.11522221953127       26.42895491645700       -4.31732432558712
C           -0.20848538809258       26.50840050674223       -5.35176768083401
C            0.57223840553363       25.28587831139954       -5.30820893983805
C            2.18694515258914       23.74135228002248       -6.38614521732746
C            2.99719527228172       23.36310841645004       -7.53063275076548
C            3.45856152782595       22.09377214842723       -7.26065716417399
C            2.94211901338485       21.72960829271142       -5.93194036245138
C            2.69123159224582       20.18111836124839       -3.97557843842712
C            2.98646802063140       18.93946578794552       -3.25535448985185
C            2.32393456002167       18.97281514579366       -2.05319842699590
C            1.56242428271567       20.22941747595459       -2.09419235688211
C            0.63378415250886       20.63418232866233       -1.13787549629541
H            0.53220704744690       19.98015949220879       -0.28372054726372
C           -1.52373940596977       24.74472514718764       -2.50051450669870
H           -2.31359775770428       25.38150894018123       -2.11877370422378
C            1.53126330950077       24.95924762828267       -6.26273982800452
H            1.77417088680387       25.71728057605823       -6.99716988997094
C            3.22109185349877       20.55504203381973       -5.22552183141518
H            3.92155872673123       19.87089336814107       -5.69150550687928
C           -3.03644059726034       23.84155797204315        0.10661694204883
H           -3.35469209874440       23.28732692290185        0.98804684527558
H           -3.88599378922194       23.89274623551187       -0.57548870032572
H           -2.79994278706136       24.85982334470684        0.41969591669819
C           -1.44601860278978       21.23768894936248        1.09789198387861
H           -0.50629835235969       20.89202061476254        1.52548852382285
H           -2.05706601725899       20.35971568400915        0.88001450788008
H           -1.96111739033941       21.82571684413440        1.85555781352554
C           -2.18538220270127       27.41390059289263       -3.96617305348886
H           -2.29114460978745       27.51759221114798       -2.88772558475611
H           -3.14634581120896       27.08074674697073       -4.36461419294555
H           -1.96755382423289       28.39551234503360       -4.38114141298804
C           -0.05732396865480       27.64826048815799       -6.24043812373875
H           -0.98788840706293       27.98807808619297       -6.69153494100968
C            1.03742789589959       28.31862196659544       -6.46887455636695
H            1.99152248186085       28.05943244062932       -6.03465359106220
H            1.03871006624149       29.19103858366109       -7.10493615319872
C            3.21392917412486       24.20597615981239       -8.75174050805739
H            3.16191883546076       25.26880489633912       -8.52189541188382
H            2.45344150544884       23.99878175763476       -9.50966013438548
H            4.18930532268200       24.01266570605540       -9.19566888750568
C            4.29210166421696       21.24880693653274       -8.08413409325895
H            4.74574900601390       20.40327064781783       -7.58564624491094
C            4.58204057508002       21.35825614643706       -9.38317966732722
H            4.17541482573734       22.12912903868670      -10.00636428989133
H            5.24005816875045       20.64447452563196       -9.84560464366931
C            3.85123256686093       17.85587549822300       -3.82912307326734
H            4.87000828835138       18.20848669191002       -4.00100504552591
H            3.46720221515437       17.50173270391317       -4.78925219411214
H            3.89000225678809       17.01003689171829       -3.14832482676395
C            2.29227096368724       17.97090383219594       -0.90533456643291
H            3.10446190233587       17.23855713721676       -0.94072656284984
H            1.36399193735038       17.38730075630139       -0.87250740222318
H            2.37367225094666       18.45215599530265        0.07662794207307
O           -0.67355604772901       21.45706679789983       -4.92840266347890
H           -0.47006682617634       21.33613827461508       -5.85834116656307
H           -1.42800192383327       20.97270902499512       -4.58899289087602
C            5.72698902139934       24.87818936381069       -1.38949586269218
H            6.01909869663892       24.31758714434569       -0.50145887599744
H            5.84206917353448       25.93995109121609       -1.17779508537212
H            6.38721523455211       24.60440852960710       -2.20476110543005
N            3.28433740625778       24.80746820934205       -0.88919008347752
H            3.36549916907941       25.25790084077720        0.00883906087549
C            4.32195886523875       24.55759610253450       -1.74729023506120
C            2.15503212012683       24.34483692362224       -1.46678721831766
H            1.18836013348031       24.40783829601410       -1.01025605507751
N            2.41131252822629       23.81288438298950       -2.63511859825926
C            3.75674830133902       23.94781514290760       -2.83167874452158
H            4.22220072552879       23.60636921468269       -3.73446849510379
78
 energy: -116.043481977292 gnorm: 0.031204414112 xtb: 6.7.1 (edcfbbe)
Fe           0.96964366463113       22.72620786885929       -3.76425291512607
N           -0.25091516503232       22.67230860245764       -2.14822650137082
N            0.14737331797093       24.48797109772400       -4.28286871474933
N            2.12451772399585       22.72733814939959       -5.46178919769838
N            1.80108267911748       20.93102448564848       -3.23863859408158
C           -0.20830887463178       21.73547717678144       -1.16395485916905
C           -1.20447957765071       22.03411392930302       -0.15070372465243
C           -1.85906539065483       23.15584850191908       -0.56382247765723
C           -1.22704113709359       23.56070842023110       -1.80510256352799
C           -0.85652413767432       25.15762713611587       -3.64955041256479
C           -1.11761882995576       26.41399315883976       -4.31284998255975
C           -0.20800928742488       26.50932252550176       -5.33347396028770
C            0.56909621148158       25.28433547402309       -5.30011902616908
C            2.17265275322865       23.73484350681649       -6.37636941456994
C            2.98992901598494       23.35561443009034       -7.50766854834016
C            3.45719758884771       22.08700579572914       -7.24009362669860
C            2.92289447511810       21.72810875109522       -5.91998810261561
C            2.67480110087277       20.18909891607892       -3.96906516119613
C            2.98651500961814       18.95387782440165       -3.25378325672656
C            2.30930097509103       18.99427645721720       -2.07315316181646
C            1.55097683442261       20.23940607901299       -2.09483869088562
C            0.63479353451202       20.63087458562045       -1.13150063562654
H            0.53367591202456       19.97733639421989       -0.27670903632802
C           -1.51889163690194       24.71929330466675       -2.50838988595218
H           -2.30464717072077       25.35409328879922       -2.12176440980484
C            1.51314865522644       24.95299981059172       -6.25605398723227
H            1.72843198797320       25.70371737521194       -7.00546196614075
C            3.19458246669207       20.55651162195005       -5.21304488108395
H            3.88933434687369       19.86710878634948       -5.67405842258945
C           -3.01674910698274       23.83786433014538        0.08999214705184
H           -3.33661259793040       23.28817485021803        0.97234349868495
H           -3.86462971608579       23.89346552645103       -0.59202923734561
H           -2.77109815147352       24.85459469172416        0.39641670510154
C           -1.44101491867768       21.23581523545549        1.08644842201052
H           -0.50133267942110       20.89510958593750        1.51508813341209
H           -2.05109759211566       20.35806445805216        0.87087015010939
H           -1.95859088166701       21.82775915405295        1.83768619840804
C           -2.17879772952059       27.40075471050353       -3.96022711282956
H           -2.28096432696411       27.50801069126359       -2.88301480657360
H           -3.14207841587460       27.07532507645797       -4.35747834247758
H           -1.95353721393639       28.37753662030873       -4.38071778370568
C           -0.07082711889121       27.64699345735353       -6.23735570112549
H           -1.00171118807896       27.98446203341126       -6.68497939716380
C            1.05414356480419       28.31156109301226       -6.48268306886252
H            1.99675554975335       28.04857802713387       -6.03173147027197
H            1.06708573323279       29.18169422636976       -7.12048926504683
C            3.21361604062067       24.19917674958273       -8.71830566619555
H            3.14953715953559       25.25952656416091       -8.48565941730633
H            2.46139186303148       23.98517228306668       -9.48129534935325
H            4.19320920086126       24.01157273030045       -9.15158230130410
C            4.29167682493368       21.24000730739326       -8.05558896047844
H            4.74251512521365       20.39882599853748       -7.54406165941804
C            4.57420621378828       21.35061716745882       -9.36138053843703
H            4.15670021953283       22.10584783431687       -9.99883462934979
H            5.23277301894999       20.64348223168082       -9.83471518195801
C            3.85030937751244       17.87010091775996       -3.81158142747270
H            4.86635457069917       18.22418339829217       -3.98445936908440
H            3.45684859471804       17.52337611322359       -4.76797321219791
H            3.89148498346196       17.01866843983659       -3.13775198570921
C            2.29054264354587       18.01438725989453       -0.96046994684453
H            3.11103202085025       17.30099457988097       -1.03081823692857
H            1.35854773194825       17.44432549497360       -0.94564251970581
H            2.37639749895646       18.51690524301463        0.00515458472386
O           -0.66823235601083       21.54268114706415       -4.93411844509082
H           -0.45735137574541       21.31346748598840       -5.85521186868985
H           -1.37362702748394       20.98324766073171       -4.57640068285318
C            5.72709697767086       24.87899655288287       -1.39481865472860
H            6.02867797294164       24.32507354830057       -0.50626442411184
H            5.84203836208884       25.94110444640866       -1.18687914747153
H            6.38605634332510       24.60797401061560       -2.21102638653803
N            3.28541291084818       24.80426317915616       -0.88981582034844
H            3.36549072182210       25.25885708122275        0.00589019900729
C            4.32264672677019       24.54878746320383       -1.74681347832869
C            2.15560149396043       24.34077829994745       -1.46539999683561
H            1.18952144050083       24.41319851437212       -1.01268212601608
N            2.40831918543323       23.79907287055471       -2.62886871135332
C            3.75206126388847       23.93024996396939       -2.82491003802170
H            4.21575401571776       23.58587023970054       -3.72555755375436
78
 energy: -116.047749937719 gnorm: 0.031581144962 xtb: 6.7.1 (edcfbbe)
Fe           0.96787610357782       22.73367306326820       -3.76541148991275
N           -0.23860014792098       22.66098370284142       -2.15525574835202
N            0.15374312271242       24.48326518123325       -4.28002603606832
N            2.11031721789242       22.73171755089341       -5.44746572259773
N            1.78213913191904       20.95184112325098       -3.25280279094308
C           -0.20333187871071       21.72912880113761       -1.16812812672244
C           -1.19818149069803       22.02540577714990       -0.16053171331225
C           -1.84859680864964       23.14669989839108       -0.57855662647154
C           -1.21713506384631       23.54553316540738       -1.81640493434492
C           -0.85755993864923       25.14096517213104       -3.65406726611428
C           -1.11947103521232       26.40065790222685       -4.30888748625171
C           -0.20320706429544       26.51145513807284       -5.31682462068676
C            0.57104287544251       25.28596354596699       -5.29349165172049
C            2.15900116750422       23.73303589350650       -6.36803132885468
C            2.97925287738527       23.35132706738455       -7.48813706018186
C            3.44581957693486       22.08372477452362       -7.22195753167123
C            2.90671818265644       21.73427517128652       -5.90951670467134
C            2.65980103375400       20.21077537998119       -3.97730556352304
C            2.98302453293483       18.98202931990668       -3.27183299714555
C            2.30176698882642       19.02909731152911       -2.09851418678291
C            1.53806386344323       20.25906212602946       -2.11008417450894
C            0.63559021813846       20.62827262425633       -1.13095402375687
H            0.54077812635403       19.97368412300173       -0.27560214989407
C           -1.51810467321658       24.69832123471235       -2.51825980557406
H           -2.30715093217234       25.32557976243467       -2.13005814182822
C            1.49860483180094       24.94943521188391       -6.25735438258592
H            1.68622620144860       25.69161492740532       -7.02256286691587
C            3.17438471428124       20.56390253030993       -5.21298612935256
H            3.85813596728927       19.86350695455571       -5.67081063702890
C           -2.99843186618975       23.83964277713828        0.07073869146820
H           -3.31980354423087       23.29548551603388        0.95631282567859
H           -3.84433263086753       23.89896539921106       -0.61397099150241
H           -2.73672622390703       24.85543938303669        0.36849636931923
C           -1.43569173445885       21.22997746262759        1.07674913076255
H           -0.49432584013137       20.89528258533496        1.50794589527215
H           -2.04274791159881       20.34947178543458        0.86176990264767
H           -1.95752549074404       21.82624293030295        1.82233061901640
C           -2.17691510168682       27.38721500703609       -3.95072413200636
H           -2.27177479338842       27.49625279503818       -2.87249246499879
H           -3.14351815923496       27.06615890393958       -4.34440855937603
H           -1.94270751040921       28.36069353186926       -4.37615589975143
C           -0.07350398879388       27.64572714042670       -6.22441094324600
H           -0.99854940829076       27.98660839637962       -6.67513694845656
C            1.05418214000589       28.29912341851407       -6.47998175196558
H            1.99146080650845       28.01278351454592       -6.03560790855789
H            1.07643919815623       29.14751344575429       -7.14562610377008
C            3.21686797430692       24.19723436552438       -8.68928080873730
H            3.13870522212902       25.25504527281560       -8.44758764150813
H            2.47487454276322       23.97563071455428       -9.46049292481813
H            4.20578968623821       24.01284190518204       -9.10320786184519
C            4.28538991045145       21.23060491117192       -8.02569514471509
H            4.74290537390405       20.40197720583274       -7.49561427621969
C            4.55917174841415       21.33487962408018       -9.33114930620725
H            4.13286375528499       22.07911013999974       -9.97949866470321
H            5.22401605912170       20.63440900593118       -9.81015520635659
C            3.85055403797329       17.89455612931325       -3.80703201211449
H            4.86703910692899       18.24915949821402       -3.97405972584944
H            3.45552092947524       17.54159129326425       -4.75978309690046
H            3.88926707309080       17.04774352555024       -3.12610914850626
C            2.28613979785322       18.03695838204655       -0.98468956413643
H            3.11041764745575       17.33404367049442       -1.08418604931861
H            1.35266511148909       17.47181107414784       -0.97698080849831
H            2.38004417621379       18.54253007462821       -0.02405384317716
O           -0.66126030333089       21.62562836061075       -4.94083218898556
H           -0.42764943666060       21.32310651515161       -5.83830249058506
H           -1.31039517846420       20.98808192977459       -4.57697362254572
C            5.72603294173473       24.87791644663022       -1.40547852207200