72
 energy: -105.980605276950 gnorm: 0.000143401339 xtb: 6.7.1 (edcfbbe)
Fe           6.01338462701806       24.88176485984945       -7.48912873524044
N            4.30774794569746       23.88291571644474       -7.26420508180160
N            5.63553838063674       25.08207194134108       -9.45829173791013
N            7.77059769608796       25.84130022312937       -7.74158020502758
N            6.43962300634155       24.61709347012884       -5.56403546475135
C            3.80130660623782       23.39308389383707       -6.10568290557521
C            2.52917939868336       22.74199666280844       -6.33639431801187
C            2.28874074466405       22.83764542445209       -7.67020321612511
C            3.41254326426910       23.55549439256983       -8.23317204661132
C            4.56328331256129       24.58753588129832      -10.13881694497026
C            4.63520438079095       24.93879620716867      -11.53197902936490
C            5.78209888160829       25.67327604287085      -11.68676981680282
C            6.39643438533424       25.73721086501681      -10.37681213568521
C            8.22454015337118       26.42897368056461       -8.88544697650710
C            9.49427488962958       27.06792365679857       -8.66154619490354
C            9.80995042954172       26.84698871565221       -7.34647373021457
C            8.70599102107842       26.09343551817034       -6.78979803402193
C            7.56584737878362       25.00457960129254       -4.91170655694063
C            7.49830042839031       24.63919443719640       -3.51239093163731
C            6.29415381964795       24.03601473403501       -3.33502886527788
C            5.64975528498661       24.02832984879663       -4.63117020112296
C            4.40996737914251       23.47004455357764       -4.86803779361773
H            3.88884904807450       23.03710292371336       -4.02844869858447
C            3.52396120594147       23.86935279502283       -9.57227022337016
H            2.73095445981109       23.54310269581782      -10.22687073291428
C            7.58497725805121       26.39079093556821      -10.11208315897255
H            8.06617629816105       26.89534911493136      -10.93502621418096
C            8.63191263936452       25.67920558024052       -5.47318440080916
H            9.46063497448051       25.92193496964371       -4.82689751509606
C            1.13119950907981       22.33502243913319       -8.46203002631060
H            0.41454023839042       21.82976530653887       -7.81960448019774
H            1.46613491392520       21.62955688966332       -9.22258567924737
H            0.62157351503371       23.15791908938124       -8.96420442148464
C            1.70706811665103       22.10490832701258       -5.27011166121957
H            1.45680295768736       22.82894849851040       -4.49453229268263
H            2.25517089063108       21.28593975342704       -4.80415821402279
H            0.78177978389615       21.70795859173349       -5.68019144261905
C            3.66507011049341       24.50643128396533      -12.57448310053299
H            2.78770235073918       25.15549349432381      -12.58469465941944
H            3.32852535634752       23.48776045511904      -12.38809272138346
H            4.13171205072632       24.54551182172273      -13.55663075481956
C            6.33816865631593       26.25799592680606      -12.88729312283160
H            7.42048205076786       26.27626916922856      -12.94242393909292
C            5.63302154199807       26.76571374719972      -13.89252268794781
H            4.55838263202709       26.81638133614526      -13.87105101918550
H            6.11260589804911       27.17450933149636      -14.76617134811561
C           10.24646245533101       27.85678851075127       -9.67496698175852
H            9.56494950860074       28.43427072676245      -10.29794251855046
H           10.82769399429475       27.20225012345698      -10.32684323225816
H           10.93059573808384       28.54223233825838       -9.17924505508133
C           10.97029464863579       27.28058703007005       -6.59939066883836
H           10.79326035079560       27.51754892385925       -5.55704444652848
C           12.20047173203645       27.39531969786172       -7.08816865726242
H           12.44208736786295       27.12896237447583       -8.10243555323243
H           13.01907096727066       27.73744354656186       -6.47722924249878
C            8.57484783182762       24.91393675444609       -2.52019986363124
H            8.74214843106675       25.98704899143413       -2.42512271186903
H            9.51139513982586       24.45133407822469       -2.83202516555071
H            8.30785665281708       24.52140023108181       -1.54231637563769
C            5.69406263494976       23.46650715238441       -2.09644856101479
H            6.36234510485317       23.59488038126235       -1.24873406407661
H            5.49774908357495       22.40151265158753       -2.22140535326136
H            4.74985571835612       23.96058047177203       -1.86719403597958
O            7.13823011475474       23.01020719573905       -7.99771183675027
H            8.01054133706016       23.21348437828663       -7.64124577981726
H            7.19886632338272       23.08437947150279       -8.95707118942244
C            3.31293147665936       26.94807391904050       -7.67323310709263
H            2.94961478424078       27.96818963676064       -7.75093938152420
H            2.72272217554068       26.39384391719342       -6.95095045233936
H            3.28591700071585       26.44442613453509       -8.63335132129234
S            5.02680806716062       26.97004695807149       -7.04015160379735
H            5.53435148916874       27.62114960129414       -8.09239940381181
