78
 energy: -115.913776474918 gnorm: 0.323671548464 xtb: 6.7.1 (edcfbbe)
Fe           2.02800000000000       39.73500000000000      -17.74200000000000
N            3.89800000000000       40.12900000000000      -18.17400000000000
N            2.58600000000000       38.08400000000000      -16.80600000000000
N            0.16300000000000       39.40800000000000      -17.13800000000000
N            1.44800000000000       41.36800000000000      -18.62900000000000
C            4.40500000000000       41.26100000000000      -18.80000000000000
C            5.85700000000000       41.16400000000000      -18.95499999999999
C            6.22800000000000       39.96099999999999      -18.49000000000000
C            5.02000000000000       39.33000000000000      -17.97500000000000
C            3.86700000000000       37.53700000000000      -16.74300000000000
C            3.87200000000000       36.30200000000000      -15.98700000000000
C            2.59900000000000       36.08700000000000      -15.54900000000000
C            1.81200000000000       37.20399999999999      -16.06400000000000
C           -0.32200000000000       38.36800000000000      -16.37900000000000
C           -1.76500000000000       38.45400000000000      -16.21100000000000
C           -2.16700000000000       39.55199999999999      -16.85700000000000
C           -0.96400000000000       40.16200000000000      -17.40800000000000
C            0.14600000000000       41.79800000000000      -18.85400000000000
C            0.10400000000000       43.05800000000000      -19.56900000000000
C            1.37600000000000       43.44200000000000      -19.75400000000000
C            2.23000000000000       42.36400000000000      -19.18500000000000
C            3.62300000000000       42.30100000000000      -19.32600000000000
H            4.12400000000000       43.10000000000000      -19.87200000000000
C            5.01100000000000       38.12899999999999      -17.28400000000000
H            5.96100000000000       37.61099999999999      -17.15400000000000
C            0.44700000000000       37.34300000000000      -15.85700000000000
H           -0.05300000000000       36.59500000000000      -15.24200000000000
C           -0.97400000000000       41.27000000000000      -18.25200000000000
H           -1.93200000000000       41.75100000000000      -18.44900000000000
C            7.63800000000000       39.37500000000000      -18.52900000000000
H            8.11900000000000       39.49900000000000      -17.53500000000000
H            8.24500000000000       39.90800000000000      -19.29200000000000
H            7.58800000000000       38.29200000000000      -18.77200000000000
C            6.76900000000000       42.24600000000000      -19.51100000000000
H            6.33900000000000       43.24500000000000      -19.28600000000000
H            6.85800000000000       42.13200000000000      -20.61200000000000
H            7.77200000000000       42.17099999999999      -19.03900000000000
C            5.09900000000000       35.40299999999999      -15.81600000000000
H            5.66400000000000       35.71500000000000      -14.91100000000000
H            5.76000000000000       35.49699999999999      -16.70400000000000
H            4.77600000000000       34.34700000000000      -15.69300000000000
C            2.03100000000000       34.94700000000000      -14.67900000000000
H            1.04600000000000       34.49500000000000      -14.85800000000000
C            2.93300000000000       34.45600000000000      -13.51200000000000
H            3.91800000000000       34.91300000000000      -13.33700000000000
H            2.59600000000000       33.64600000000000      -12.84800000000000
C           -2.60200000000000       37.40899999999999      -15.47200000000000
H           -2.38100000000000       37.45900000000000      -14.38400000000000
H           -2.34900000000000       36.39300000000000      -15.84500000000000
H           -3.68200000000000       37.61300000000000      -15.63000000000000
C           -3.60400000000000       40.00599999999999      -17.15300000000000
H           -4.03000000000000       40.07600000000000      -18.16200000000000
C           -4.41500000000000       40.36100000000000      -15.90400000000000
H           -3.96400000000000       40.28200000000000      -14.90400000000000
H           -5.45800000000000       40.69899999999999      -15.99300000000000
C           -1.13300000000000       43.84699999999999      -19.99900000000000
H           -1.42000000000000       44.55600000000000      -19.19300000000000
H           -1.97800000000000       43.14900000000000      -20.18300000000000
H           -0.90900000000000       44.42300000000000      -20.92200000000000
C            1.75700000000000       44.80399999999999      -20.34000000000000
H            1.21000000000000       45.60600000000000      -19.80000000000000
H            1.48100000000000       44.84000000000000      -21.41500000000000
H            2.84900000000000       44.97100000000000      -20.22300000000000
O            2.26900000000000       40.78300000000000      -16.04400000000000
H            1.39300000000000       40.88699999999999      -15.67200000000000
H            3.02800000000000       41.09200000000000      -15.69800000000000
C            0.81900000000000       35.79299999999999      -21.60000000000000
H            1.69900000000000       35.21600000000000      -21.95700000000000
H            0.20700000000000       36.09500000000000      -22.47700000000000
H            0.21900000000000       35.15100000000000      -20.92100000000000
N            2.06100000000000       38.00600000000000      -21.42000000000000
H            2.38600000000000       38.02600000000000      -22.36600000000000
C            1.28500000000000       37.01300000000000      -20.86300000000000
C            2.29400000000000       38.92599999999999      -20.46700000000000
H            2.88700000000000       39.82500000000000      -20.63600000000000
N            1.71400000000000       38.58700000000000      -19.32999999999999
C            1.07600000000000       37.38999999999999      -19.57600000000000
H            0.51500000000000       36.90200000000000      -18.78900000000000
78
 energy: -116.011112490613 gnorm: 0.144962497813 xtb: 6.7.1 (edcfbbe)
Fe           2.01881244324324       39.71634257815408      -17.74476267176524
N            3.91286985378325       40.12804937253052      -18.19053852100725
N            2.59257935543647       38.06257018459901      -16.78384567797864
N            0.13573003877969       39.40759901715760      -17.13172582275721
N            1.44235392311074       41.38399554064186      -18.64334385773224
C            4.40054031311842       41.25874375495287      -18.80855891130523
C            5.84772722061165       41.17218622953114      -18.95897235913846
C            6.22313018792271       39.95750016168734      -18.48753188448894
C            5.01674558668599       39.32911666758881      -17.97323128604219
C            3.86330672138886       37.53075990725525      -16.73684034914136
C            3.87375384941131       36.29400386500965      -15.98408102559963
C            2.59765842430680       36.07309170269119      -15.52888594117221
C            1.81217623608045       37.18912832177092      -16.06204742157465
C           -0.32858374055092       38.36526300077930      -16.37483338644089
C           -1.76953862833214       38.44449472559991      -16.20747450749291
C           -2.18744226418352       39.55539419078793      -16.86950950223402
C           -0.98084350604362       40.14742307002373      -17.43429834272694
C            0.14563553070259       41.80818664485601      -18.84090845213669
C            0.10338523409825       43.05850750245327      -19.56753720395667
C            1.38821052004827       43.44313904565654      -19.75117805187715
C            2.22855876783880       42.36364270281530      -19.20188267220477
C            3.61580012960418       42.29657046490485      -19.31623907212103
H            4.11800646997656       43.09347237861744      -19.85651272812190
C            4.99816545974974       38.12495954097607      -17.28812725460872
H            5.94777239246006       37.61525923527968      -17.15614226750224
C            0.44948374899087       37.34154461388122      -15.85596647027237
H           -0.04858580400206       36.59760212951347      -15.24566761333114
C           -0.97830995349780       41.26231729114131      -18.25607239627025
H           -1.92962275348419       41.74542791696517      -18.44592460808035
C            7.61982477356873       39.37708467937224      -18.52153955156627
H            8.11231452376926       39.49450198322486      -17.54641186319895
H            8.22788965082283       39.89466099006517      -19.27585748446507
H            7.58879720865732       38.30849084539581      -18.76759397111633
C            6.75519887358042       42.24261369648061      -19.50922927685137
H            6.34547427342101       43.23524042348820      -19.29148173141764
H            6.85876977402215       42.13691086593663      -20.59773649458212
H            7.75049973491257       42.17202061953346      -19.05033118731065
C            5.08893503061572       35.41220191281229      -15.81585002879851
H            5.65894630818078       35.71102470412630      -14.92525831219023
H            5.74779222004545       35.49267830123264      -16.68944047757461
H            4.77952452824408       34.36642518409836      -15.69311190380738
C            2.10558223646791       34.96281003796481      -14.64036407506920
H            1.11536978116901       34.52403132035768      -14.83156216188438
C            2.88960095453404       34.47980075324835      -13.57702184018759
H            3.86703199382616       34.91239382052399      -13.36572242660450
H            2.57744800531040       33.68036314210518      -12.90025255300701
C           -2.59500513333851       37.41619058901571      -15.47515891244020
H           -2.38388239723480       37.45686276909630      -14.39815102172525
H           -2.35522384877347       36.40828526420214      -15.83820824895917
H           -3.66316098759767       37.61152010041121      -15.62939194853917
C           -3.60323290325590       40.02643573960305      -17.06873165621337
H           -4.01180710174237       40.08248844781224      -18.08692090561822
C           -4.38108732163219       40.34369499586728      -15.96025186663794
H           -3.96091609227495       40.27857039850616      -14.95713033918603
H           -5.41682290395196       40.68060027805036      -16.02225489374750
C           -1.12341443808100       43.83432069744542      -19.99118402435219
H           -1.41639377089963       44.54395441669935      -19.20445333682110
H           -1.96665533590481       43.16009417224683      -20.18160974075551
H           -0.91262274220748       44.40785056499654      -20.90343335507364
C            1.76872724960687       44.78632039795669      -20.33376456173350
H            1.22403988506926       45.58540296693722      -19.80924277678039
H            1.49204003963105       44.83709680729523      -21.39649637260737
H            2.84167359454863       44.97140669450115      -20.22908906694014
O            2.25449987004617       40.78415140162356      -16.04095143406834
H            1.39159155322657       40.90184762619386      -15.64583024459441
H            3.04976322754239       41.11355554534365      -15.66846214882255
C            0.82321546211196       35.79830920177536      -21.60032155384156
H            1.68614538310370       35.22005927083351      -21.95605667652402
H            0.21344503577989       36.08563793627795      -22.46687743747240
H            0.22847446611623       35.16431130092796      -20.93398895445062
N            2.05811142806093       37.99854761199315      -21.42415211518072
H            2.38532633786277       38.01928923056079      -22.37316368207104
C            1.28330227242888       37.01104029137650      -20.86253587546691
C            2.29328410789135       38.92479884475174      -20.47404972246351
H            2.88002339391430       39.81516664231695      -20.63642504397903
N            1.71744709859547       38.59226311623805      -19.34326675905584
C            1.08019468466582       37.39890447284647      -19.57276387508881
H            0.52344425829001       36.91247716850951      -18.79127585007637
78
 energy: -116.031921775743 gnorm: 0.129606465932 xtb: 6.7.1 (edcfbbe)
Fe           2.00763831020506       39.69944484521281      -17.74332093271603
N            3.92517317826489       40.12414721631040      -18.20618607454338
N            2.59468197468417       38.03556015606625      -16.76680124138829
N            0.10575836137090       39.39571675819735      -17.13551652802846
N            1.43092093568395       41.39916251456334      -18.65774131369545
C            4.39479080742090       41.25051975713549      -18.81946139487955
C            5.83727166535279       41.17559025959483      -18.96356219865496
C            6.21599001773204       39.95602115757910      -18.48385091335964
C            5.01093785482689       39.32759601355000      -17.97544415400584
C            3.85724411930212       37.52359005237950      -16.73381913243563
C            3.87917162834343       36.29069136269541      -15.97630473181104
C            2.60433812784962       36.06834575967626      -15.50807483641669
C            1.81382626874034       37.17815926883091      -16.05043699565963
C           -0.33716070994189       38.35655891319534      -16.37557255059540
C           -1.77224978219781       38.43712818796221      -16.19922596979065
C           -2.20064414932763       39.55056073228206      -16.87335824444061
C           -0.99822824406328       40.12736335688945      -17.45735657845344
C            0.14249358596583       41.81739081266430      -18.82971326874235
C            0.10276071926973       43.06239868871491      -19.55979731789915
C            1.39705835021391       43.44050807249968      -19.75087481377913
C            2.22213834748442       42.36264093610004      -19.21738537377431
C            3.60643652990613       42.28963329169706      -19.30668265032369
H            4.11246427305719       43.09078746845305      -19.83147763694291
C            4.98241866588086       38.11975305667062      -17.29571478962672
H            5.93180489929559       37.61743352518270      -17.16196695953333
C            0.45122852814187       37.33850014782690      -15.85253039022214
H           -0.04688351852123       36.59595558071569      -15.24733844980353
C           -0.98531419224973       41.25066088943004      -18.26267757975682
H           -1.93155913330505       41.73771545965153      -18.44611347374715
C            7.59978817878611       39.37948448101535      -18.51160227604889
H            8.09863344413556       39.49172825885611      -17.54741101770771
H            8.20645739732509       39.88767893913723      -19.26172924025530
H            7.57813521797119       38.31945598926523      -18.75980242826101
C            6.73897503951678       42.23837980436466      -19.50935487018210
H            6.34261624140575       43.22821856525102      -19.29646945730095
H            6.85379509663125       42.13918867121262      -20.59043369510629
H            7.72852646140850       42.16771739765483      -19.05736838783753
C            5.08119214264538       35.41902583353883      -15.81259481023623
H            5.65721715699487       35.71152748034046      -14.93325928616328
H            5.73433442832334       35.49090102184513      -16.68078789160129
H            4.77852258777754       34.38003985348936      -15.68900022908894
C            2.16079859359434       34.97900648306801      -14.62003230059657
H            1.16636582203152       34.56209263510188      -14.81974726040931
C            2.85752177028881       34.52636049859318      -13.64275754313798
H            3.83590190693212       34.92320469216269      -13.39434873577959
H            2.55295491035925       33.72419798150993      -12.97432859739749
C           -2.59164681148707       37.42354265438890      -15.47516110702070
H           -2.38550974216278       37.45576511016469      -14.40488542720321
H           -2.36002250656913       36.42052430558024      -15.83368576454591
H           -3.65195081891351       37.61418985051242      -15.62869416609603
C           -3.59543628616236       40.02614008254603      -17.00890741741898
H           -3.97985657098009       40.09419038684050      -18.03300777206643
C           -4.33123685563216       40.33256064333412      -16.00177964963797
H           -3.95229116817223       40.27412110462109      -14.98742131584862
H           -5.36480760280488       40.65832654129619      -16.05878038297787
C           -1.11381888793873       43.82488194242698      -19.98090238023500
H           -1.41242897205260       44.53440376660959      -19.20638043560116
H           -1.95308831713248       43.16121118249786      -20.17576156327231
H           -0.90890410633630       44.39318286346881      -20.88839309464906
C            1.78485497587282       44.76563782712533      -20.33052637676486
H            1.24143685289374       45.56150657069592      -19.81344917372547
H            1.50754144950173       44.82565292240353      -21.38562788570891
H            2.84685563461206       44.96202499863286      -20.23414857170765
O            2.24829380718871       40.79357032914493      -16.02605813153921
H            1.40444344608766       40.93301113411599      -15.59385903204692
H            3.04988095367139       41.13429415183710      -15.63482760090096
C            0.82654076156295       35.80295289763915      -21.59991623391705
H            1.67916378890114       35.22483204516173      -21.95575990329468
H            0.21832721972234       36.08146311892610      -22.46017873119169
H            0.23446117582040       35.17531667693630      -20.94085262403243
N            2.05514583405902       37.98937385650037      -21.43238592132713
H            2.38287498153499       38.00811632254270      -22.38341262156056
C            1.28238197824036       37.01006842977851      -20.86142303378889
C            2.29426592156182       38.92488642150382      -20.48774290782000
H            2.87598463278704       39.80914057675407      -20.64595139686121
N            1.72499853450059       38.60072346387088      -19.35628612981041
C            1.08664262539105       37.41141986629978      -19.56998909170859
H            0.53366025692113       36.92622512770968      -18.79150963358371
78
 energy: -116.041994215807 gnorm: 0.020725932740 xtb: 6.7.1 (edcfbbe)
Fe           2.00269375412482       39.70115046402552      -17.73558474462034
N            3.91748692886682       40.11747313161413      -18.21718182826039
N            2.59464719659008       38.03856755324940      -16.76458024439035
N            0.10308861626653       39.37918389079337      -17.14519698532254
N            1.42407122387008       41.39633700257941      -18.66069253256377
C            4.38513885372183       41.24375501527187      -18.82644288545404
C            5.82505197527986       41.17314889771395      -18.96934244473461
C            6.20414022574614       39.95680017999238      -18.48496275036748
C            5.00144077001786       39.32454566386924      -17.98485460925953
C            3.85554032183595       37.52641181780532      -16.73976470295481
C            3.88572197583376       36.29983239888610      -15.97873075295348
C            2.61332206323406       36.08747613644366      -15.51712718797098
C            1.81619374341366       37.18466142448764      -16.04950146182093
C           -0.33592015352912       38.34476864600315      -16.37863650276927
C           -1.76690723030021       38.42563602669522      -16.19832876594349
C           -2.18678572527482       39.53401340707982      -16.87844464725592
C           -0.99732208481056       40.10664640199715      -17.47572986650704
C            0.13868971917929       41.81608916048463      -18.82672301095761
C            0.10402958778915       43.06284489530960      -19.55063044476172
C            1.39915890327990       43.43343573121768      -19.74930817624538
C            2.21662831850744       42.35572876109362      -19.22021351407549
C            3.59903495387495       42.28583215233459      -19.30230943768553
H            4.10806240646408       43.09801015346305      -19.80473109844803
C            4.97515570641879       38.11758764348009      -17.30777508353884
H            5.92287361654482       37.61533583494325      -17.17462427419979
C            0.45459673671492       37.33449643412507      -15.85027363602208
H           -0.04119661893327       36.59044064831286      -15.24485153944951
C           -0.98898291673529       41.23641006992060      -18.27216635117716
H           -1.93643402348465       41.72394527018214      -18.44925300975012
C            7.58306351598885       39.37871547954148      -18.50077057662668
H            8.07892306804365       39.48997637937419      -17.53576685376659
H            8.18957110286081       39.88438715279564      -19.25000081076328
H            7.56015593836135       38.31957581039871      -18.74874289479657
C            6.72198160483591       42.23686681211527      -19.51505592067061
H            6.32834369820892       43.22758676865012      -19.30265150796547
H            6.84060475395346       42.14006919946935      -20.59520751590180
H            7.70955334092764       42.16394940571146      -19.06280969539576
C            5.08119138998563       35.42474014728737      -15.80989739253494
H            5.66305891653012       35.71860303341132      -14.93562428915985
H            5.72942197546912       35.48717816865515      -16.68118703070196
H            4.77354063526097       34.38905896722207      -15.67910017616601
C            2.15450433615043       35.01505328744599      -14.64974150996241
H            1.16497376078008       34.60909589480690      -14.84755155949941
C            2.87333934959066       34.51903124941950      -13.64130502204192
H            3.84010294464673       34.92498786301483      -13.38213483171459
H            2.53055904365835       33.72263229857911      -12.99676647370889
C           -2.59127709699472       37.42321216493426      -15.46911694138295
H           -2.38563939698238       37.45524740352975      -14.39941650546335
H           -2.36626260948749       36.41911537644644      -15.82624699733281
H           -3.64896142695998       37.62052246205585      -15.62526776728891
C           -3.55857844038131       40.02512214893162      -17.01681553537435
H           -3.93844026111008       40.10612302968698      -18.03244815272630
C           -4.33768496809554       40.32366744747710      -15.98451901064903
H           -3.96108704614586       40.27524014161538      -14.97289314284496
H           -5.36021131250681       40.65635950646676      -16.07905381400985
C           -1.11064144288222       43.82053812123618      -19.97091832062186
H           -1.41204515811817       44.52997184329581      -19.19880338168251
H           -1.94684255195090       43.15450559290610      -20.16692859415083
H           -0.90368820729601       44.38438279198006      -20.87879201686181
C            1.80511517672455       44.74812003286959      -20.33264731022389
H            1.26681633575824       45.54546331557811      -19.81651075971677
H            1.52969280217387       44.80721102725823      -21.38675885000988
H            2.86828565297531       44.93968609700581      -20.23856178068114
O            2.24725787481579       40.81183986698022      -15.99703410930884
H            1.41526889730318       40.96365189417233      -15.54087317175260
H            3.04931510054267       41.15336245766304      -15.60582807904184
C            0.82709838454041       35.80648701200803      -21.59694209509045
H            1.67710393036147       35.22645029056877      -21.95489227885967
H            0.21801547986045       36.08116972937729      -22.45723515585619
H            0.23478932851651       35.18103599203991      -20.93791261026143
N            2.05493526025647       37.98645026869810      -21.44251375131179
H            2.37921791859250       37.99650442461778      -22.39515110439936
C            1.28396868178560       37.01368189619653      -20.86105403033162
C            2.29796652795107       38.92918712545431      -20.50495606978221
H            2.87867943601158       39.81182945251400      -20.66995327722857
N            1.73376036834288       38.61414650023701      -19.36650786056809
C            1.09481217387193       37.42430728498275      -19.57112556141607
H            0.54615236876725       36.94433456994269      -18.78704541293330
78
 energy: -116.046088895766 gnorm: 0.020584797599 xtb: 6.7.1 (edcfbbe)
Fe           1.99833385649573       39.70030957104654      -17.73217988547204
N            3.91065556467009       40.11452419526898      -18.22354427110696
N            2.59479320080748       38.03854044896084      -16.76815629939420
N            0.10185431926538       39.35746634602160      -17.16020557950651
N            1.41484241750573       41.39461447791788      -18.66064128328963
C            4.37490774904660       41.23988337353644      -18.82986477543768
C            5.81211345666811       41.17255805468210      -18.97632576931493
C            6.19236054900829       39.95834721332371      -18.48848141619020
C            4.99192765235720       39.32398092331032      -17.99440743103616
C            3.85459049175687       37.52955556073702      -16.74762332103579
C            3.89422028084893       36.30986949810165      -15.97930672744277
C            2.62289925585350       36.10254103356915      -15.51746044287892
C            1.82022788742692       37.18766279776382      -16.05139868632523
C           -0.33381788893476       38.32984536848496      -16.38477820776992
C           -1.76133585022046       38.41379983282724      -16.19377912739774
C           -2.17828176115041       39.51608935379008      -16.88438340292842
C           -0.99588636569696       40.08165628293987      -17.49532488979363
C            0.13318251639742       41.81409538354772      -18.82264994499499
C            0.10203479120318       43.06470249077340      -19.53910159124249
C            1.39930203775719       43.42613823058979      -19.74605626026663
C            2.20873235817303       42.35073708327563      -19.21740071872266
C            3.58984127065054       42.28548669423218      -19.29138975968299
H            4.10086453982824       43.10834862239548      -19.77301036788250
C            4.96901944545906       38.11546500966229      -17.32332731839203
H            5.91501902338452       37.61019706505022      -17.19688380962965
C            0.45940273009115       37.32748775106427      -15.85010298524747
H           -0.03300012762046       36.58459269842545      -15.24017825883570
C           -0.99355437428629       41.21749832332610      -18.28290805139113
H           -1.94397559300642       41.70012468246205      -18.45752358375645
C            7.56621340147001       39.37705755869338      -18.48780881911712
H            8.04930686077242       39.48812483560508      -17.51649788908925
H            8.18087738748244       39.87899551380587      -19.23239415740498
H            7.53758399616066       38.31694239741655      -18.73167787301261
C            6.70225568302264       42.23664233314818      -19.52553064344175
H            6.30648580824533       43.22637926489554      -19.31145132138749
H            6.81611163713859       42.14061958739558      -20.60626203092978
H            7.69051074713406       42.16309111321741      -19.07527864844462
C            5.08488670086571       35.43299269692749      -15.80639796226912
H            5.67444652403040       35.73383716700754      -14.93947768852252
H            5.72736050736034       35.47980643698719      -16.68368155646722
H            4.76909705632737       34.40144419688019      -15.65865790982193
C            2.15507113327169       35.04028511347289      -14.65965144107149
H            1.16306746535277       34.65093897491148      -14.85510358543905
C            2.86493220523840       34.53658059598905      -13.64789536479247
H            3.84042288543355       34.91715962626587      -13.39764790783234
H            2.50068289948617       33.72674808475812      -13.03738152062378
C           -2.59151600180925       37.42306028910235      -15.45691793939579
H           -2.38534068675665       37.45620104765409      -14.38736227814409
H           -2.37702488914165       36.41460372086857      -15.81035766098995
H           -3.64739013953933       37.63084776534244      -15.61339963541373
C           -3.53535829527298       40.02093675678763      -17.01747781567977
H           -3.90503691246844       40.13873195447381      -18.03055906331523
C           -4.31902956104520       40.32160578643808      -15.98449856549366
H           -3.96656028627838       40.23488530541444      -14.96827930913601
H           -5.33461702198512       40.65881829792536      -16.10895724239434
C           -1.11085576302880       43.82048785311817      -19.95765687192307
H           -1.41628527124811       44.52807504674249      -19.18560745508581
H           -1.94303151606642       43.14912025888736      -20.15375123274340
H           -0.90281502978215       44.38333329294021      -20.86581018368435
C            1.82978584603248       44.72581118717520      -20.34053334018999
H            1.30634122928558       45.53698627012668      -19.83123730758215
H            1.56264127786361       44.77900099985658      -21.39682650250822
H            2.89688432945290       44.89587487821447      -20.24440377242277
O            2.24271274482868       40.83240007976507      -15.95970442543586
H            1.43121468408260       41.00276343011098      -15.46941683053155
H            3.04363846796066       41.17611440500158      -15.56337658808306
C            0.82636884462779       35.80953820489270      -21.59155879390249