78
 energy: -116.058003529316 gnorm: 0.000096410666 xtb: 6.7.1 (edcfbbe)
Fe           2.02253405284731       39.71157278410526      -17.65747177295986
N            3.92775395003487       40.13236625683979      -18.14700306885948
N            2.62404644131978       38.05958556974621      -16.71979971734280
N            0.13213445896134       39.34570118908027      -17.13229072900415
N            1.43693690768301       41.41536051600680      -18.56054727141822
C            4.38219564154355       41.20555331438123      -18.85044566038141
C            5.81430546150424       41.13028568276214      -19.02948078663422
C            6.21471104601093       39.97896092845386      -18.42493079709082
C            5.02247646139822       39.36841075586518      -17.88192049876141
C            3.89383232270814       37.58057150404210      -16.63623090864782
C            3.93230123881240       36.35464646106574      -15.87816240738668
C            2.64352864192647       36.10057738650183      -15.49360545764071
C            1.84354502139358       37.17937288196273      -16.04462041538739
C           -0.31571535983436       38.29258812358952      -16.39746563034713
C           -1.74498301866817       38.35821724171139      -16.22249618820483
C           -2.16001347597672       39.48666817245685      -16.87716480339751
C           -0.96406075296065       40.08138120475829      -17.44433536925597
C            0.16116944775588       41.86996107404492      -18.69059362035967
C            0.13297246351777       43.10480911277198      -19.44039663301069
C            1.42442527373055       43.38535712607720      -19.76548130549536
C            2.22333626213075       42.31615940944015      -19.21238705127232
C            3.59762140828866       42.23263462426394      -19.34432720801073
H            4.09462784328651       43.02206587930790      -19.88722311786597
C            5.01632291170744       38.17985733452247      -17.18021080320355
H            5.96539115845390       37.68728827495725      -17.03425541985417
C            0.47687781668093       37.28491333880302      -15.87697119536341
H           -0.01287614204728       36.52449070418700      -15.28800912892884
C           -0.96271519172103       41.25842972385758      -18.16893962838106
H           -1.91148419790100       41.74457047096341      -18.33627950722557
C            7.58382653603170       39.40314770768724      -18.30443004195205
H            7.86299418264812       39.29493487823585      -17.25614581546456
H            8.31736177522474       40.04246925963901      -18.78962658973160
H            7.62693135688270       38.41755546297684      -18.76853811633127
C            6.62702118550454       42.15250546226027      -19.74829610102373
H            6.52124731763300       43.12940771928280      -19.27569942872630
H            6.30236966274614       42.24310717379667      -20.78542102893196
H            7.68011028131812       41.88260088555183      -19.74260853199970
C            5.14818478671431       35.52750202020283      -15.64523757838683
H            5.73198733722117       35.92022212351169      -14.81114985263827
H            5.78503651689850       35.52032418233010      -16.52865778964448
H            4.86359036328446       34.50331836457597      -15.41261374467702
C            2.11879130569559       34.99141538073990      -14.72824512760614
H            1.12052030514432       34.66583515178296      -14.99782800883410
C            2.75258067943734       34.36731154302389      -13.74065842428845
H            3.72344086487870       34.67809375921426      -13.39667159077875
H            2.30508079212009       33.53684365733877      -13.22005753699766
C           -2.57142165339924       37.33694089621201      -15.52214997993546
H           -2.54381059038038       37.48959671162423      -14.44213972043965
H           -2.20286535190851       36.33322786491993      -15.72922866991409
H           -3.60602869009882       37.40293478457777      -15.85272717393798
C           -3.49716244105674       40.01570309769357      -17.03164028064669
H           -3.69793321067420       40.51406452767360      -17.97324867834070
C           -4.46460222087795       39.94286464531846      -16.12323904576356
H           -4.30735423167862       39.50369629813785      -15.15368798281892
H           -5.44528950862897       40.34813887628069      -16.31044826771631
C           -1.10704405727434       43.86848905542990      -19.75595175614277
H           -1.61832234375746       44.16498914270971      -18.83980070897277
H           -1.79370526236729       43.25778223931142      -20.34261755551085
H           -0.87558748340658       44.76587074839101      -20.32461350155366
C            1.97690790109113       44.53859144773986      -20.53156797546468
H            1.18300168344668       45.21606468524267      -20.83590738164422
H            2.49476012399891       44.19358710263621      -21.42713913843503
H            2.68984449559077       45.09710736320920      -19.92437267588178
O            2.34901738856714       40.99248531213511      -15.78598801937030
H            1.80808186478096       41.75785828480076      -16.00884236400247
H            3.26841884914559       41.24522860915645      -15.92444312114017
C            0.68516939833994       35.94533463483420      -21.54393935108389
H            1.49477997600020       35.41953875163031      -22.04994914432999
H           -0.05717827649771       36.22733548710443      -22.29052168906539
H            0.22278156125576       35.26926119015668      -20.83173878667326
N            1.83516515619056       38.16903745275779      -21.47859728691058
H            2.01629371077305       38.21845623606085      -22.46769158904588
C            1.19790828305720       37.14287178841423      -20.83149693963173
C            2.17063008166286       39.09315159155051      -20.55038854870991
H            2.68181310179386       40.00730334078443      -20.77068067855677
N            1.78485115329201       38.71488388127359      -19.35614820821166
C            1.17829975368286       37.50332064667088      -19.51462900325908
H            0.77130749734081       36.97633152687613      -18.67653336719708
