78
 energy: -115.969851281722 gnorm: 0.252902283940 xtb: 6.7.1 (edcfbbe)
Fe         -11.70600000000000        2.51200000000000        1.24400000000000
N          -12.24800000000000        0.72400000000000        2.10300000000000
N           -9.98000000000000        2.52300000000000        2.35200000000000
N          -11.03100000000000        4.15500000000000        0.23000000000000
N          -13.31700000000000        2.33100000000000       -0.09700000000000
C          -13.40400000000000        0.02200000000000        1.81800000000000
C          -13.40400000000000       -1.17200000000000        2.65300000000000
C          -12.28000000000000       -1.16600000000000        3.39100000000000
C          -11.55800000000000        0.04900000000000        3.08000000000000
C           -9.65900000000000        1.58600000000000        3.32700000000000
C           -8.44700000000000        1.99700000000000        3.99200000000000
C           -8.05700000000000        3.16400000000000        3.43900000000000
C           -9.01100000000000        3.48700000000000        2.39100000000000
C           -9.84700000000000        4.79600000000000        0.50000000000000
C           -9.65500000000000        5.80000000000000       -0.53800000000000
C          -10.70100000000000        5.74000000000000       -1.39200000000000
C          -11.58900000000000        4.68400000000000       -0.92000000000000
C          -13.63700000000000        3.30500000000000       -1.04500000000000
C          -14.99200000000000        3.09600000000000       -1.51400000000000
C          -15.47500000000000        1.87300000000000       -0.76300000000000
C          -14.37100000000000        1.45600000000000        0.07500000000000
C          -14.38000000000000        0.37100000000000        0.91900000000000
H          -15.25300000000000       -0.28000000000000        0.86900000000000
C          -10.35400000000000        0.44200000000000        3.62100000000000
H           -9.90800000000000       -0.22500000000000        4.35900000000000
C           -8.99100000000000        4.58000000000000        1.55700000000000
H           -8.23300000000000        5.34000000000000        1.74900000000000
C          -12.79600000000000        4.30300000000000       -1.46500000000000
H          -13.12300000000000        4.86500000000000       -2.33900000000000
C          -11.84800000000000       -2.22700000000000        4.44600000000000
H          -12.52300000000000       -3.10700000000000        4.38400000000000
H          -11.91600000000000       -1.79200000000000        5.46600000000000
H          -10.80700000000000       -2.55600000000000        4.24300000000000
C          -14.51300000000000       -2.23700000000000        2.62100000000000
H          -14.35500000000000       -2.91100000000000        1.75200000000000
H          -15.50400000000000       -1.74400000000000        2.51900000000000
H          -14.48300000000000       -2.83900000000000        3.55400000000000
C           -7.78900000000000        1.20500000000000        5.13600000000000
H           -7.84900000000000        0.11800000000000        4.91600000000000
H           -8.32200000000000        1.41000000000000        6.08900000000000
H           -6.72100000000000        1.49600000000000        5.22800000000000
C           -6.81400000000000        4.00600000000000        3.80400000000000
H           -6.22100000000000        4.48800000000000        3.01300000000000
C           -6.42600000000000        4.17300000000000        5.07600000000000
H           -6.99100000000000        3.70900000000000        5.89800000000000
H           -5.53800000000000        4.77700000000000        5.31400000000000
C           -8.41500000000000        6.71900000000000       -0.58800000000000
H           -7.54300000000000        6.19000000000000       -0.14700000000000
H           -8.60900000000000        7.64300000000000       -0.00300000000000
H           -8.18300000000000        6.97900000000000       -1.64300000000000
C          -10.93400000000000        6.59000000000000       -2.67400000000000
H          -11.39800000000000        6.11400000000000       -3.55100000000000
C          -10.60500000000000        7.88100000000000       -2.78900000000000
H          -10.13800000000000        8.41500000000000       -1.94800000000000
H          -10.79700000000000        8.42500000000000       -3.72600000000000
C          -15.78500000000000        3.92700000000000       -2.53500000000000
H          -15.35600000000000        3.77700000000000       -3.54900000000000
H          -15.72100000000000        5.00500000000000       -2.27300000000000
H          -16.84700000000000        3.60000000000000       -2.54100000000000
C          -16.84000000000000        1.20200000000000       -0.86400000000000
H          -17.32900000000000        1.49800000000000       -1.81600000000000
H          -17.48000000000000        1.52400000000000       -0.01500000000000
H          -16.71700000000000        0.09800000000000       -0.85000000000000
O          -10.82900000000000        1.28200000000000       -0.18700000000000
H          -11.50000000000000        1.13100000000000       -0.85200000000000
H          -10.00200000000000        0.95700000000000       -0.19200000000000
C          -15.15100000000000        6.29600000000000        3.58800000000000
H          -14.70300000000000        7.27600000000000        3.85800000000000
H          -15.80800000000000        5.95900000000000        4.41800000000000
H          -15.74600000000000        6.41600000000000        2.65700000000000
N          -13.15500000000000        4.94600000000000        4.34800000000000
H          -13.15000000000000        5.33500000000000        5.26900000000000
C          -14.05500000000000        5.28700000000000        3.36500000000000
C          -12.31400000000000        4.03800000000000        3.88600000000000
H          -11.50700000000000        3.59200000000000        4.46600000000000
N          -12.62600000000000        3.78200000000000        2.62900000000000
C          -13.72300000000000        4.53700000000000        2.27900000000000
H          -14.16400000000000        4.47000000000000        1.29200000000000
78
 energy: -116.022998900221 gnorm: 0.101208734041 xtb: 6.7.1 (edcfbbe)
Fe         -11.68741589920620        2.50977597833763        1.24539235951407
N          -12.25890657439974        0.74380599592739        2.11781658010013
N           -9.97888823309995        2.52074944686041        2.36569666327728
N          -11.02546765869614        4.13812619550558        0.21731734929146
N          -13.32183792541881        2.36084036148219       -0.06543338635091
C          -13.38929261807376        0.02540137065848        1.82167929460746
C          -13.42141172470123       -1.17414681740005        2.65258816242246
C          -12.28943950627702       -1.17060551505582        3.40098440376152
C          -11.56754729059894        0.04520098029151        3.06727938523097
C           -9.65256414570266        1.59384477676519        3.32558924066411
C           -8.43880574121425        1.99930103359704        4.00041032885370
C           -8.04182334854420        3.17850225205527        3.44083327366727
C           -9.01827452646776        3.48745220677115        2.40220036366307
C           -9.86495688258364        4.80675338955767        0.48683860202747
C           -9.65483681792696        5.81751552970576       -0.54065934400954
C          -10.70447721279224        5.74906790084410       -1.40914593523617
C          -11.57893663502373        4.68208093358407       -0.91767216057531
C          -13.65534926446824        3.29204711276811       -1.02484238606821
C          -15.00235010172710        3.05584157260419       -1.49317997093290
C          -15.45989504644831        1.90263106648489       -0.78891459699568
C          -14.37342620795538        1.49538103418807        0.07087159562274
C          -14.37277498834131        0.38571700016637        0.91574812846235
H          -15.24085840740682       -0.26609860888325        0.86452951727903
C          -10.35921765191844        0.44023156817873        3.61658471777864
H           -9.92265351149292       -0.21989157595578        4.35892129961387
C           -9.00122318871504        4.58251013040456        1.55302723968449
H           -8.22851678799841        5.32443769393608        1.73013124188789
C          -12.79863386855514        4.30200524260390       -1.46002926618956
H          -13.12834422105836        4.86701870359488       -2.32718586335869
C          -11.85413852987652       -2.20821998221143        4.42781658254006
H          -12.50791369979294       -3.08502482589351        4.38127813401912
H          -11.91057454094489       -1.79322731936757        5.44122120829709
H          -10.82694480799342       -2.54091672424070        4.24265883785259
C          -14.50546110201809       -2.22553621628024        2.61813084004955
H          -14.35848946897083       -2.89800041838464        1.76404961835888
H          -15.48848459482677       -1.75409476986110        2.52356660323984
H          -14.48822490134129       -2.82421119249611        3.53432276447818
C           -7.79311592960793        1.21276001452836        5.11954821907785
H           -7.84712537891532        0.13754335658545        4.91712686959760
H           -8.30958515101749        1.40657746430911        6.06821646802590
H           -6.74077716604853        1.49387285335331        5.22449690718824
C           -6.84085849872458        3.99462347100239        3.80685509463446
H           -6.26489584222964        4.46701013897845        3.01078596759613
C           -6.43728454702559        4.16491225361735        5.06384632410351
H           -6.98228275113787        3.72586957701705        5.89070519257295
H           -5.55955912793039        4.75951650342625        5.30392958932679
C           -8.43058126235569        6.70869185853606       -0.59087641925973
H           -7.56357861259651        6.19729411575738       -0.15832964656048
H           -8.60645050963773        7.62629676805292       -0.01667791179205
H           -8.19394838389567        6.97677837144562       -1.62558361118221
C          -10.92945087979899        6.57688442640159       -2.64486483892083
H          -11.39394713265298        6.09208795989396       -3.50491282444340
C          -10.60242909324044        7.86061669891468       -2.77320051652036
H          -10.14927191743343        8.41197432266505       -1.95833732895645
H          -10.79088708393899        8.40363661579025       -3.69715832862199
C          -15.76524403131221        3.89439289680635       -2.50491179651837
H          -15.35701305372150        3.77094188067489       -3.51856170126881
H          -15.71629949313593        4.96621707737425       -2.26564256543855
H          -16.82067394396877        3.60216321763843       -2.53347060982870
C          -16.80894014590740        1.22607446972588       -0.87334848560121
H          -17.32006003381678        1.49585504673135       -1.80331040133639
H          -17.45623930156568        1.52060674419278       -0.03456607370440
H          -16.70985643323655        0.13256326524204       -0.84977299810068
O          -10.82501649792619        1.28989060169221       -0.20400141925797
H          -11.48761266431730        1.11281340679080       -0.87227139073683
H           -9.96008967467350        0.92444872777407       -0.21830352617020
C          -15.14449770312402        6.29381839079218        3.58984970428929
H          -14.71422349021083        7.26625533192718        3.85605708575441
H          -15.80314668159460        5.96960500930363        4.40381120759698
H          -15.73391730246435        6.41045678378432        2.67656769321060
N          -13.16563146716154        4.95571191781347        4.35189813422507
H          -13.15543925268550        5.34600635122833        5.27812784913858
C          -14.06045417758141        5.29075002187143        3.36870508545331
C          -12.32186375824522        4.03333867075164        3.86811243928851
H          -11.51971973953408        3.59417433687240        4.43907648388561
N          -12.63265705975337        3.75593904125432        2.61948169534887
C          -13.71320902096232        4.53211138093419        2.28843146087414
H          -14.15080817233577        4.47065314770559        1.30905149650243
78
 energy: -116.039854923057 gnorm: 0.036533256733 xtb: 6.7.1 (edcfbbe)
Fe         -11.68015720675334        2.50859359222357        1.24414469631493
N          -12.26838780424821        0.76064334202635        2.12163365990618
N           -9.98788539394852        2.51834661214739        2.37480526793420
N          -11.02245588395349        4.12381029322385        0.21432459452441
N          -13.32807361914586        2.39367156150985       -0.02767309019164
C          -13.39286794919126        0.04645987872955        1.83661064949742
C          -13.42010451468694       -1.17155768763225        2.63888745586179
C          -12.28924024053742       -1.16692365533385        3.39919530924547
C          -11.57893513223256        0.05455562562795        3.05905182243797
C           -9.65662002992024        1.60209454402054        3.32356459379705
C           -8.44445026292358        2.00147002223532        4.00583037194966
C           -8.04706769685625        3.19004569754593        3.44335629501924
C           -9.03200406632297        3.48429371312866        2.40584316527757
C           -9.87664897303190        4.80692361682787        0.47778462844546
C           -9.66017545692078        5.82729600852107       -0.53199729494534
C          -10.71277020949960        5.75002114318197       -1.40979947664648
C          -11.57123374185580        4.67151806194441       -0.90976002851315
C          -13.66317584310096        3.29395188742653       -0.99488825361504
C          -15.00466036170886        3.02633997848330       -1.47306248590390
C          -15.44303683031154        1.93129668142133       -0.80585213826096
C          -14.37491768971790        1.53288325907498        0.08556906445838
C          -14.37655386092846        0.41269653388996        0.92590815833287
H          -15.23264684725747       -0.24685299189032        0.85758058541751
C          -10.37112471526233        0.44561686877442        3.61659926657740
H           -9.94216915648032       -0.21208208409177        4.36022644040580
C           -9.00761521344218        4.57449352386427        1.54437014118112
H           -8.21922527627249        5.29875477134849        1.70560371086798
C          -12.80105142429239        4.30329893559676       -1.44772368446620
H          -13.13624293290827        4.87058661731216       -2.30784751887343
C          -11.85809980903059       -2.18383048631219        4.40763118843802
H          -12.50030811008953       -3.06042322193728        4.36887071519308
H          -11.90669599217494       -1.77817759817526        5.41844500152074
H          -10.83645132206907       -2.51361376619572        4.22907764169560
C          -14.49461687141671       -2.20747519877839        2.61041445694488
H          -14.35886250684335       -2.88131451870983        1.76413520852117
H          -15.47723550686299       -1.75119567306966        2.52342884833201
H          -14.48191608681917       -2.80508467272679        3.51846979804543
C           -7.79768703379137        1.22163804494639        5.10198695920248
H           -7.84860384496684        0.15285092701545        4.90550525675765
H           -8.30291731679667        1.40689479105568        6.05124968808920
H           -6.75338036917491        1.50113712932145        5.21221836678128
C           -6.88149510983908        3.98214826431028        3.80213976032401
H           -6.32659157375399        4.45026006814654        2.99576867914277
C           -6.45490279715109        4.15713958866426        5.04927963329688
H           -6.98100059607720        3.73984527141980        5.88919027712126
H           -5.57804489227052        4.74004527294294        5.28292119036092
C           -8.45109751490274        6.70088972545401       -0.59175088377449
H           -7.58602264182305        6.19447947572867       -0.16960872431971
H           -8.60971696293472        7.61759580133739       -0.02294642294404
H           -8.21932839103549        6.97331825668967       -1.61851396626344
C          -10.93244821715579        6.55127039276028       -2.60449904407764
H          -11.40230567181179        6.05508707972933       -3.44786996648496
C          -10.60169417194253        7.83189531571553       -2.74992932528291
H          -10.15752103628073        8.40443300702868       -1.95577753684509
H          -10.78357383519206        8.36851913253133       -3.66916969791387
C          -15.74460732792266        3.86245621287512       -2.47822203704288
H          -15.33550745072426        3.74625326369476       -3.48474092103875
H          -15.69278146443290        4.92556316308875       -2.23492762384973
H          -16.79633196353669        3.58596995184222       -2.51542080899701
C          -16.77692628851275        1.24946161288238       -0.88448925450311
H          -17.29903909972018        1.50795041042669       -1.80264656542023
H          -17.41758657014963        1.53435924596181       -0.04562398062357
H          -16.67713055394412        0.16388989081778       -0.85375103249305
O          -10.79479390297354        1.31135115678428       -0.23852246591198
H          -11.44859527376744        1.06703178692307       -0.90032960201002
H           -9.93770692877355        0.88022825856040       -0.24595191145917
C          -15.13844075629920        6.29113374259525        3.58823885098343
H          -14.71720238564976        7.25933341316866        3.85354716036922
H          -15.79796032712599        5.97437953028092        4.39465611254898
H          -15.72513892606139        6.40445804725937        2.68405502946808
N          -13.16922769779348        4.95848316415417        4.35359897805839
H          -13.15245116078086        5.34805335997995        5.28264775155568
C          -14.06235950951377        5.29089709103767        3.37019123687012
C          -12.32883157172414        4.02467779958493        3.85255598845776
H          -11.52923754595631        3.58850000752341        4.41508533887788
N          -12.63431137183423        3.74364373671195        2.60834567703503
C          -13.70978637609402        4.52479624582899        2.29524884525016
H          -14.14702903079032        4.47455014798654        1.32050222597715
78
 energy: -116.046193053359 gnorm: 0.035776887013 xtb: 6.7.1 (edcfbbe)
Fe         -11.67437973806116        2.50255536726061        1.23370295630621
N          -12.27446704977838        0.77761017730729        2.12524283550741
N          -10.00330763361680        2.51597977720774        2.37786111893718
N          -11.02163229538315        4.11531683370129        0.22369043830227
N          -13.33270685136258        2.42146040818643        0.00848563879544
C          -13.39508521732364        0.06323006541333        1.84239577893077
C          -13.42905640470750       -1.15361276144588        2.63811130235640
C          -12.29776126981254       -1.15118143082206        3.39633708340331
C          -11.58869181553132        0.06818659818437        3.05933828115720
C           -9.67032681666180        1.60438131277400        3.32625390954965
C           -8.46228317887848        2.00240339382975        4.00922154733551
C           -8.07044398815257        3.19241680929939        3.44673297816580
C           -9.04878797851021        3.48055850181265        2.40709843687824
C           -9.87933870328714        4.80132840192639        0.48317440588917
C           -9.66704494081369        5.82620429782755       -0.51466219900072
C          -10.72158388969776        5.74509536849279       -1.38921462144390
C          -11.57147057620769        4.66614348930833       -0.89184232271959
C          -13.65779492664326        3.31070833627286       -0.96763066393699
C          -14.99162517793940        3.03350266713283       -1.46310736405797
C          -15.43396653016903        1.93662085571112       -0.79413059783623
C          -14.37229177599635        1.55337224120999        0.11281785941145
C          -14.37871156099760        0.43074510431180        0.93719042769716
H          -15.23217234874989       -0.22836368549037        0.85932371110669
C          -10.38410854550766        0.44987263103663        3.62195552772931
H           -9.96366331057462       -0.20593409220695        4.37061585005822
C           -9.00864943799879        4.56396318693984        1.54245351228949
H           -8.20093841677198        5.27060062403271        1.68540900207353
C          -12.80270771648817        4.31323594950059       -1.42885217232965
H          -13.14280202334559        4.88350848186179       -2.28373340254155
C          -11.85506552797164       -2.16536734935974        4.39332473848591
H          -12.49460635680293       -3.04353802702086        4.35748279670070
H          -11.89746674281875       -1.75726774095072        5.40341611576926
H          -10.83231987026492       -2.48741993305726        4.20704415795638
C          -14.49758927624294       -2.19114545944086        2.60159098824283
H          -14.36095312308967       -2.86200722072529        1.75269817105008
H          -15.48150492264391       -1.73723787895054        2.51819448410497
H          -14.48069604190484       -2.79111159289567        3.50794756602413
C           -7.80181570350423        1.22414845848690        5.09225203746977
H           -7.84821069113139        0.15643671949568        4.88985619675250
H           -8.29824808921949        1.40279265948694        6.04750110749704
H           -6.75893462796494        1.51273569255191        5.19308834516205
C           -6.91357899457163        3.98431663038777        3.79402145533316
H           -6.38039902992109        4.45554415824411        2.97538728749874
C           -6.46656767533370        4.15730720688775        5.03486152877641
H           -6.98387264475690        3.75141565231304        5.88677399488562
H           -5.58345829779032        4.73316425983836        5.25407524508564
C           -8.46459206227498        6.69968005399960       -0.58941609149858
H           -7.59458080632376        6.19105439155721       -0.18080886981316
H           -8.61369507586475        7.61763294987228       -0.01978476305825
H           -8.25162075109857        6.97270604321421       -1.62052138185905
C          -10.94702775853661        6.53109509940032       -2.57788723639676
H          -11.43015091978677        6.02356205659017       -3.40616000674046
C          -10.60578758438618        7.80766181730653       -2.73569590718463
H          -10.16528714959805        8.39046339785228       -1.94650194252848
H          -10.78326382902469        8.33466797414044       -3.65859514073478
C          -15.72342752484381        3.85564801546473       -2.47101301282280
H          -15.30303682630801        3.72975171612248       -3.46902809085938
H          -15.66779752514558        4.91330246069069       -2.21661063932349
H          -16.77253440757710        3.57334042642265       -2.50635742295139
C          -16.75885991778494        1.25463739750486       -0.88681333373756
H          -17.27548166274495        1.51878328896252       -1.80545073353519
H          -17.39332274504320        1.54161947853263       -0.04641000994405
H          -16.64666164814908        0.17272666925383       -0.85958330698734
O          -10.73684026151128        1.35246940791943       -0.30139845422646
H          -11.40403585900287        0.98854320791684       -0.91795867735083
H           -9.91888019615302        0.81993034140364       -0.25694733830931
C          -15.13248705660290        6.28683122208668        3.58642111694773
H          -14.71200095326956        7.25545901903959        3.85119709455552
H          -15.79501180911167        5.97376800443696        4.39202007998596
H          -15.71855112499308        6.39905776512912        2.68177400734714
N          -13.16486672221163        4.94829620271632        4.34983056532945
H          -13.14149416066832        5.33770780766959        5.27915005943242
C          -14.05927138457388        5.28455144213607        3.36837463072680
C          -12.33066940259914        4.00985336843474        3.84060002299300
H          -11.52872703610799        3.57217537353097        4.39649906548125
N          -12.64046193579384        3.72963776829274        2.59850157688600
C          -13.71135880570214        4.51866492381697        2.29239871730298
H          -14.15212736230577        4.48004576271452        1.31941994806440
78
 energy: -116.050234631258 gnorm: 0.026328042122 xtb: 6.7.1 (edcfbbe)
Fe         -11.67444780504926        2.49727888915480        1.22591346246827
N          -12.27128279451356        0.78657191781973        2.11362201996380
N          -10.02329000337787        2.51070531309168        2.37588641501463
N          -11.02344320335814        4.10512090880223        0.24151399364750
N          -13.32015917516044        2.43632393941351        0.03861319515966
C          -13.39728903134774        0.07797816712166        1.84391228696447
C          -13.43893187694588       -1.13366025225568        2.63670829729703
C          -12.30728800333729       -1.13383550774077        3.39091216416015
C          -11.59555885660732        0.07973405480425        3.05604268207655
C           -9.68849823765190        1.60470059464315        3.33022695519226
C           -8.48709265165390        2.00455181692872        4.01456531397136
C           -8.10088613151275        3.19294647387622        3.45042719388738
C           -9.06856296930389        3.47399458876698        2.40664716508386
C           -9.88010146996043        4.79195024702742        0.49356236504066
C           -9.67633117075908        5.82149063389623       -0.49301703128596
C          -10.73483390091493        5.73839568412980       -1.35964315472167
C          -11.57527989224790        4.66025407548292       -0.86596834376980
C          -13.64346151395479        3.32369125957371       -0.93794760992975
C          -14.96930685751839        3.04333464340403       -1.44838560470026
C          -15.41660811640750        1.94122025833496       -0.77614793989344
C          -14.36067421819123        1.56928410185959        0.13989490906023
C          -14.38331773230416        0.44899766769801        0.94965338023312
H          -15.24074409818795       -0.20192370947979        0.86723462038566
C          -10.39854433612288        0.45325390089358        3.63054875190740
H           -9.98958272071185       -0.19795122876685        4.38885119145642
C           -9.00623927952834        4.54935969158120        1.54106706409763
H           -8.18115585557817        5.23792092386664        1.66757234674280
C          -12.80609388178650        4.32483710676525       -1.40343537890794
H          -13.15306411163973        4.90010839187761       -2.25095088695313
C          -11.85067823786815       -2.14585565209516        4.38338874070643
H          -12.48681402706689       -3.02737609826336        4.35218142379277
H          -11.88354013705070       -1.73419337020490        5.39359965885027
H          -10.82653344236748       -2.45822032841001        4.18183849899748
C          -14.50709645970169       -2.17167543149294        2.59225367746202
H          -14.36811661516183       -2.83559720400399        1.73677150024377
H          -15.49217514655421       -1.71704243802995        2.51233638932533
H          -14.48526105093400       -2.77741360148111        3.49599054493869
C           -7.80834592947947        1.22574892864617        5.08562453315398
H           -7.84755240539431        0.15840744336148        4.87357764117092
H           -8.29216964958795        1.39406845825349        6.05043500937933
H           -6.76588799693325        1.52700028626023        5.17021423129553
C           -6.94531323550435        3.99271137846749        3.78394517939136
H           -6.43595164796235        4.46814523822335        2.95217384021853
C           -6.47796354406953        4.16476707139944        5.01751259613282
H           -6.97832447358163        3.75608962988046        5.87975042421237
H           -5.59001523741416        4.73998003624427        5.21811952436242
C           -8.47802893151115        6.69908751571466       -0.58544122159358
H           -7.59793904477343        6.18936247319464       -0.19665132771840
H           -8.61702125539683        7.61733046194952       -0.01183267765916
H           -8.29168174718389        6.97339759762633       -1.62350303343794
C          -10.97148473971578        6.51277419761729       -2.55323774449496
H          -11.46664515488269        5.99141408156242       -3.36580404145802
C          -10.61780514498756        7.78416240567305       -2.72488111750622
H          -10.16729234344177        8.36962440626157       -1.94222021862158
H          -10.79113402617472        8.29939215336495       -3.65456603151681
C          -15.69396677415095        3.85323655440343       -2.46471942636942
H          -15.26240642351125        3.71782518729584       -3.45589473788691
H          -15.63911806289781        4.90958155079712       -2.20913025733132
H          -16.74187198425309        3.56499028319897       -2.50407808629476
C          -16.73592354517128        1.25939951900209       -0.88592607361930
H          -17.24522932569060        1.53284915171818       -1.80665328858183
H          -17.37167168475935        1.54162015034890       -0.04533158774110
H          -16.61548429477689        0.17893343946229       -0.86954682069418
O          -10.69342436072709        1.34452564733349       -0.34528114714339
H          -11.33813306635136        0.94844587734826       -0.94759742905045
H           -9.91044300302390        0.76510127476321       -0.27789418778868
C          -15.12519349452731        6.28330601571543        3.58452134418102