78
 energy: -116.058077921298 gnorm: 0.000087296192 xtb: 6.7.1 (edcfbbe)
Fe         -11.68078734093978        2.47537575094043        1.14470810320278
N          -12.30801678808061        0.80696642329600        2.08159893067014
N          -10.02511638266247        2.48170350556740        2.29543779640861
N          -11.02244622557512        4.09152385420135        0.18196640822250
N          -13.29467923736579        2.42029130807190       -0.02146523766429
C          -13.47365289442379        0.14043878121875        1.86724768343323
C          -13.59312848772663       -0.98341317435235        2.76769795692326
C          -12.47073072387766       -0.97972206929140        3.53696628025173
C          -11.68239129602511        0.14949518679187        3.09830707362083
C           -9.70517961839636        1.59777457047389        3.28348764494066
C           -8.46858118724403        1.96640258859826        3.91990063401183
C           -8.04497264429658        3.11511012760852        3.30273789289979
C           -9.03294966514356        3.41060506243251        2.28495540536464
C           -9.88718185864384        4.79411397749607        0.44463775512280
C           -9.76134254860322        5.91938363110817       -0.44813831404573
C          -10.85885430393117        5.88482674723258       -1.26545478006020
C          -11.62834596801604        4.72658045061985       -0.85083940526074
C          -13.60344598113842        3.28428509907009       -1.02206274564573
C          -14.86869818462426        2.93310753124787       -1.63176519948677
C          -15.31746577438805        1.83457111936657       -0.96985958326549
C          -14.31919187044074        1.53000174862055        0.03347214569808
C          -14.41802806883845        0.46926604080943        0.91277772466222
H          -15.29740231832502       -0.15297000533315        0.84840342365148
C          -10.46869004584615        0.50276159026537        3.65579543038392
H          -10.09857418871193       -0.10978367747145        4.46373771781674
C           -8.96671037570440        4.49572629995814        1.43295564225628
H           -8.12953657910836        5.16682819965121        1.54824868760784
C          -12.83611648426270        4.36297961113269       -1.41688455424439
H          -13.21290326619846        4.97042937793587       -2.22567649482796
C          -12.06841771733499       -1.91467044547234        4.62603499733675
H          -12.81921247726737       -2.68796673886208        4.76813366564401
H          -11.94591054312996       -1.37911318270947        5.56804033007069
H          -11.12044025007959       -2.39775012661954        4.38735583501542
C          -14.74916849929714       -1.92344985971179        2.78951722145524
H          -14.85694873482257       -2.42089302445532        1.82536158713554
H          -15.67493312727206       -1.38652820035433        2.99724287530140
H          -14.61555516431025       -2.68476633181658        3.55420833033322
C           -7.78490520551146        1.18268880282701        4.98593505101003
H           -7.90274604074074        0.11350841376393        4.81533462766194
H           -8.19860315719042        1.41476670130537        5.96899245909515
H           -6.72257826345890        1.41803375591402        4.99765846361137
C           -6.85195466478043        3.89502293817871        3.54555890850941
H           -6.42220626891302        4.37629374947154        2.67472429119285
C           -6.26768900889794        4.06563332700653        4.72717039437253
H           -6.67476575972904        3.65308820335353        5.63378103640600
H           -5.36971699434205        4.65172329345016        4.83158536762722
C           -8.60664837263390        6.85844021311909       -0.48733986257532
H           -7.67104113017918        6.32556005762628       -0.32414097093696
H           -8.69922503008947        7.62264746559029        0.28627214667436
H           -8.56068595242271        7.35265487226297       -1.45556319592067
C          -11.21899988109732        6.76736442367531       -2.35313421630216
H          -11.73122966465248        6.29874696690336       -3.18545331609399
C          -10.97895297981709        8.07385564448503       -2.39783245619117
H          -10.51625750590552        8.59954662736119       -1.58074899555361
H          -11.26229966408234        8.67021688884051       -3.24932393771482
C          -15.49120325046393        3.67623420335331       -2.76348579143942
H          -14.83477963115546        3.66582510713015       -3.63374402182183
H          -15.67106071161181        4.71582178513231       -2.48819427663558
H          -16.44051304382688        3.22762417825597       -3.04573978910443
C          -16.56632406364082        1.04879415277771       -1.17945167483227
H          -17.16021787037596        1.47419172900761       -1.98463039905797
H          -17.17196636163973        1.04184187339187       -0.27284996054166
H          -16.33047724993657        0.01586543390318       -1.43649127672680
O          -10.53077620834138        1.07934053842125       -0.26668583001052
H          -10.91019780042861        0.23512252525911        0.00070084657091
H           -9.65417361842399        1.13399381001302        0.12918825641796
C          -14.72919893429598        6.38928621320077        3.68655153220782
H          -14.20661306287225        7.10818887647825        4.31745563831545
H          -15.63778075978837        6.07978562418403        4.20298013837269
H          -15.00572854890807        6.87814636091247        2.75775148513511
N          -13.36365609617743        4.40706888355351        4.37736565678380
H          -13.52151378662546        4.51469901433752        5.36582674186510
C          -13.86410548786705        5.21877072816626        3.39327077911200
C          -12.62288976640494        3.44722919341073        3.77931581699471
H          -12.10905360033296        2.67029341268768        4.30648857412079
N          -12.62410605043812        3.60148760109027        2.47761966811826
C          -13.39231662663833        4.69937655713021        2.22187933930656
H          -13.55213510331015        5.03969810581109        1.21961388704447
