87
 energy: -124.322615235258 gnorm: 0.438699873466 xtb: 6.7.1 (edcfbbe)
Fe           2.40800000000000       -7.70200000000000       15.46000000000000
N            2.25400000000000       -8.16600000000000       13.43000000000000
N            4.13500000000000       -8.85500000000000       15.57000000000000
N            2.58200000000000       -7.19900000000000       17.48100000000000
N            0.69100000000000       -6.51500000000000       15.33400000000000
C            1.44300000000000       -7.60700000000000       12.51500000000000
C            1.61900000000000       -8.10900000000000       11.12500000000000
C            2.70800000000000       -9.08200000000000       11.27600000000000
C            3.03300000000000       -8.98900000000000       12.71400000000000
C            4.66400000000000       -9.65800000000000       14.63800000000000
C            5.91100000000000      -10.35400000000000       15.01700000000000
C            6.14500000000000       -9.85900000000000       16.38000000000000
C            5.00500000000000       -8.94100000000000       16.59400000000000
C            3.64800000000000       -7.42400000000000       18.27100000000000
C            3.49700000000000       -6.89900000000000       19.64399999999999
C            2.18600000000000       -6.23300000000000       19.64800000000000
C            1.74000000000000       -6.47300000000000       18.24400000000000
C            0.03700000000000       -5.90400000000000       16.33500000000000
C           -1.12900000000000       -5.12800000000000       15.88100000000000
C           -1.15800000000000       -5.26200000000000       14.41800000000000
C            0.03300000000000       -6.13400000000000       14.21000000000000
C            0.44400000000000       -6.57900000000000       12.87300000000000
H           -0.05200000000000       -6.08800000000000       12.03600000000000
C            4.04900000000000       -9.84600000000000       13.33000000000000
H            4.37800000000000      -10.71000000000000       12.75300000000000
C            4.82500000000000       -8.17300000000000       17.83200000000000
H            5.67700000000000       -8.15900000000000       18.51100000000000
C            0.43300000000000       -6.03200000000000       17.74200000000000
H           -0.31800000000000       -5.77400000000000       18.48900000000000
C            0.86600000000000       -7.73700000000000        9.86900000000000
H            1.06900000000000       -6.64700000000000        9.93900000000000
H           -0.14500000000000       -7.94200000000000       10.28200000000000
H            0.91000000000000       -8.04400000000000        8.80200000000000
C            3.41300000000000       -9.93300000000000       10.25300000000000
H            3.25200000000000      -10.89500000000000       10.78400000000000
H            4.44400000000000       -9.57500000000000       10.46100000000000
H            3.28100000000000      -10.09700000000000        9.16200000000000
C           -2.10100000000000       -4.67300000000000       13.40100000000000
H           -2.96700000000000       -5.08500000000000       13.96200000000000
H           -2.34400000000000       -4.66600000000000       12.31700000000000
H           -1.90400000000000       -3.63800000000000       13.75200000000000
C           -2.07000000000000       -4.39600000000000       16.74300000000000
H           -1.97800000000000       -3.30000000000000       16.72500000000000
C           -3.47200000000000       -4.96000000000000       16.82300000000000
H           -3.63600000000000       -6.04800000000000       16.84500000000000
H           -4.34300000000000       -4.28900000000000       16.86000000000000
C            1.47400000000000       -5.49600000000000       20.75400000000000
H            0.53800000000000       -6.09200000000000       20.70400000000000
H            1.32600000000000       -4.54600000000000       20.19700000000000
H            1.70700000000000       -5.28000000000000       21.81800000000000
C            4.49000000000000       -6.98100000000000       20.76000000000000
H            5.50200000000000       -6.83700000000000       20.38700000000000
C            4.09400000000000       -7.66300000000000       22.04500000000000
H            3.03400000000000       -7.75400000000000       22.32500000000000
H            4.86100000000000       -8.07700000000000       22.71600000000000
C            7.27900000000000      -10.18900000000000       17.31500000000000
H            7.06500000000000      -11.27900000000000       17.28900000000000
H            7.70800000000000       -9.93000000000000       18.30600000000000
H            8.00600000000000       -9.94500000000000       16.51100000000000
C            6.69200000000000      -11.35100000000000       14.20700000000000
H            6.63000000000000      -12.06600000000000       15.05500000000000
H            7.62800000000000      -10.76000000000000       14.30200000000000
H            6.69900000000000      -11.92200000000000       13.25400000000000
C            4.19400000000000       -2.42200000000000       14.60600000000000
H            4.09600000000000       -2.09200000000000       13.55000000000000
H            5.17800000000000       -2.08800000000000       14.99800000000000
H            3.37400000000000       -1.96800000000000       15.20200000000000
N            4.98600000000000       -4.74500000000000       14.02000000000000
H            5.75600000000000       -4.43000000000000       13.46500000000000
C            4.10300000000000       -3.91500000000000       14.67400000000000
C            4.65300000000000       -6.00500000000000       14.24400000000000
H            5.19500000000000       -6.86600000000000       13.85400000000000
N            3.57300000000000       -6.02100000000000       15.00600000000000
C            3.20900000000000       -4.72600000000000       15.29000000000000
H            2.34600000000000       -4.50400000000000       15.90500000000000
C            2.47000000000000      -11.12000000000000       17.87100000000000
H            2.45200000000000      -11.43500000000000       18.93600000000000
H            3.47400000000000      -10.70400000000000       17.64100000000000
H            2.28000000000000      -12.01000000000000       17.23400000000000
C            1.40100000000000      -10.06400000000000       17.61900000000000
H            1.61100000000000       -9.19100000000000       18.27199999999999
H            0.41600000000000      -10.48700000000000       17.90900000000000
S            1.33200000000000       -9.51800000000000       15.89500000000000
C           -0.44000000000000       -9.29600000000000       15.75900000000000
H           -0.80900000000000       -8.54300000000000       16.48700000000000
H           -0.96300000000000      -10.25500000000000       15.96200000000000
H           -0.70600000000000       -8.94600000000000       14.73900000000000
87
 energy: -124.507535034336 gnorm: 0.242721765641 xtb: 6.7.1 (edcfbbe)
Fe           2.41442367517428       -7.69163443300472       15.46300890336772
N            2.26121601159034       -8.15492501358839       13.41315496490775
N            4.13758338145675       -8.84503622474016       15.56975895637565
N            2.59169061963533       -7.18168007577096       17.49293881648181
N            0.69513973183775       -6.50820504542949       15.32838739460853
C            1.42402668758737       -7.58816996469897       12.50979653174098
C            1.64723001329049       -8.12594143908103       11.14339834764021
C            2.68637623444547       -9.05728733111305       11.28756187510076
C            3.03749814116434       -9.01831275178133       12.71833167110055
C            4.63774818419555       -9.65983063942204       14.61579497729707
C            5.86504625247892      -10.32252938493015       15.03387252456936
C            6.10160359519223       -9.83096802656387       16.35966979957746
C            4.99326262977944       -8.91599366160072       16.61746207839321
C            3.67372489358351       -7.42698254206257       18.27315788858674
C            3.49021506315788       -6.89030589667111       19.63989495565837
C            2.21764309975353       -6.26462871795588       19.63135728157427
C            1.71371550984494       -6.47235329520704       18.24834718187558
C            0.03846648967293       -5.91374116379657       16.35306268285841
C           -1.12143517155387       -5.15604432139036       15.86725662134645
C           -1.10645795644563       -5.29237046208892       14.43789121082144
C            0.05504916313798       -6.14982966020558       14.18267744789646
C            0.44986442233464       -6.59003196254513       12.87429172911291
H           -0.05518226363917       -6.10001485555427       12.04505712177597
C            4.04363217855263       -9.83733534952728       13.32937779198674
H            4.38822780609564      -10.69187463727328       12.75295043678838
C            4.81606001498288       -8.17258769104998       17.83321050512222
H            5.66597024736416       -8.17034815976080       18.51003819864778
C            0.44075886915947       -6.03001131256279       17.73469260300513
H           -0.30625818119294       -5.75765096334158       18.47812315119677
C            0.86095211049490       -7.71933534463940        9.90990056530610
H            1.04455939296868       -6.63612731073038        9.92070610397750
H           -0.16014090930974       -7.92450367986263       10.26063554730564
H            0.93975539177143       -8.05983833723354        8.85669675284872
C            3.41772376159564       -9.93195389712709       10.29196112801872
H            3.27418310935667      -10.91146386418816       10.76821697328555
H            4.45393834710443       -9.59810482473932       10.44802250186602
H            3.25565623087513      -10.06180955734815        9.20356616052490
C           -2.09844539092380       -4.67071265784998       13.45796416049854
H           -3.00010856587066       -5.05684708055097       13.95263871030073
H           -2.29073687153223       -4.69697894766575       12.36164763902364
H           -1.93756934791687       -3.62127655700094       13.74152957450976
C           -2.12735053116658       -4.42064661882349       16.67363834356584
H           -1.99020456252603       -3.32611076171202       16.73364617722121
C           -3.42993473296032       -4.94070895213408       16.81343298451140
H           -3.61727219620477       -6.01892343705044       16.83321882182862
H           -4.31118657929015       -4.29573633172610       16.88506515825394
C            1.46370856238416       -5.50770654447173       20.71128554352779
H            0.52011460814851       -6.07190588540619       20.71712543764395
H            1.30509660717501       -4.53941061675689       20.21355072092448
H            1.73608339438162       -5.30839660804994       21.76826410326727
C            4.45210613419302       -7.03851212023975       20.76441317206084
H            5.47937853060838       -6.85291447970816       20.42262026056101
C            4.10900503343355       -7.63734497325401       21.99372579444409
H            3.06297155635410       -7.74966087179280       22.29751593130518
H            4.85179827914948       -8.04234009083574       22.69179418026167
C            7.27002176048047      -10.20748342455761       17.26362191998138
H            7.09968035175588      -11.29339927682039       17.29566846519297
H            7.64994673006154       -9.90978902329837       18.26573863021296
H            8.04674841702763       -9.96979339161638       16.52463927706176
C            6.70262271378344      -11.33375738261021       14.26112370693835
H            6.66991909125467      -12.09662191739574       15.04975653029221
H            7.65731113781179      -10.78992005019174       14.29826254690201
H            6.65650986559053      -11.86891011609643       13.28614991740661
C            4.19546351133431       -2.42252347805994       14.60403694518929
H            4.09797694679235       -2.09053911321640       13.56041699267336
H            5.16684839270534       -2.08623223678295       14.99401078661879
H            3.38645082833408       -1.97375845896023       15.19479632462993
N            4.98932528895984       -4.73336787168748       14.02003791478770
H            5.76267216497007       -4.42221806186051       13.46201354983880
C            4.10400508146219       -3.90886584883236       14.67061526613544
C            4.64170906382213       -6.00483730432795       14.24930462832182
H            5.18125277927276       -6.85876851221954       13.86201422083685
N            3.56532646520974       -6.03204451757662       15.00672823889896
C            3.21461536406508       -4.73635791468377       15.28574454209627
H            2.35677732250891       -4.51063097673630       15.89835299573736
C            2.47116637946322      -11.12090858244441       17.86916821092820
H            2.45383466108535      -11.43175810578500       18.92363618221305
H            3.46386989724626      -10.71101914948563       17.64185217072128
H            2.28558910168113      -12.00159342146776       17.23955747205326
C            1.39893861785263      -10.06678979239060       17.63317882223832
H            1.60552353589055       -9.19463851521822       18.26799395430879
H            0.41863202671917      -10.48217981729548       17.90538527415770
S            1.32416327007406       -9.54159632457666       15.89013304447619
C           -0.45495199018940       -9.29572348290441       15.76269899455914
H           -0.80562105109245       -8.54569867678147       16.48274511699805
H           -0.96173506659640      -10.24978325325571       15.95799585417502
H           -0.69851336426725       -8.95059666724804       14.74931540716032
87
 energy: -124.604467563144 gnorm: 0.111935733124 xtb: 6.7.1 (edcfbbe)
Fe           2.42696974387776       -7.67776213071605       15.46301872015415
N            2.26663143965019       -8.14576894869306       13.40443065112236
N            4.13631612422334       -8.83233394247235       15.57031375328095
N            2.60181579364187       -7.16980049816446       17.49752108687354
N            0.70577119139798       -6.50616262430498       15.32503305293863
C            1.41328843715780       -7.56911043894880       12.51136503319080
C            1.66902786180406       -8.13853101293359       11.15841029989329
C            2.66468366101448       -9.03935263839992       11.29852969340208
C            3.04096284574777       -9.03758916949504       12.72817298267326
C            4.61337198959062       -9.65963020552132       14.60048960674915
C            5.82890532581912      -10.29902851324880       15.05313206590871
C            6.06890032523986       -9.81041818132240       16.34014968658283
C            4.98414503421317       -8.89114454777757       16.63451758224317
C            3.69209894688959       -7.43079945098860       18.27173447967057
C            3.47182725374515       -6.88061174114421       19.63605683414097
C            2.23602578694318       -6.29157241654523       19.61604789123059
C            1.69622880629108       -6.47219375662004       18.24376091715303
C            0.04529125288323       -5.92957044537114       16.36918459154310
C           -1.11052016474305       -5.18833967228159       15.85359210748938
C           -1.06885988069855       -5.31776072174984       14.45988948282811
C            0.07650944118125       -6.16144065581482       14.16369148728073
C            0.45991789307674       -6.60099595675879       12.87747671809721
H           -0.06304877722290       -6.11796595291245       12.05533164545854
C            4.03435120006934       -9.82435870332663       13.33099759314377
H            4.40378782730720      -10.66563438935145       12.75062223622141
C            4.80558888948332       -8.16896720853542       17.83254650555839
H            5.65169602477627       -8.18778186485411       18.51303159771334
C            0.45412780445386       -6.03164407236939       17.72573757842233
H           -0.28840613560396       -5.73224372737918       18.46467592730646
C            0.85630700604536       -7.70035302591770        9.95201542530415
H            1.02078957886292       -6.62343986216850        9.90723246044062
H           -0.17405560810985       -7.90652480501340       10.24508136330825
H            0.98203010170527       -8.08454883174493        8.92031882860436
C            3.42110783454136       -9.93090180820574       10.33216277239598
H            3.29480832753229      -10.92740654916335       10.75636757985582
H            4.46244677032589       -9.61882811721257       10.43957477553930
H            3.21734972687135      -10.01528646476756        9.24922057164041
C           -2.09556411262360       -4.66812384355880       13.52068820895931
H           -3.03030068101564       -5.02982464417406       13.94926893294783
H           -2.21689983561602       -4.74261865696706       12.41403252257184
H           -1.96847155623034       -3.60604169023145       13.73879422594731
C           -2.17739818911261       -4.44639774364542       16.60556592093999
H           -1.99788305306337       -3.35920006074320       16.72407460408578
C           -3.38279735226818       -4.92491321776856       16.79251989272482
H           -3.60032484395544       -5.99389320386205       16.80254121106363
H           -4.27163637156012       -4.30144014101253       16.92929626588409
C            1.45138082451226       -5.52003937474717       20.66823755710699
H            0.50149782428618       -6.05449449768343       20.72543183463216
H            1.28712849350046       -4.53574223980683       20.22341768259624
H            1.77920791766568       -5.34723176535170       21.71241063191009
C            4.41828663538930       -7.08129408538474       20.76751917171357
H            5.45602679809157       -6.87845454283985       20.45336903123333
C            4.11751360397758       -7.61736673050136       21.93161845589248
H            3.08599241128241       -7.75392816362862       22.26453983122855
H            4.84296136510599       -7.99466356017797       22.66169817153177
C            7.25908609025525      -10.22624875970967       17.20723496500840
H            7.12970829149822      -11.30684921237332       17.29484542569722
H            7.57044471302432       -9.87642389191681       18.21835370953521
H            8.08443608331407       -9.99685146533990       16.53280608309318
C            6.71174755504788      -11.31397870519305       14.32183196519921
H            6.71172564996500      -12.12421860161358       15.05026704292959
H            7.68259811252931      -10.81518144544066       14.30202610369582
H            6.59309885982818      -11.79858580972395       13.32353697013025
C            4.19596201000548       -2.42386222056158       14.60296201712564
H            4.09987783967873       -2.08899390474040       13.56830449248892
H            5.15828846468901       -2.08471364658334       14.99102448533634
H            3.39559955425917       -1.97829098454931       15.19003881602913
N            4.99233756351003       -4.72475452717378       14.02037568815771
H            5.76846114277662       -4.41807423512175       13.45982356314434
C            4.10385801702188       -3.90563687984343       14.66833309999351
C            4.63088822228951       -6.00427270161161       14.25343509454393
H            5.16806195217981       -6.85208682366493       13.86854580510665
N            3.55769470176355       -6.04122092370611       15.00579012059149
C            3.21913641543611       -4.74631982488646       15.28099349211483
H            2.36676017664883       -4.51482018348433       15.89193912902474
C            2.47191634431962      -11.12220916358910       17.86975557875956
H            2.45702435518602      -11.43093114802760       18.91591750727933
H            3.45494264945357      -10.71544115892325       17.64104855772069
H            2.28938354930539      -11.99398729838763       17.24291767924095
C            1.39655183191605      -10.07126003874751       17.64655842374651
H            1.60069050780846       -9.19634814648606       18.26209017652125
H            0.41925820655653      -10.47995118955555       17.90323246725786
S            1.31920784805280       -9.55988006325349       15.88503507466946
C           -0.47053465904188       -9.29670235143274       15.76606859423227
H           -0.80144414298148       -8.54737423322765       16.48037872479541
H           -0.96526072894990      -10.24674516768428       15.95476802387043
H           -0.69141673569664       -8.95431407916737       14.75730138463062
87
 energy: -124.654942458994 gnorm: 0.070139649097 xtb: 6.7.1 (edcfbbe)
Fe           2.43488490676387       -7.67165366580787       15.46228525148399
N            2.27378727637508       -8.13382318128203       13.41347150270879
N            4.12711777827489       -8.81175379402044       15.56973993957820
N            2.60988285843866       -7.16124916146458       17.48114138108233
N            0.72880748504238       -6.51345603204698       15.32230022300046
C            1.41898721142315       -7.55825077908196       12.52387821518136
C            1.67024282792200       -8.12895249744784       11.17721325868686
C            2.66123312238710       -9.04017441914626       11.31954031129286
C            3.03626098476192       -9.03948125261503       12.74526783830605
C            4.59420866717833       -9.65093999225512       14.60276136096095
C            5.80583949819922      -10.28781347662651       15.06734837875308
C            6.05107666646711       -9.79495725939842       16.33082330956349
C            4.97456515707649       -8.87045705866104       16.63516398714038
C            3.69473148241879       -7.42724931044529       18.25708278608788
C            3.45884055633339       -6.88253905439096       19.61412966842322
C            2.22387210702168       -6.30623319406612       19.59290421173679
C            1.69264507760546       -6.47862519949583       18.22522061613243
C            0.05954593684658       -5.95070001406845       16.36927163134325
C           -1.09071743966881       -5.22023896080360       15.84355658536907
C           -1.04716888276261       -5.33714329103058       14.47108225815319
C            0.09899297418361       -6.17009561447287       14.16133582463158
C            0.46615549232150       -6.60597904435363       12.87816927596117
H           -0.08102571254206       -6.14172201782105       12.06210888668804
C            4.02937294858938       -9.81469031070760       13.33463589213249
H            4.43142966631409      -10.63268293784900       12.74235700830894
C            4.80043645640503       -8.16544413753622       17.83414586752343
H            5.63560272735779       -8.21533108994410       18.52638504488982
C            0.46409343539775       -6.03133178023909       17.71631242049628
H           -0.26674595837168       -5.68984514023988       18.44940246592922
C            0.85434631205052       -7.68365105915831        9.98924662696518
H            0.99350418611584       -6.60378588328460        9.89684655270946
H           -0.19196176324712       -7.88306145479818       10.23416103126570
H            1.03997900010705       -8.12015808468428        8.98994489620642
C            3.42076907769722       -9.92922694182595       10.36682246587299
H            3.31759132943733      -10.94822527155338       10.74753115419372
H            4.47341223247033       -9.64054936573826       10.43568367397277
H            3.16195592583724       -9.95463380990951        9.29482052798248
C           -2.08352391705899       -4.67289042624000       13.57087615698891
H           -3.05631564500986       -5.00050606643432       13.95305138735987
H           -2.12498243740073       -4.80190036837854       12.46620008945279
H           -1.99744756998273       -3.59468933936439       13.74555706867454
C           -2.16314147977771       -4.44869325126576       16.54313469040889
H           -1.98282065349956       -3.37516620279662       16.68238115293515
C           -3.37997767367626       -4.93429413219583       16.80710241572217
H           -3.60141315151760       -5.99564216458050       16.75244197561457
H           -4.24841452195060       -4.30462910395785       17.00456012696337
C            1.43979490816047       -5.53471584578353       20.62946698867929
H            0.47409119439144       -6.03800153996383       20.73025543097448
H            1.26466469040988       -4.53327492955953       20.22604204412233
H            1.84042890380038       -5.39950757614284       21.65123938898439
C            4.40729986192084       -7.10492240617625       20.72634384045979
H            5.44808336520292       -6.90625526938559       20.45026443859722
C            4.10793154407198       -7.60193704244783       21.92438952875645
H            3.08389331997746       -7.77542824522443       22.23848940050250
H            4.84371155544189       -7.93820681852834       22.65219190535676
C            7.24353451317136      -10.23414349032693       17.16222994953942
H            7.15836567844865      -11.31902624592764       17.28628686420450
H            7.47510584887529       -9.82989626317425       18.17161900526230
H            8.11982687883845      -10.02901475630686       16.53601300618058
C            6.70930836806853      -11.29338790966693       14.37181371590736
H            6.75807363760571      -12.14736157152121       15.05753672401280
H            7.70476275263511      -10.83863605972357       14.31610175820283
H            6.51138635442825      -11.71785864792781       13.36080987569275
C            4.19657876265800       -2.42557570762712       14.60275002429025
H            4.10150281661847       -2.08542214396719       13.57162544553344
H            5.15500034078602       -2.08194456779364       14.99076642313957
H            3.39936007762653       -1.98097806036744       15.18963157955578
N            4.99432783771798       -4.72251616013479       14.02049534766881
H            5.77278370505161       -4.41668106641393       13.46053180251935
C            4.10368008644639       -3.90620652374354       14.66694329545576
C            4.62465540460880       -6.00327947642094       14.25262468522432
H            5.15753039790926       -6.85053339096392       13.87061718605847
N            3.55159494556209       -6.04502054390498       15.00181474937515
C            3.22033987686392       -4.75067311647950       15.27685887819062
H            2.37239060386247       -4.51695143430691       15.88817566129408
C            2.47045216042721      -11.12282282994089       17.87071625904657
H            2.46200770775266      -11.43330008762129       18.91379975793572
H            3.44995291228497      -10.71614570154706       17.63757210967816
H            2.29150799804051      -11.99159523524692       17.24267134107073
C            1.39241035555940      -10.07648529405816       17.65216584572110
H            1.59397109509593       -9.19487754133351       18.25614399079192
H            0.41434676162359      -10.48118516721938       17.90366847053715
S            1.31417476492070       -9.57811706518541       15.88093047669946
C           -0.47965209025474       -9.30062338518013       15.76880829702013
H           -0.79763452846229       -8.54679272712286       16.48171329887079
H           -0.97737648231619      -10.24764584495383       15.95223390368725
H           -0.68568344418626       -8.95653571719459       14.76024991036506
87
 energy: -124.683366767091 gnorm: 0.052455480642 xtb: 6.7.1 (edcfbbe)
Fe           2.44298025344808       -7.66351897419849       15.45974655371119
N            2.28094693507651       -8.12060262112291       13.43524603280166
N            4.11850243347022       -8.79044369479731       15.57013966710917
N            2.61796623771262       -7.15810177653519       17.45394196143797
N            0.75011542797136       -6.52210064844385       15.31983754493677
C            1.42993547457037       -7.55094802320687       12.54398229231791
C            1.66906741105982       -8.11577471997376       11.20399247118464
C            2.65945573452469       -9.04071871968592       11.34824809439620
C            3.03051863822904       -9.03062362268738       12.76696188179044
C            4.58182429452862       -9.63855487417501       14.60877800923943
C            5.78982929340804      -10.28130837220994       15.07751528135857
C            6.04084919969453       -9.78220215966671       16.32891362942370
C            4.96819968322357       -8.85262709170308       16.63367216832206
C            3.69286308909146       -7.42165966631509       18.23947071078341
C            3.44785945749598       -6.89462296031899       19.59358815897147
C            2.20410897220036       -6.32227994727667       19.56407479088215
C            1.69662272222075       -6.48747599569212       18.19872987430740
C            0.07209754367713       -5.96826624984014       16.36622165906815
C           -1.08385328901979       -5.25052500494453       15.85090489495688
C           -1.03254456515352       -5.34665397713839       14.48242823846825
C            0.11455019023804       -6.17656902373866       14.16476078196128
C            0.46678552312753       -6.60934858854790       12.88223608547970
H           -0.10297067990573       -6.16976060048669       12.07041536096041
C            4.03234861395256       -9.80023003767873       13.33923794750628
H            4.46183594091976      -10.59271572696023       12.73460999079545
C            4.79800116062251       -8.16425002994985       17.83678816837014
H            5.61644011819780       -8.24778973950535       18.54432182088274
C            0.47542755942020       -6.02593319381180       17.70471907103490
H           -0.23872278518141       -5.64162611483672       18.43123032581817
C            0.85921681004030       -7.67387056033839       10.02597369274867
H            0.97718464425008       -6.59431383487205        9.89083286827714