87
 energy: -124.492045021015 gnorm: 0.254311167824 xtb: 6.7.1 (edcfbbe)
Fe          39.86100000000000       60.38999999999999       17.78200000000000
N           41.21599999999999       61.87799999999999       18.02800000000000
N           38.39700000000000       61.62300000000000       18.09600000000000
N           38.47199999999999       58.81500000000000       17.49500000000000
N           41.43299999999999       59.04199999999999       17.45100000000000
C           42.56700000000000       61.79000000000000       17.81700000000000
C           43.14299999999999       63.09100000000000       18.05200000000000
C           42.14200000000000       63.93700000000000       18.45000000000000
C           40.92000000000000       63.16100000000000       18.45900000000000
C           38.49100000000000       62.91700000000000       18.53900000000000
C           37.13700000000000       63.52699999999999       18.67700000000000
C           36.25700000000000       62.57700000000000       18.30100000000000
C           37.05900000000000       61.38700000000000       17.93700000000000
C           37.11900000000000       58.99200000000000       17.44200000000000
C           36.49900000000000       57.69599999999999       17.23400000000000
C           37.54699999999999       56.76300000000000       17.21100000000000
C           38.76700000000000       57.48800000000000       17.38500000000000
C           41.25500000000000       57.70300000000000       17.33600000000000
C           42.59300000000000       57.11499999999999       17.07000000000000
C           43.49100000000000       58.16100000000000       17.09500000000000
C           42.72200000000000       59.36900000000000       17.30900000000000
C           43.27000000000000       60.66300000000000       17.40200000000000
H           44.31799999999999       60.79100000000000       17.13000000000000
C           39.66199999999999       63.64200000000000       18.78100000000000
H           39.58100000000000       64.62600000000000       19.24200000000000
C           36.44200000000000       60.18699999999999       17.55700000000000
H           35.37400000000000       60.20000000000000       17.34200000000000
C           40.05900000000000       56.95000000000000       17.37600000000000
H           40.14999999999999       55.86399999999999       17.40200000000000
C           44.61199999999999       63.39600000000000       17.89400000000000
H           44.69000000000000       63.06300000000000       16.83700000000000
H           44.97599999999999       62.58100000000000       18.55600000000000
H           45.23600000000000       64.30500000000001       18.03200000000000
C           42.27200000000000       65.41800000000001       18.80500000000000
H           41.81400000000000       65.33400000000000       19.81400000000000
H           41.50400000000000       65.78100000000001       18.08900000000000
H           43.11700000000000       66.13800000000001       18.85200000000000
C           44.98500000000000       58.09600000000000       16.86300000000000
H           45.15700000000000       57.39800000000000       17.71000000000000
H           45.87600000000000       58.75000000000000       16.74800000000000
H           44.82600000000000       57.50500000000000       15.93600000000000
C           42.80300000000000       55.65400000000000       17.09700000000000
H           42.72800000000000       55.13500000000000       16.13700000000000
C           43.81800000000000       55.16400000000000       17.86000000000000
H           44.02100000000000       55.58400000000000       18.85600000000000
H           44.44800000000000       54.34199999999999       17.48999999999999
C           37.44100000000000       55.25500000000000       17.04000000000000
H           37.97600000000000       54.98899999999999       17.97600000000000
H           38.15200000000000       55.19400000000000       16.18900000000000
H           36.60400000000000       54.54100000000000       16.88800000000000
C           35.02100000000000       57.50300000000000       17.23100000000000
H           34.58599999999999       58.45500000000000       16.94000000000000
C           34.36400000000000       56.41900000000000       17.69200000000000
H           34.91399999999999       55.50399999999999       17.95700000000000
H           33.27000000000000       56.43700000000000       17.80900000000000
C           34.73800000000000       62.75000000000000       18.29500000000000
H           34.70600000000000       63.11899999999999       19.34300000000000
H           33.81800000000000       62.16099999999999       18.09200000000000
H           34.78999999999999       63.62100000000000       17.60800000000000
C           36.73499999999999       64.93200000000000       19.13600000000000
H           36.11900000000000       64.59399999999999       19.99700000000000
H           36.07300000000000       65.07899999999999       18.25600000000000
H           37.23200000000000       65.88900000000000       19.40200000000000
C           40.11699999999999       59.84399999999999       12.10700000000000
H           40.92400000000000       60.41400000000000       11.60000000000000
H           39.16600000000000       59.99600000000000       11.55300000000000
H           40.38600000000000       58.76600000000000       12.11200000000000
N           39.64599999999999       61.63900000000000       13.82600000000000
H           39.48700000000000       62.35800000000000       13.15000000000000
C           39.96700000000000       60.33500000000000       13.51700000000000
C           39.58400000000000       61.78100000000000       15.13900000000000
H           39.35300000000000       62.71500000000000       15.65000000000000
N           39.84700000000000       60.61099999999999       15.69700000000000
C           40.09000000000000       59.69200000000000       14.70200000000000
H           40.32900000000000       58.66200000000000       14.93400000000000
C           37.49500000000000       60.52100000000000       21.25700000000000
H           36.64500000000000       60.01900000000000       21.76700000000000
H           37.10400000000000       61.07100000000000       20.37500000000000
H           37.96200000000000       61.23699999999999       21.96700000000000
C           38.52600000000000       59.48399999999999       20.80900000000000
H           38.01799999999999       58.78800000000000       20.11000000000000
H           38.83700000000000       58.91300000000000       21.70800000000000
S           40.02000000000000       60.13300000000000       19.99200000000000
C           41.17400000000000       58.83100000000000       20.48100000000000
H           40.84600000000000       57.83899999999999       20.10400000000000
H           41.24000000000000       58.77300000000000       21.58800000000000
H           42.18399999999999       59.03800000000000       20.06800000000000
87
 energy: -124.600655656195 gnorm: 0.141219588391 xtb: 6.7.1 (edcfbbe)
Fe          39.86163096031058       60.37681588203660       17.78656851436734
N           41.21022180759417       61.88046160749296       18.02584938617771
N           38.39083174182027       61.63256359543422       18.08685178632358
N           38.47741880970333       58.82483297399517       17.50792295212922
N           41.39861682905767       59.05721843390764       17.45594966672200
C           42.55577471139613       61.80182715919374       17.80600381379843
C           43.14665279955290       63.10249521329108       18.05416140748980
C           42.15860232745728       63.93566025747384       18.45297083178185
C           40.93284656492810       63.15669836473285       18.45151190537942
C           38.49429757827344       62.91843030006374       18.53827440863074
C           37.16412255928426       63.51330898579836       18.67711599064904
C           36.27492034294674       62.55517940461789       18.29378985567520
C           37.05901428318767       61.38287314807123       17.93154533264529
C           37.12809423839911       58.98420732055417       17.42540465910857
C           36.49462976993285       57.68838062808896       17.24045010397718
C           37.52141154628604       56.76794209687763       17.21938607181237
C           38.75914036137483       57.49748789896481       17.38125281194166
C           41.24844359219142       57.71400993938612       17.33596316675939
C           42.57824580345999       57.13103110995786       17.11127355230909
C           43.46937969658745       58.18200159443784       17.10043287375758
C           42.69948008182756       59.38141737093405       17.30703740346787
C           43.25007177485079       60.66596207977983       17.40076488935702
H           44.30192494910379       60.78073701396831       17.14671612115021
C           39.66714102755845       63.62964861934882       18.77481703756829
H           39.58084994848404       64.61577363950053       19.22266105488622
C           36.45608457202986       60.18799905503377       17.55222612687627
H           35.38787518214671       60.20471735616782       17.36047084242269
C           40.05866629564821       56.96785047463550       17.37338634254852
H           40.15517339079514       55.88347786715968       17.38727365115511
C           44.61537999216118       63.35316031340767       17.87933701889443
H           44.74395697696460       63.05678380065595       16.83100638824552
H           45.02712286499752       62.58045373474706       18.54023832872124
H           45.16539529469627       64.29349710259784       18.04328840155816
C           42.22364040615363       65.40422935752899       18.81371560750583
H           41.79861753767668       65.38179170858145       19.82429778592956
H           41.49406515435716       65.82425233613134       18.10988683403902
H           43.11175665843450       66.05944495628391       18.83088061388392
C           44.95994300309354       58.04477102209420       16.86183185943739
H           45.20820422731029       57.37135370469331       17.69170554875134
H           45.78734509052724       58.77056856746850       16.76186838987087
H           44.89020093316984       57.47153099910435       15.92850028072364
C           42.87958153396989       55.68893035827374       17.06137358404451
H           42.70661696101515       55.14168131725736       16.13020615513343
C           43.82701366590213       55.16515415333123       17.85672323871328
H           44.03270351732026       55.58586106357240       18.83741988856908
H           44.41703275317500       54.31439468712073       17.52692932039547
C           37.48646780987716       55.26664496325510       17.04614886852503
H           37.98998429847742       54.94301231403673       17.96634927857568
H           38.16358769932370       55.14473166417915       16.19124560819749
H           36.60971364367320       54.61718125479238       16.89175254617320
C           35.03755611027153       57.50518985306994       17.24586205985210
H           34.56428036436006       58.43425385447133       16.94451166215286
C           34.37562401583148       56.43205060797415       17.68475712534561
H           34.90315558724510       55.52474475148129       17.96108435954538
H           33.29178730569074       56.43572238550252       17.79268542834491
C           34.77086943666013       62.78608501605427       18.30612475294927
H           34.65652097159128       63.14443391114354       19.33935759975333
H           33.90590493257247       62.13630207810441       18.08597386719206
H           34.73463449839655       63.64372560137166       17.61896631517320
C           36.70769756957141       64.89562399997268       19.12467525571570
H           36.09475676972092       64.63272516634963       19.99944276521377
H           36.04361363919925       65.12746591301124       18.27946343062220
H           37.26795003390646       65.81136002753775       19.37833603131716
C           40.11720143444467       59.84845399502991       12.10987077733103
H           40.91412214639747       60.40569737546529       11.60043020389956
H           39.18030966082459       59.99057338489263       11.55534617848983
H           40.37913749237616       58.78467059238819       12.11230668849038
N           39.64722064343135       61.63813700768057       13.81109903056847
H           39.48717844978670       62.36224565000338       13.13474101521996
C           39.96577604852131       60.33624098029636       13.51224547584966
C           39.58587982053248       61.77088796871061       15.14203516318068
H           39.35742233726419       62.69597989858232       15.64887486550769
N           39.84571579332280       60.61563501002964       15.71460207134372
C           40.08538387553808       59.70659371798077       14.71464352713789
H           40.32377634961009       58.68125685638326       14.93986090326043
C           37.50171644619647       60.52359991193403       21.25445980149308
H           36.66049299835142       60.02743618654421       21.75741680695456
H           37.11039558775654       61.06831624115909       20.38957245097271
H           37.95626293476185       61.23291072402615       21.95594362069967
C           38.51259659630011       59.46943884955905       20.81528362449543
H           38.02494422607860       58.78364423868000       20.11110246680028
H           38.84042002253315       58.90992088072112       21.70050847832033
S           40.02012785665927       60.14201017727123       20.02303355990541
C           41.17319010976389       58.82021045239451       20.48646851099579
H           40.84522033956618       57.84737040303190       20.10263672468053
H           41.24101257204351       58.77573074195779       21.57984390244981
H           42.16325145445652       59.04391681921495       20.07169539201967
87
 energy: -124.661509784052 gnorm: 0.063069970213 xtb: 6.7.1 (edcfbbe)
Fe          39.86558742689486       60.36201378179734       17.77621284039202
N           41.20453646273361       61.88186442229258       18.02008964387012
N           38.38247449581808       61.64318566570053       18.08047308273306
N           38.48649378399919       58.83630731592199       17.51444708471810
N           41.36830134192009       59.07078890782938       17.46023886046619
C           42.54424766262602       61.81040734125856       17.79505992350144
C           43.15256414987242       63.11099300080009       18.05192127284818
C           42.16876032922536       63.93731771649835       18.45607701671718
C           40.94086229298428       63.14953306107384       18.44319811337630
C           38.48965247227114       62.92540916406362       18.53621588202077
C           37.17943450615998       63.50878642514948       18.67895387196223
C           36.28118710917479       62.54482622568103       18.28676375045613
C           37.05299261996587       61.38674223390068       17.92653339767232
C           37.14014196693447       58.97941883973999       17.41732962664934
C           36.49924805335543       57.68110381143974       17.24573420259548
C           37.51252560888247       56.76697388739505       17.22696976694397
C           38.75922138266446       57.50824093188341       17.38122080863550
C           41.24530430769497       57.72062293023407       17.34279341527747
C           42.56150800276122       57.14139952812253       17.14756605806437
C           43.45263296769809       58.19437670166561       17.10297823979666
C           42.68254614882765       59.38931797754676       17.30598486985973
C           43.23057004066787       60.66773652014585       17.40136528757796
H           44.28519433923023       60.76948753319533       17.16714538817718
C           39.67197897591672       63.61806949304942       18.76520339619463
H           39.58291407496774       64.60699033898857       19.19907203781358
C           36.46989262133660       60.18704908497893       17.55068076925959
H           35.40078153997547       60.20326456590889       17.38164034994184
C           40.05837218466031       56.98458170721577       17.37504718224753
H           40.15865576573888       55.90272873361218       17.36795921332043
C           44.61838044014239       63.31140078061417       17.86485631859913
H           44.79938483102146       63.04845045854906       16.82403894415241
H           45.07950955262155       62.57736578877829       18.52383717135279
H           45.08429776683563       64.28850339256124       18.05703629669318
C           42.17709122050483       65.38897449790596       18.82288095223139
H           41.78003554165687       65.42712671793888       19.83551208856766
H           41.48138732550981       65.86297461497307       18.13064905257133
H           43.11364389430696       65.97014743425184       18.80758522856538
C           44.92949817796772       57.99585411677610       16.86152171208537
H           45.24964626755570       57.34701822222507       17.67527535783914
H           45.67964279623055       58.80539131028857       16.77970496498128
H           44.94420484452663       57.44021323075097       15.92267934200289
C           42.94174854633885       55.72313207790413       17.03403152289276
H           42.69137303396637       55.17226643767913       16.12330411113093
C           43.82889723517172       55.16748774199907       17.85297936275315
H           44.05655872332693       55.59888135200215       18.81485077348362
H           44.37383218755188       54.27942554712981       17.56437992933168
C           37.53259612467373       55.27864334464066       17.05377289853285
H           38.00780445646077       54.89862378869971       17.95850154649477
H           38.17898923661412       55.10240646124506       16.19449832205545
H           36.60710676803730       54.70537119245679       16.89610861819205
C           35.05858284656563       57.51102494967427       17.25413529132861
H           34.53961449305341       58.41665950011443       16.95271733589078
C           34.38747211641547       56.44380297555487       17.67713738616974
H           34.89484154411316       55.54073295829268       17.97208741681836
H           33.31059611344040       56.43553966580640       17.76991528901301
C           34.80117006433015       62.82053165484979       18.31533154099407
H           34.61543758652510       63.16570470710922       19.33547028385870
H           34.00682522518801       62.09321374548200       18.07430430984788
H           34.68593848346246       63.66371893371964       17.62793813567976
C           36.68367214472976       64.86222496212972       19.11604677406771
H           36.07465164049805       64.66490010307744       20.00263523830386
H           36.02228604297728       65.16752589625573       18.29993267229388
H           37.32595372689575       65.72543439536666       19.35284167762699
C           40.11751025167433       59.85049224844784       12.11475307051429
H           40.90738909677383       60.40099713659555       11.60321334391823
H           39.18951911720961       59.98728034305008       11.55893243701585
H           40.37456394226052       58.79550589742036       12.11504107978670
N           39.64808188976104       61.63940291341785       13.80006732077994
H           39.48741360835236       62.36732180955221       13.12484476368884
C           39.96478076390643       60.33718487404526       13.51156387287288
C           39.58649527643421       61.76501340686045       15.14341596486923
H           39.36016203754997       62.68320916988328       15.64803832117480
N           39.84162723015550       60.62222260846912       15.72580279890741
C           40.08067311669782       59.72012260780848       14.72625115611186
H           40.31859352426930       58.69710306525826       14.94322771155253
C           37.50477074574582       60.52255190743908       21.25369962185996
H           36.66749806840537       60.03416831795917       21.75302761382084
H           37.11990499875103       61.06499514807251       20.39701801910699
H           37.95853488522810       61.22707728582543       21.94576611301902
C           38.50131549328352       59.45724281292198       20.82320006539203
H           38.03231910903507       58.78110567460791       20.11095924992500
H           38.84062376275973       58.90393438142005       21.69736051987889
S           40.01887550608940       60.14893983752528       20.04391510007031
C           41.17321270632115       58.81153820428737       20.49402810987652
H           40.83953583039099       57.85659853330547       20.10013536034423
H           41.24281350672779       58.77459886594936       21.57776248697688
H           42.14553189804219       59.05218214598535       20.07260267904481
87
 energy: -124.687818617126 gnorm: 0.044612927858 xtb: 6.7.1 (edcfbbe)
Fe          39.86632024857782       60.35207140567819       17.76807321999374
N           41.19662001537585       61.87683102469872       18.00464819146027
N           38.37642833988204       61.65111963496051       18.06896240453671
N           38.49789968844882       58.84817404015171       17.51512633380896
N           41.35164014996856       59.07760112244374       17.46126981747288
C           42.53256011288000       61.80846090127836       17.78106145184612
C           43.15179149166603       63.10403886260139       18.04313029539123
C           42.16331373202337       63.92984577281288       18.45567703066000
C           40.93713835965733       63.13831093963825       18.43112168218358
C           38.48380362880772       62.93158741828978       18.52798561838234
C           37.17864535847801       63.51056734940018       18.67755531228403
C           36.27890270565712       62.54946265865411       18.28103955857053
C           37.04712196011292       61.39431514595913       17.91842242029039
C           37.15275007159918       58.98331164656987       17.41625796874273
C           36.51324019066951       57.68143639701568       17.25391693040862
C           37.52990017944573       56.76792442345724       17.23623426674396
C           38.76964242784853       57.52105453282410       17.38510138473299
C           41.24306359462967       57.72408351460244       17.35094805538697
C           42.55080754438433       57.14561726865185       17.16710861942510
C           43.44135281168420       58.19363649954764       17.10954099866276
C           42.67127451507061       59.39018227394923       17.30513937536282
C           43.21614821171682       60.66561376755985       17.39957030783347
H           44.27477162871875       60.75749645818387       17.19162938045877
C           39.67375768186140       63.61153768099521       18.75069229200068
H           39.58777196287723       64.60534524856418       19.16969579054232
C           36.47843307048510       60.18567007485226       17.55025149836886
H           35.40654426329974       60.19378425731450       17.40706479930254
C           40.05869262387891       56.99437091296009       17.37558457040136
H           40.16020830586084       55.91530803558936       17.34352104430752
C           44.61583688964869       63.28864179297462       17.85610293107362
H           44.85330997720184       63.04487601914482       16.81892377923829
H           45.12761500907992       62.57861133151332       18.50809758189050
H           45.00812081522097       64.29244017389128       18.07071920693906
C           42.15049071051234       65.37218679078808       18.82841675484434
H           41.76530601801385       65.46518478145971       19.84479004376400
H           41.47172746054040       65.89526484461004       18.15124279882676
H           43.12241003905228       65.88674779458046       18.78850316097691
C           44.90300287458811       57.97610848738768       16.86313817687139
H           45.28670817576209       57.33615517039345       17.65986562216010
H           45.57657707459541       58.85000201408872       16.79460265403741
H           44.98770795269653       57.42136678917027       15.92338623078458
C           42.96793137536345       55.74695610167402       17.01780146764511
H           42.68146351435937       55.21390693466076       16.11365091863336
C           43.82306619828072       55.16651943077822       17.84951863983292
H           44.08822185207634       55.61978907307110       18.79265940577225
H           44.31132762093157       54.22613679782328       17.60526923330726
C           37.56484273187246       55.28917173078096       17.06001061586203
H           38.02419177209775       54.85467718374579       17.95107011404683
H           38.19691361465372       55.06490413482317       16.19928329855175
H           36.59905495451790       54.78881284391106       16.89931376525037
C           35.07583906094632       57.51656059175723       17.26048772737899
H           34.52496649183740       58.40293922788540       16.95810204900439
C           34.39901857051392       56.44922303238756       17.67398388227842
H           34.89550361938015       55.54906122084157       17.99370772608934
H           33.32187712621907       56.43560493197280       17.73461041336461
C           34.81597199709359       62.83301824903145       18.31531843084951
H           34.57234962340866       63.17505260361070       19.32630665877702
H           34.09738564550206       62.03585433657459       18.05676153108785
H           34.63466005214393       63.67273658092635       17.63377600954076
C           36.68077673575625       64.84682224468143       19.11396286135508
H           36.06711987394755       64.70047028613229       20.00852436612114
H           36.01464648700775       65.21238463580073       18.32303594638142
H           37.40246221764923       65.65002908908365       19.33473577083516
C           40.11737430345638       59.85137563330960       12.12222292185436
H           40.90596104152741       60.39969861503923       11.60734392201219
H           39.19165931449849       59.98556188714456       11.56293469432435
H           40.37263455531647       58.79704203868648       12.12263816859724
N           39.64789819721823       61.64414604661397       13.79811741120086
H           39.48826037170147       62.37203038185723       13.12161265117039
C           39.96329872027388       60.33997735593812       13.51735715046110
C           39.58442949360661       61.76929750927471       15.14469401604085
H           39.35874723448243       62.68522269844972       15.64933340798790
N           39.83691660270841       60.63080607959784       15.73318950828687
C           40.07562067679053       59.72939663793337       14.73605713108655
H           40.31281457270028       58.70701330847984       14.94935546850115
C           37.50780558195179       60.51791746975009       21.25434851776269
H           36.66620284908183       60.04058963667771       21.75379144940079
H           37.13112107511409       61.06244103004304       20.39598501597396
H           37.96825821777190       61.22255871741059       21.94102262615899
C           38.49528215493668       59.44532758648919       20.82994851008205
H           38.03842768398800       58.77328905541471       20.10737081146953
H           38.83847114578994       58.89010838098954       21.69989305017987
S           40.01515358023726       60.15513998955430       20.06195275638515
C           41.17004065515750       58.80952802555857       20.50199863456660
H           40.82864360684718       57.86348475043354       20.09610816618501
H           41.24618811744361       58.76846925890507       21.58371593937799
H           42.13284123936152       59.06360138528799       20.07099767799852
87
 energy: -124.698957322879 gnorm: 0.037499942229 xtb: 6.7.1 (edcfbbe)
Fe          39.86296445614044       60.35063145814944       17.76086368618355
N           41.18652732747734       61.86661596161088       17.98512772719170
N           38.36903587792684       61.65787022165829       18.05488954418343
N           38.51120457032203       58.86132680984765       17.51941651704353
N           41.34518850315875       59.07913445051858       17.46406114272955
C           42.52128696066736       61.80142409327389       17.76584947623983
C           43.14517589342885       63.09048509011964       18.03088915968527
C           42.15149009083029       63.91587910640378       18.44872210024058
C           40.92792200568054       63.12627010392794       18.41179841854187
C           38.47760892387964       62.93763803954942       18.51239429735332
C           37.17205858706685       63.51486550819356       18.67033137587146
C           36.27292250635833       62.55869919664875       18.27365838732443
C           37.04014636929202       61.40100162229187       17.90997959385721
C           37.16534645580312       58.98923926846163       17.42375115427282
C           36.53195439522279       57.68391447680400       17.26848941085729
C           37.55550076178670       56.77336830568640       17.24952559877063
C           38.78331043011220       57.53532648131893       17.39033321827564
C           41.24288716501916       57.72535179224286       17.35699832582384
C           42.54761013624831       57.14484791946801       17.18050093193163
C           43.43630676189304       58.18800208862557       17.11761551978927
C           42.66551987070035       59.38690195076171       17.30795877483693
C           43.20840299626255       60.65984408709719       17.39967867859643
H           44.27099879123109       60.74601856274275       17.21865184261527
C           39.67123632361303       63.61043385467843       18.72674262759230
H           39.59344801823898       64.61004528639472       19.13078415727409
C           36.48171911709324       60.18361637824939       17.55619357372356
H           35.40723341575672       60.17755393161313       17.43779674183430
C           40.06154419247142       56.99902103906738       17.37195039750266
H           40.16101704383437       55.92244169462528       17.31546331270542
C           44.60869404977267       63.28422473580461       17.85229148598921
H           44.88892743214276       63.05565610271637       16.81941341155536