78
 energy: -115.992460507465 gnorm: 0.231296355041 xtb: 6.7.1 (edcfbbe)
Fe          28.28100000000000       91.07699999999998       52.26900000000000
N           29.25100000000000       92.73200000000000       51.68700000000000
N           29.45600000000000       90.98699999999998       53.92299999999999
N           27.26900000000000       89.46700000000000       52.87700000000000
N           27.13000000000000       91.17800000000000       50.64400000000000
C           29.00400000000000       93.47300000000000       50.53599999999999
C           29.84600000000000       94.63100000000000       50.54900000000000
C           30.62700000000000       94.61999999999999       51.67800000000000
C           30.24500000000000       93.41000000000000       52.36700000000000
C           30.46400000000000       91.87600000000000       54.30500000000000
C           31.06900000000000       91.43899999999999       55.51700000000000
C           30.47100000000000       90.28500000000000       55.89000000000000
C           29.43200000000000       90.01299999999999       54.89700000000000
C           27.45700000000000       88.73600000000000       54.04799999999999
C           26.43000000000000       87.76200000000000       54.21699999999999
C           25.59700000000000       87.84899999999999       53.14200000000000
C           26.11700000000000       88.89400000000001       52.31000000000000
C           26.10900000000000       90.31699999999999       50.27800000000000
C           25.66800000000000       90.59999999999999       48.93300000000000
C           26.40100000000000       91.65100000000000       48.49600000000000
C           27.25400000000000       92.04999999999998       49.57500000000000
C           28.11600000000000       93.14599999999999       49.53900000000000
H           28.08300000000000       93.78800000000000       48.65900000000000
C           30.79000000000000       93.01300000000001       53.58400000000000
H           31.55200000000000       93.66300000000000       54.01400000000000
C           28.51300000000000       88.98600000000000       54.94700000000000
H           28.61500000000000       88.28699999999999       55.77700000000000
C           25.61600000000000       89.28200000000000       51.09100000000000
H           24.75100000000000       88.73300000000000       50.71800000000000
C           31.67200000000000       95.62199999999999       52.11400000000000
H           31.74500000000000       96.43399999999998       51.35900000000000
H           32.66000000000000       95.12099999999998       52.20000000000000
H           31.38400000000000       96.06299999999999       53.09199999999999
C           29.88700000000000       95.61899999999999       49.42000000000000
H           28.85800000000000       95.78600000000000       49.03600000000000
H           30.51900000000000       95.22199999999999       48.59700000000000
H           30.29799999999999       96.58600000000000       49.78200000000000
C           32.14600000000000       92.24200000000000       56.22100000000000
H           31.89400000000000       93.32299999999999       56.17300000000000
H           33.12400000000000       92.07799999999999       55.72000000000000
H           32.20800000000000       91.93300000000001       57.28600000000000
C           30.72200000000000       89.46400000000000       57.03500000000000
H           29.87900000000000       88.90300000000001       57.46299999999999
C           31.97100000000000       89.29900000000001       57.68299999999999
H           32.86400000000000       89.82599999999998       57.31600000000000
H           32.06200000000000       88.64200000000000       58.56099999999999
C           26.34400000000000       86.90699999999998       55.46700000000000
H           26.40200000000000       87.55700000000000       56.36599999999999
H           27.19000000000000       86.18699999999998       55.48799999999999
H           25.37800000000000       86.35800000000000       55.48100000000000
C           24.32900000000000       87.20900000000000       52.88900000000000
H           23.49200000000000       87.80100000000000       52.48900000000000
C           24.10400000000000       85.85400000000000       53.12900000000000
H           24.90700000000000       85.21699999999998       53.52799999999999
H           23.12100000000000       85.40599999999999       52.92200000000000
C           24.62900000000000       89.75400000000000       48.20800000000000
H           23.67600000000000       89.76700000000000       48.77900000000000
H           24.98699999999999       88.70500000000000       48.12900000000000
H           24.44700000000000       90.16999999999999       47.19400000000000
C           26.34000000000000       92.37100000000000       47.16400000000000
H           25.75500000000000       93.30900000000000       47.27600000000000
H           25.84300000000000       91.72400000000000       46.41000000000000
H           27.36799999999999       92.62600000000000       46.82800000000000
O           27.12400000000000       92.24700000000000       53.23500000000000
H           27.44700000000000       93.13300000000000       53.07000000000000
H           26.42500000000000       92.02700000000000       53.73900000000000
C           30.69300000000000       87.31299999999999       48.79699999999999
H           30.96000000000000       86.33499999999999       49.25099999999999
H           31.54200000000000       87.66299999999998       48.17199999999999
H           29.78700000000000       87.18300000000001       48.16800000000000
N           31.37600000000000       88.66800000000001       50.83599999999999
H           32.29800000000000       88.28499999999998       50.89200000000000
C           30.41600000000000       88.31699999999998       49.89000000000000
C           30.84200000000000       89.59999999999999       51.64300000000000
H           31.37000000000000       90.06699999999999       52.47400000000000
N           29.59100000000000       89.84200000000000       51.25699999999999
C           29.31100000000000       89.06399999999999       50.15700000000000
H           28.34800000000000       89.11400000000000       49.66500000000000
78
 energy: -116.033220956487 gnorm: 0.086623289143 xtb: 6.7.1 (edcfbbe)
Fe          28.30554557967223       91.05084223801246       52.25259309116032
N           29.25418245552024       92.73298300086360       51.69116953977126
N           29.45716479373541       90.98539448444619       53.92656265596527
N           27.25911301208592       89.46710432551444       52.88997942764971
N           27.12220669925960       91.17942467131581       50.64342911227020
C           29.01356252191376       93.46655125278512       50.55064114607656
C           29.85465660886191       94.63150634985784       50.53919094639780
C           30.62157263072877       94.61064272182716       51.66906727168425
C           30.23169932704685       93.40999656576086       52.37240954635358
C           30.44872726541782       91.87190404716259       54.29662300054262
C           31.07275267768492       91.44540943534629       55.51335552987828
C           30.47368339720878       90.27710760872814       55.89360335695245
C           29.43168526847336       90.01973139651319       54.89457663671892
C           27.46529690597192       88.75287667359306       54.04687041127359
C           26.44063425953603       87.76652492028394       54.22683704790567
C           25.59388899954267       87.86023077996775       53.15214489867056
C           26.12537147028123       88.91499488442982       52.31949281403032
C           26.12332946175564       90.31113193249872       50.28053228025784
C           25.66777067435808       90.59174607762282       48.93816197344906
C           26.39349815350203       91.65631407118336       48.49995188102874
C           27.26658696834052       92.03566097890845       49.58029822629996
C           28.12137518019533       93.12991639378798       49.55122671853724
H           28.08189566341480       93.77142380644973       48.67719955648615
C           30.78012324286689       93.01074993276669       53.58172562987971
H           31.54741764247160       93.65212516669752       54.00300322986920
C           28.51612288922007       88.98740194692745       54.94032703522377
H           28.60811608666266       88.29405889869435       55.76983934615158
C           25.62531243688289       89.29208609606758       51.08961357712382
H           24.76752327541092       88.74058815329802       50.71588489374285
C           31.65690505230332       95.60559057586019       52.10834818137048
H           31.74433495247639       96.41459094656311       51.37567132566089
H           32.63896940867264       95.12832335272191       52.20354565661100
H           31.39102645617105       96.04907523261839       53.07543779467468
C           29.88464804946356       95.62315416597023       49.42194513138610
H           28.87538517474626       95.79574602059512       49.03540811758713
H           30.50790059702168       95.24119207467108       48.60467890611397
H           30.29395393597530       96.57784621810927       49.76405677902763
C           32.13802793000563       92.23694112109840       56.21609030370126
H           31.90148845729012       93.30551354976544       56.17459811335827
H           33.11095028450091       92.08249979760514       55.73461023158281
H           32.20823210005853       91.93815420298257       57.26613480312052
C           30.74248965522716       89.45771537767286       57.04611789687576
H           29.90301996657145       88.89830727000950       57.45602194489384
C           31.93687428445743       89.30997719143579       57.66651768410720
H           32.83124793286844       89.80561088593829       57.30917600154589
H           32.04184920668895       88.66403778529831       58.53106986590902
C           26.34284970008738       86.91115161217965       55.45714370611442
H           26.40207330664526       87.54153183363039       56.35177859317193
H           27.17035698347774       86.19324842890386       55.48913959055650
H           25.39453634177969       86.36620909367660       55.47912781741309
C           24.33719652142189       87.18418523420438       52.89563847106921
H           23.51907670699802       87.77906387564701       52.48857278787661
C           24.11062312540025       85.87926845363356       53.13116178299100
H           24.89385764274019       85.23504206524089       53.51074164298613
H           23.14547897500714       85.42760766473849       52.92921438546198
C           24.63738911315634       89.76532473948225       48.21647384541060
H           23.69121304541872       89.76691855258024       48.76880725261074
H           24.97858097496252       88.72731608262784       48.12804411961050
H           24.45067776964341       90.16176579263302       47.21396319692404
C           26.33626555069812       92.36503356358581       47.17632518914226
H           25.76393272523603       93.29588777135926       47.27013045817446
H           25.85245496474562       91.73790004325188       46.42176003175137
H           27.34438633570196       92.61659368894441       46.83011927199355
O           27.11717533374577       92.26324024027835       53.22912951149335
H           27.42374359333906       93.16221451871196       53.09125708100385
H           26.37987846049742       92.04242631029418       53.77193866641510
C           30.69768521397701       87.31362187644345       48.80429469874807
H           30.95988642944450       86.34321081648116       49.23941829338933
H           31.52866186853991       87.65085802185835       48.17550893966173
H           29.80754149698961       87.18947808883628       48.18310856300052
N           31.37525702923981       88.65978445273946       50.82058537695055
H           32.30178534892942       88.27591260323634       50.88220499514706
C           30.42689881318971       88.31168557497715       49.88178847990606
C           30.83331869927773       89.59272848145257       51.62820402305943
H           31.35084049233165       90.05476167735407       52.45214817880026
N           29.59912707060210       89.84846679116330       51.25444776248489
C           29.32787174776998       89.06392614932190       50.16755252243333
H           28.37025962648430       89.11093132030499       49.68253124537017
78
 energy: -116.043744775305 gnorm: 0.032242262827 xtb: 6.7.1 (edcfbbe)
Fe          28.31681177400099       91.04323848823613       52.24805352737246
N           29.26628436003378       92.72856353504154       51.68405224202207
N           29.46475813150430       90.97867901034249       53.92179888866892
N           27.26075718690704       89.46680077001699       52.89563299697431
N           27.13734264519982       91.16321835027456       50.63096843703985
C           29.02767848701862       93.45394657584384       50.55486389444724
C           29.86282091521137       94.62975193736141       50.52700248964602
C           30.61741784097146       94.60251778337910       51.66054788510791
C           30.22867377145483       93.40428074747778       52.37057216120685
C           30.43747305557301       91.86429244562557       54.28420009827472
C           31.07226045500903       91.44921234293570       55.50721017696931
C           30.46974923895313       90.27542330920755       55.88792069014395
C           29.43602957375504       90.02203777916350       54.88525987102678
C           27.47546087068682       88.77006527497041       54.04435720143928
C           26.45130575445851       87.77452342012704       54.23408125008400
C           25.59900478682396       87.87876167684421       53.16300709920431
C           26.14073843953806       88.93636471414668       52.32952703680168
C           26.14360270400473       90.30183234454084       50.28140254402637
C           25.67246781366451       90.58405479627733       48.94219634573804
C           26.39024365889149       91.65654168732931       48.50310879355406
C           27.28182432562836       92.01842224173856       49.58314038218484
C           28.12966910136277       93.11157762014177       49.55823996413010
H           28.08426394866800       93.75302505545395       48.69004967300564
C           30.77730445346310       93.00559038330269       53.57618030318186
H           31.54622485538472       93.64030464649949       53.99388757928465
C           28.52052686958793       88.98803362266770       54.93486431433109
H           28.60078304894736       88.30123411517661       55.76610657389620
C           25.63765675180441       89.29944261991683       51.09171649848459
H           24.78756864028776       88.74317682093802       50.71910038045823
C           31.64525286688493       95.58905283456001       52.10678351598787
H           31.73675939417121       96.39569000198226       51.38418253411472
H           32.62166508018867       95.11725223982715       52.20712131075851
H           31.38334669282705       96.02556525054356       53.07025288722316
C           29.88346365876218       95.62732651403896       49.41957970424313
H           28.88220661627737       95.80385424558378       49.03722658408780
H           30.50067419248617       95.25840546241206       48.60049251255420
H           30.29364706278040       96.57415108339463       49.75624655053749
C           32.12939380389492       92.23162365297758       56.21034740812510
H           31.90290731309439       93.29497943543316       56.17062543005500
H           33.10254572100379       92.07928276901146       55.74322808689707
H           32.19750510085751       91.93504860059667       57.25261262263580
C           30.74604640259237       89.45252021749562       57.04443132458455
H           29.90182886844464       88.89750636221166       57.43740093699659
C           31.91473132436569       89.30836663141869       57.64359635809260
H           32.81133797736359       89.79111004166737       57.29873697892513
H           32.02634942285148       88.68404694505379       58.51380683044891
C           26.34298314787492       86.91537282036138       55.44805423003897
H           26.40408844211742       87.53113134937198       56.34460229936564
H           27.15675839077989       86.19210922610269       55.48321263328485
H           25.39999784932914       86.37851359367723       55.46419339404444
C           24.35384215706926       87.17589899179977       52.90026726692255
H           23.55415513034400       87.77908816809895       52.48259992899021
C           24.12619884618969       85.89405708256456       53.12932955294460
H           24.89141662240153       85.23990285821485       53.50682011415517
H           23.16785167544922       85.44250328889014       52.93635575930205
C           24.64345810666703       89.77603867115502       48.22562798717579
H           23.70120411540352       89.77539160477293       48.77051964986720
H           24.97474919434935       88.74224992261362       48.13088193453925
H           24.45975500561111       90.16903877018862       47.23023438265344
C           26.33015516901083       92.35924627862396       47.18768708237169
H           25.76651893290598       93.28839360785744       47.27374187608727
H           25.84940921750927       91.73940831665209       46.43669403414177
H           27.33031608968573       92.60403123539740       46.83732878205777
O           27.07383809374639       92.29152451576088       53.23143821976313
H           27.36217735904487       93.20671049895728       53.14920478183588
H           26.33874313819532       92.07796483936998       53.80962944829516
C           30.69952664680078       87.31507682318590       48.80932825625708
H           30.96058261719904       86.34863420157730       49.23563871171631
H           31.52227664773324       87.64293129927566       48.17674233415783
H           29.81555619305173       87.19531961836606       48.19391237695041
N           31.37677593406974       88.65677926900932       50.80892307614704
H           32.30604601799075       88.27356094477454       50.87291828909783
C           30.43395206447777       88.31061104932968       49.87765762920602
C           30.82890423662762       89.58911726432511       51.61991846003153
H           31.34219331591117       90.04669493334067       52.43852071102756
N           29.59764014324633       89.84924263999450       51.26484731333757
C           29.33755097919006       89.06594914033936       50.17904363055406
H           28.38401356237604       89.10481077286460       49.69640497870674
78
 energy: -116.047592735899 gnorm: 0.028452375741 xtb: 6.7.1 (edcfbbe)
Fe          28.31835089949608       91.04681624954094       52.24805350621266
N           29.27342969752858       92.72334529396187       51.67503194434497
N           29.46179026299158       90.98003316174483       53.91737216563381
N           27.26540045341854       89.47392505626755       52.90042076126360
N           27.15132458440941       91.15272044373519       50.62485189526868
C           29.03991899827107       93.44167372581956       50.54788406204176
C           29.86964955742097       94.62462455691723       50.51543293914926
C           30.61750766713503       94.59555090829947       51.65204859641681
C           30.23067767619347       93.39813731462013       52.36409871636158
C           30.43198713139273       91.86123796777879       54.27369239339637
C           31.07028552102613       91.45048758372931       55.49918338255150
C           30.46486421801609       90.27697873159686       55.87712254850260
C           29.43727795025422       90.02420521254734       54.87736220524567
C           27.48281791614213       88.78059976717937       54.04543512886052
C           26.45904203568521       87.78135431377615       54.23763172980233
C           25.60889382759587       87.89102679263527       53.16807033430305
C           26.15404335651563       88.94797700182340       52.33464044974189
C           26.16012203713293       90.29284191722407       50.28125277566445
C           25.67855325957730       90.57930647466068       48.94556026865754
C           26.39213837927227       91.65218204061608       48.50526935508405
C           27.29589220640995       92.00516964447344       49.58132886823907
C           28.14207196448473       93.09606797109677       49.55274685268504
H           28.09252597946864       93.73783292403469       48.68724254378565
C           30.77949963187000       93.00196048328242       53.56850668004105
H           31.55121938297399       93.63132290798610       53.98478671449989
C           28.52394280464515       88.98908985001712       54.93492019363496
H           28.59902101051379       88.30563828103229       55.76718862332965
C           25.64974706983854       89.29810503278541       51.09268939961753
H           24.80362689621257       88.73832298301966       50.72229163125970
C           31.64099940417512       95.57664790067429       52.10904825977866
H           31.73654768436842       96.38670339169941       51.39243519592706
H           32.61450944298177       95.10133452137160       52.21304742216996
H           31.37326050949733       96.00355943364396       53.07425987433232
C           29.88301161456964       95.62994076058114       49.41530495211517
H           28.88029215010628       95.81173139887900       49.04049101369363
H           30.49436961412189       95.27159030232974       48.58729667976275
H           30.29636998222699       96.57417286142693       49.75514218069461
C           32.12351152874523       92.22870860286173       56.20606886710847
H           31.90322227413559       93.29295260785383       56.16516776419414
H           33.10028662203517       92.07273471265644       55.74810375310368
H           32.18276851154819       91.93053860727689       57.24791691407618
C           30.73423447948738       89.45173211330355       57.03529924939966
H           29.88442189098129       88.89976280774043       57.41865768644316
C           31.90577488269822       89.31201588894240       57.63838804477226
H           32.80790971264565       89.77491686489290       57.28113247102930
H           32.02138877250962       88.68397812126217       58.50454207032067
C           26.34354178312426       86.91666390352124       55.44311222499070
H           26.40838511693346       87.52187440364462       56.34626406916400
H           27.14829355110014       86.18338633637229       55.47469133443354
H           25.39546868619014       86.38973429956913       55.44919207474382
C           24.37066429756841       87.18105288957723       52.90001516039453
H           23.58206039153652       87.78825496263832       52.46951969787783
C           24.13886883220744       85.89941652161539       53.13640499165604
H           24.89944994136949       85.23785809049899       53.51014026882740
H           23.18392792122093       85.44751774395476       52.93230756479041
C           24.64321771372274       89.78277493996234       48.23305384566862
H           23.70216985988846       89.78730965227039       48.77878955119627
H           24.96586411608219       88.74686745936322       48.13387998378390
H           24.46223939931320       90.18056456506427       47.23979510767906
C           26.32436912352068       92.35471039918157       47.19391279093890
H           25.76645786709715       93.28657385803356       47.28130080728700
H           25.83599674681160       91.73676658685730       46.44697547953991
H           27.32314682777900       92.59315452818863       46.83689041182043
O           27.01314488816038       92.32146801498806       53.22444578685583
H           27.30538071441430       93.24597579295738       53.22319096784231
H           26.30774904543880       92.11078080901999       53.85183939764951
C           30.69911170769081       87.31667450982951       48.81101491701121
H           30.96095116827020       86.35029499643716       49.23632546729844
H           31.51969689430205       87.63994102863641       48.17333319253126
H           29.81300509984863       87.19817301158263       48.19946375259856
N           31.38369135552983       88.66013013352834       50.80374819109178
H           32.31419491577976       88.27894567262624       50.86564117902685
C           30.43845655048860       88.31262214685675       49.87818896191038
C           30.83431884199738       89.58841921710588       51.62017707413589
H           31.34883780320174       90.04327419913596       52.43769268846155
N           29.60008737720305       89.84927876471757       51.27395387390353
C           29.34075760842740       89.06368700021410       50.18963869550118
H           28.38699240105504       89.09229807245168       49.70868142487175
78
 energy: -116.050313803116 gnorm: 0.042970597470 xtb: 6.7.1 (edcfbbe)
Fe          28.31903042459036       91.05040964256625       52.24731417715801
N           29.27747678500143       92.71604200941792       51.66468274928219
N           29.45011144792279       90.98776705062684       53.91428870947760
N           27.27198311802178       89.48437524753093       52.90537530782711
N           27.17134623040336       91.13843427828144       50.61764734979493
C           29.05118358409919       93.42816422395087       50.53639254272904
C           29.87797617280901       94.61625538059656       50.50175372001129
C           30.61924963806996       94.58816752828031       51.64180231251439
C           30.23299652604384       93.39147787043497       52.35534784053161
C           30.42590126406889       91.86201900566545       54.26403518686166
C           31.06995333809986       91.45142748744713       55.48822089087161
C           30.46156057411059       90.27966395871088       55.86323523118847
C           29.43344511700393       90.03076619572104       54.87337664476851
C           27.48809081661735       88.79089044866275       54.05004926205187
C           26.46659855414537       87.78645306485602       54.23925372403656
C           25.62148430137377       87.89936021742065       53.16926860680019
C           26.16624686141990       88.95840909506747       52.33885333514813
C           26.17645565207502       90.28280048313079       50.28082484360370
C           25.68659959403804       90.57317675673013       48.94818835648521
C           26.39723958417455       91.64397806868500       48.50603946424672
C           27.31118746182027       91.99136717354062       49.57690654219065
C           28.15715116833082       93.08007405673015       49.54045107491767
H           28.10790639009454       93.71943478170429       48.67404122148611
C           30.78331030474052       92.99995167142512       53.55910149689083
H           31.56075429929608       93.62203807717559       53.97320560523762
C           28.52445402376688       88.99245030018392       54.94098849137546
H           28.59991298740187       88.30826579240959       55.77057350900052
C           25.66115541097195       89.29357231382853       51.09346589560018
H           24.82000371033810       88.72809754504935       50.72487634999774
C           31.63958265595133       95.56406857982361       52.11396580310809
H           31.74203103210969       96.38155827611661       51.40562023660814
H           32.61082715167163       95.08250637688529       52.22173237562384
H           31.36192967741612       95.97873171711724       53.08289610022686
C           29.88291876760479       95.63055886525989       49.40975266080778
H           28.87441354129167       95.82081214616916       49.04918068014018
H           30.48354281443495       95.28286164748720       48.56733886119147
H           30.30325042767611       96.57163991306604       49.75685688684892
C           32.12007716471546       92.22586107563346       56.20106143730850
H           31.90657870683318       93.29276868102906       56.15678736503253
H           33.10235660681691       92.06251777520509       55.75423367459769
H           32.16428974327059       91.92539165768216       57.24493385897256
C           30.72223268674949       89.44703383364643       57.01735580317978
H           29.86550036465398       88.90984383748491       57.40434920407885
C           31.90051633214054       89.29555114357723       57.61563764582910
H           32.79763490138275       89.76976947394458       57.26345125152849
H           32.00871145393213       88.68554390258164       58.49731318633953
C           26.34375192510043       86.91527543314915       55.43793181405596
H           26.41762567104169       87.50872619875962       56.34969668772643
H           27.13694439162998       86.16678724037054       55.46107413384805
H           25.38509492669888       86.40388704661710       55.43438321641977
C           24.39207219182669       87.18557864332311       52.89055194942586
H           23.60992732718983       87.79317106530164       52.45023587077412
C           24.15920127244392       85.90066795473845       53.13113414269711
H           24.91087776549467       85.24103638140105       53.52804284180985
H           23.20077364056691       85.45343604257187       52.92804731439238
C           24.63826713515071       89.78889970945117       48.24179791129229
H           23.69867131348905       89.80562699491928       48.79221086694299
H           24.94746683268410       88.74781009407675       48.13905606159905
H           24.45925899591326       90.19337146120665       47.24931876924285
C           26.31774403004630       92.34972462259958       47.19821965749449
H           25.76728975987447       93.28648849134589       47.29343211334852
H           25.81356749918920       91.73466864548303       46.45685999084495
H           27.31545661503132       92.58043950405968       46.82908140271309
O           26.91945033313919       92.36941988969808       53.19934251210174
H           27.23973974963980       93.29108780817644       53.32818668674521
H           26.28656160294619       92.16609503833796       53.92300276263125
C           30.69835990798381       87.31773981815573       48.81196974244013