87
 energy: -124.469532472086 gnorm: 0.285775643643 xtb: 6.7.1 (edcfbbe)
Fe          18.64700000000000        8.47400000000000       13.87500000000000
N           17.79700000000000        8.92100000000000       12.12200000000000
N           20.29200000000000        9.54400000000000       13.37400000000000
N           19.51400000000000        7.96300000000000       15.64300000000000
N           17.02300000000000        7.39800000000000       14.36000000000000
C           16.50500000000000        8.62900000000000       11.74100000000000
C           16.33700000000000        9.06300000000000       10.38000000000000
C           17.48900000000000        9.58700000000000        9.96600000000000
C           18.42700000000000        9.52300000000000       11.06000000000000
C           20.54200000000000       10.08200000000000       12.12700000000000
C           21.81800000000000       10.76200000000000       12.15000000000000
C           22.35700000000000       10.58800000000000       13.55300000000000
C           21.35000000000000        9.81900000000000       14.24300000000000
C           20.64500000000000        8.53500000000000       16.18600000000000
C           20.82900000000000        8.03900000000000       17.52700000000000
C           19.85700000000000        7.15200000000000       17.75700000000000
C           18.99400000000000        7.10900000000000       16.59000000000000
C           16.86600000000000        6.64100000000000       15.50900000000000
C           15.48400000000000        6.19800000000000       15.55500000000000
C           14.85600000000000        6.66000000000000       14.46900000000000
C           15.80700000000000        7.42800000000000       13.70800000000000
C           15.54600000000000        8.03900000000000       12.52100000000000
H           14.51400000000000        8.06000000000000       12.17000000000000
C           19.72000000000000        9.98800000000000       11.04500000000000
H           20.12300000000000       10.30900000000000       10.08400000000000
C           21.44400000000000        9.45200000000000       15.55700000000000
H           22.22100000000000        9.93000000000000       16.15400000000000
C           17.84900000000000        6.35200000000000       16.44100000000000
H           17.71200000000000        5.48600000000000       17.08800000000000
C           15.04100000000000        8.91300000000000        9.57100000000000
H           14.38700000000000        9.45500000000000       10.28700000000000
H           14.92200000000000        7.82000000000000        9.73100000000000
H           14.74000000000000        9.18000000000000        8.53500000000000
C           17.77600000000000       10.21100000000000        8.59400000000000
H           18.66800000000000        9.58500000000000        8.37800000000000
H           18.11300000000000       11.20300000000000        8.96400000000000
H           17.18700000000000       10.33400000000000        7.66000000000000
C           13.36900000000000        6.47400000000000       14.08600000000000
H           13.50200000000000        5.37100000000000       14.07600000000000
H           12.62100000000000        6.75400000000000       13.31400000000000
H           13.01200000000000        6.78500000000000       15.09100000000000
C           14.89600000000000        5.29400000000000       16.63900000000000
H           14.21400000000000        5.73100000000000       17.38300000000000
C           14.61400000000000        4.04200000000000       16.22800000000000
H           15.25200000000000        3.54100000000000       15.48500000000000
H           13.74200000000000        3.50600000000000       16.63000000000000
C           19.61700000000000        6.36000000000000       19.04799999999999
H           19.61800000000000        5.35800000000000       18.56900000000000
H           18.56600000000000        6.68400000000000       19.20200000000000
H           20.14100000000000        6.29300000000000       20.02500000000000
C           22.00900000000000        8.47400000000000       18.43300000000000
H           22.34400000000000        9.45300000000000       18.10300000000000
C           22.62700000000000        7.65700000000000       19.30100000000000
H           22.18800000000000        6.68200000000000       19.56000000000000
H           23.58000000000000        7.95200000000000       19.76400000000000
C           23.69500000000000       11.10900000000000       14.11400000000000
H           24.30900000000000       10.58900000000000       13.34800000000000
H           24.27200000000000       11.16200000000000       15.06200000000000
H           23.46100000000000       12.13400000000000       13.75400000000000
C           22.53200000000000       11.48100000000000       10.99400000000000
H           23.45100000000000       10.87500000000000       11.14700000000000
H           22.64399999999999       12.44700000000000       11.53200000000000
H           22.39900000000000       11.66500000000000        9.90700000000000
C           15.45200000000000       12.00300000000000       16.74900000000000
H           14.54600000000000       12.31600000000000       16.18800000000000
H           15.89400000000000       12.89400000000000       17.24400000000000
H           15.16100000000000       11.25000000000000       17.51200000000000
N           16.97900000000000       12.10800000000000       14.73900000000000
H           16.77900000000000       13.06400000000000       14.52300000000000
C           16.44100000000000       11.40800000000000       15.80500000000000
C           17.78700000000000       11.30600000000000       14.07000000000000
H           18.34600000000000       11.59900000000000       13.18200000000000
N           17.79400000000000       10.12000000000000       14.65600000000000
C           16.95600000000000       10.15900000000000       15.74000000000000
H           16.80400000000000        9.28900000000000       16.36700000000000
C           22.40300000000000        6.88800000000000       12.52100000000000
H           23.39100000000000        6.57700000000000       12.92200000000000
H           22.34200000000000        7.99700000000000       12.55000000000000
H           22.32000000000000        6.53600000000000       11.47100000000000
C           21.26599999999999        6.27500000000000       13.37400000000000
H           21.38000000000000        6.63800000000000       14.41700000000000
H           21.38800000000000        5.17200000000000       13.37400000000000
S           19.60400000000000        6.69100000000000       12.77600000000000
C           18.69700000000000        5.17500000000000       13.10700000000000
H           18.70600000000000        4.92700000000000       14.19000000000000
H           19.15500000000000        4.32600000000000       12.55700000000000
H           17.63800000000000        5.28400000000000       12.78900000000000
87
 energy: -124.589193139720 gnorm: 0.156784458972 xtb: 6.7.1 (edcfbbe)
Fe          18.65494227215294        8.45905867307167       13.87027814515619
N           17.79714774212350        8.92276924622197       12.11877675217206
N           20.28024162477378        9.53581250393492       13.38368941079993
N           19.51151876968897        7.97412290789474       15.65339808944869
N           17.02901544299650        7.41075738666718       14.36961756849543
C           16.51393193912213        8.64374915913313       11.73067991652237
C           16.32680545119189        9.07183784245079       10.36344248670803
C           17.48628880310516        9.59404302532510        9.94745842549120
C           18.42066741102248        9.51538652270811       11.05454048492009
C           20.55215107546237       10.07207043713616       12.15353730100494
C           21.81913454739889       10.74383778570255       12.18284693385671
C           22.32394527575986       10.58615561390958       13.52592037787521
C           21.33037510884344        9.83044313713826       14.22191274636930
C           20.63267403404705        8.54952409976668       16.19499688278852
C           20.85087679846359        8.05085450185036       17.53827098622855
C           19.87189385853570        7.15051099237960       17.77086983320050
C           19.01567658648095        7.10946611833989       16.59157461938962
C           16.86943715063597        6.64218866674852       15.49521354385780
C           15.49449727623671        6.19104343406220       15.55832007503372
C           14.85827771935431        6.68369713762496       14.46427259758379
C           15.82232681459385        7.43949237551778       13.72225111277104
C           15.55423616287845        8.04696237065822       12.51920520468687
H           14.52608376467616        8.04623268555417       12.16696088353321
C           19.72026890797881        9.98571781851237       11.04887948141718
H           20.11964137103248       10.32206099667954       10.09574569112387
C           21.43878276430173        9.45839894059823       15.55056601019278
H           22.22937179528235        9.91913362355665       16.13526927863047
C           17.85454134738030        6.35878397862209       16.43688352872041
H           17.69586577400266        5.51212477909196       17.10139990046183
C           15.02534030903878        8.89640713054462        9.61266595253465
H           14.34157760859392        9.44015086617443       10.27451647489619
H           14.87626297821883        7.81576202397514        9.72006088798785
H           14.80283412732405        9.18577747287011        8.57161422834030
C           17.82236833475461       10.21534988670300        8.61179637965970
H           18.69427800504034        9.61102315721163        8.33971816755151
H           18.13624286427007       11.21768132889377        8.92610194704417
H           17.17102882254368       10.30653542845524        7.72591760841332
C           13.38481641324277        6.44297233376706       14.13202603906164
H           13.44148001287617        5.34798140235721       14.08770912910247
H           12.70778554796686        6.77882084121711       13.32442296663377
H           12.95922128467783        6.75791559008377       15.09249655634979
C           14.85187835210514        5.30353523283849       16.58320573093844
H           14.23260307075384        5.73977473852790       17.37385912202879
C           14.60979301088064        4.03937307360844       16.22829632940821
H           15.22888613706961        3.54778572313816       15.48213760210478
H           13.77733078817706        3.48514480000214       16.65473362476090
C           19.58084718023065        6.34221457361841       19.01841037172433
H           19.59429638787521        5.32844895672159       18.60135722653818
H           18.55029182964029        6.65004765200234       19.22910294347678
H           20.14541158343315        6.33288324940976       19.96557443969792
C           22.00755623738957        8.45484901073453       18.40275125873708
H           22.35269489290031        9.44333810450852       18.11958649117564
C           22.61695627152360        7.66503466841059       19.28573720233668
H           22.20463444364832        6.69528862806666       19.54682262795336
H           23.55178915886127        7.95679105311814       19.76479281732271
C           23.66873012275349       11.11896163322138       14.04418365880834
H           24.34904294148633       10.61934826794867       13.34073090123842
H           24.17839646633499       11.12193018497380       15.03280237106748
H           23.51875972380172       12.16440456185222       13.74496162217079
C           22.55910794941207       11.47141747403869       11.05686371436920
H           23.49966853437737       10.90943563978111       11.12397596838587
H           22.68340289214933       12.46438668720683       11.51107207683255
H           22.34448445232820       11.62175070009685        9.97795420580317
C           15.45084261765327       12.00699819517100       16.74763707073909
H           14.55148847828013       12.31666604513320       16.19943830489720
H           15.88280405000953       12.88571106516183       17.24391178299285
H           15.16635405723133       11.26429168823279       17.50138524461700
N           16.97096047145898       12.11153595859737       14.74874948658740
H           16.77293482166410       13.07130259507696       14.52811050939260
C           16.43528496669131       11.41221425269739       15.80606737061293
C           17.78832188487010       11.29259531421092       14.07579463286205
H           18.34174174344933       11.58447142586891       13.19598798649288
N           17.80256648817790       10.10571630699212       14.64751041944558
C           16.96510282462579       10.16118832795523       15.72876899685679
H           16.81076312084608        9.29926635103875       16.35532317642413
C           22.39515472840992        6.88579206595638       12.52108841536224
H           23.37285659206033        6.58080602976854       12.91797846614472
H           22.34007427027059        7.97986046796795       12.54588344762832
H           22.31926216564846        6.54342749726571       11.48255096995054
C           21.27807991943348        6.27041653982431       13.37425540932707
H           21.37414642000293        6.63558727049107       14.40723456558784
H           21.38175955522638        5.17742023109708       13.38839601503540
S           19.61041302451478        6.68575510333999       12.75483499111959
C           18.70226390540770        5.16315979503449       13.11303271753694
H           18.70727400505770        4.93238663239104       14.18479924243608
H           19.15167059180736        4.33088386499665       12.55832411936325
H           17.66046297199937        5.29078813879457       12.79119974569223
87
 energy: -124.657434412233 gnorm: 0.071057671940 xtb: 6.7.1 (edcfbbe)
Fe          18.66047776174632        8.45698490986647       13.87021659412983
N           17.79936478768005        8.92133789348147       12.11457676400272
N           20.27355525738668        9.53010727083638       13.39003991135791
N           19.51028973377732        7.98274163829738       15.66043410499409
N           17.03345565614850        7.42052566865403       14.37630478304015
C           16.52424353096765        8.65565499580199       11.72368784966783
C           16.31804251901089        9.08045608175030       10.35011403753606
C           17.48708181303126        9.60005926861880        9.93131796078169
C           18.41751238020682        9.50811028523941       11.05208436877729
C           20.55872455202382       10.06442737873422       12.17065833176930
C           21.82767692805152       10.73200260883025       12.21078926549789
C           22.30330736199799       10.59057275867115       13.49636870169798
C           21.31592493390382        9.83985199992181       14.20726220093962
C           20.61876512218072        8.56268510036563       16.20076258189206
C           20.86525908711389        8.05575356972789       17.54610663212958
C           19.88158605729273        7.14044950982455       17.77820080634476
C           19.03129361836197        7.11318206839181       16.59129140620384
C           16.87243525365003        6.64549032551967       15.48435861604301
C           15.50574961489719        6.18163723458700       15.56007375765409
C           14.85806498086327        6.70122915502759       14.46198663107143
C           15.83279937876790        7.45270581564642       13.73611689573877
C           15.56395994643452        8.05480986206976       12.51766230355214
H           14.54111781477908        8.02999658962046       12.16332189926516
C           19.71941585012570        9.98547291378921       11.05368320827102
H           20.11597793291533       10.33902168574770       10.11036315316666
C           21.43447269592613        9.46275285007795       15.54479743371487
H           22.24021509728425        9.90510271308730       16.11548877099747
C           17.85752934812124        6.37257362337942       16.43577884323275
H           17.67640281428837        5.54721771470525       17.11824243964419
C           15.01352975334903        8.88263531496661        9.65336607633259
H           14.29324631906294        9.42357943565101       10.26357179621169
H           14.82964555397151        7.81146141458155        9.71157466247431
H           14.87507724763556        9.19640181152726        8.60758712942838
C           17.86679992637730       10.21882468082595        8.63057422289359
H           18.72449322685680        9.63922248390420        8.29997460617481
H           18.16513264188549       11.23404287005528        8.88635004227650
H           17.14892797791738       10.27338524351730        7.79691696396895
C           13.40573010996577        6.41575784241773       14.17918017677863
H           13.38815984293919        5.32839218071279       14.10064923315993
H           12.81217519661200        6.81206673264933       13.33219696161963
H           12.91036699983942        6.72983388106827       15.09798051989538
C           14.82086277720034        5.31049408536863       16.53094549964629
H           14.25145427678296        5.75608140633768       17.34988162735343
C           14.60815243897761        4.03620797782931       16.22864621685397
H           15.20017920096621        3.55149355072636       15.46799508673523
H           13.81880637565335        3.46217903788118       16.69144942780050
C           19.54815379924646        6.32591869009155       18.98668684916721
H           19.56751592125154        5.29698515594159       18.63251188374810
H           18.53273591045679        6.61541713193934       19.25049025507067
H           20.15721032707240        6.37977791876948       19.90109168594893
C           21.99384320729476        8.44223025826817       18.37348661059958
H           22.36957061388846        9.43264917233969       18.13147808336300
C           22.60439464446925        7.67444488960976       19.27282057346328
H           22.22343197045712        6.70028608946593       19.53116430931552
H           23.52216394938547        7.96796092142487       19.76606402069237
C           23.64126935278609       11.12948398444624       13.97616879223164
H           24.37814198724680       10.64677006359778       13.32939462922796
H           24.06466472765360       11.07248477163890       15.00692993568288
H           23.56956476271871       12.19150974234030       13.73214704451307
C           22.58388457445618       11.46068086936782       11.11769925994797
H           23.54408742219644       10.94140238986066       11.10683897646988
H           22.71796135796952       12.47629224735607       11.49836033259769
H           22.27383442825099       11.56559291837689       10.05450782668833
C           15.45010081737265       12.00878301905888       16.74726940612809
H           14.55504746620160       12.31795531554271       16.20744131583550
H           15.87556040700514       12.88034518183208       17.24392031981933
H           15.16999184780209       11.27317763789987       17.49556381024431
N           16.96516899647332       12.11390529232628       14.75586030513612
H           16.77007931040536       13.07528534509617       14.53003542376425
C           16.43124476896937       11.41384379015770       15.80625781346836
C           17.78886586493297       11.28279025618872       14.08107315668494
H           18.33820828107969       11.57299118371472       13.20706981853417
N           17.80773983713671       10.09833810608541       14.64291408860901
C           16.97168436256938       10.16297854011339       15.71952417006002
H           16.81477423872379        9.30847247667492       16.34814456400119
C           22.38777995300557        6.88153938205591       12.52574525579889
H           23.36133160481795        6.58250222602600       12.91553955430844
H           22.33395089808539        7.96604446474621       12.54544310704267
H           22.31269212531297        6.54689591976578       11.49327083705096
C           21.28951365449404        6.26764340185764       13.38657253760110
H           21.36792833763275        6.63352243974833       14.41018599299266
H           21.37651682060366        5.18103647159792       13.36892756333087
S           19.61510890726862        6.68340612736388       12.74230645416846
C           18.70628889994371        5.15051366977865       13.11743765142033
H           18.71308778768567        4.93986452840351       14.18223538108257
H           19.15203701137954        4.33169026533466       12.55963727174783
H           17.67842714936966        5.29861430350389       12.79185262972392
87
 energy: -124.687427833139 gnorm: 0.049772047553 xtb: 6.7.1 (edcfbbe)
Fe          18.66517382630913        8.45884068163920       13.86964820978934
N           17.80475381616860        8.92156408769000       12.11522293420714
N           20.27023864513696        9.53117904295352       13.39203380635027
N           19.50396302305346        7.99624763970473       15.66164858619205
N           17.03508735384812        7.43244938548631       14.38172759985284
C           16.53214924714903        8.66297787982664       11.72725911157323
C           16.31802506306237        9.08668054899536       10.35334392680797
C           17.49449409136899        9.60266704709511        9.93084839304865
C           18.42038755450215        9.50391191219835       11.05483918497685
C           20.55635126895699       10.05848688319641       12.17032830280975
C           21.83150255542301       10.72570449503313       12.21130331371968
C           22.29700850572996       10.59852311042984       13.49214754443206
C           21.30666265746042        9.84678722736256       14.21125915704670
C           20.60539743817879        8.57519978608102       16.20222381585801
C           20.86007062157101        8.05308285033248       17.54248443804758
C           19.87631590950890        7.12813268761329       17.76923315637743
C           19.03263021102859        7.11829616825121       16.58468077688994
C           16.87712812853804        6.64952827016405       15.48119625881779
C           15.51799048589558        6.17558673281278       15.55662553836187
C           14.86198473707413        6.70529676727903       14.46693658219918
C           15.83532912361683        7.46588817415828       13.74523485048157
C           15.57266026585487        8.06144436396113       12.51982948743517
H           14.55618661640622        8.01012427660110       12.15563415208278
C           19.71876283593031        9.98562051515673       11.05655203172307
H           20.11062673324404       10.36473059356560       10.12289041197890
C           21.42949629243349        9.46747692147696       15.54427373420418
H           22.25817856419011        9.88580689449305       16.09856456745728
C           17.85658700901001        6.38680143854569       16.43718282140755
H           17.64997596749563        5.59171444236462       17.14756911903687
C           15.00951319208993        8.87807950355537        9.67871350627996
H           14.24615203394801        9.40879721921718       10.25102901939922
H           14.78565848307404        7.81001902241990        9.70327901767025
H           14.94404642583814        9.21236718318379        8.63366616156021
C           17.89522149891243       10.22043198425024        8.64173047846603
H           18.75418128376699        9.66812946053507        8.25880998859316
H           18.19586178733605       11.25039675813231        8.84401607357180
H           17.12422218256600       10.24105738612551        7.85689156070197
C           13.42310662615349        6.40368873748864       14.20737162315981
H           13.33942252083189        5.31644050105225       14.11155812007132
H           12.91181661548318        6.85007440643032       13.33276309071769
H           12.86555906214068        6.70352282198756       15.10006888993541
C           14.80843580561332        5.31021825666195       16.49950158775570
H           14.26623070360219        5.77328408382155       17.32305177340885
C           14.60720596354276        4.02900154419366       16.22854252318664
H           15.16590284847531        3.54841496613348       15.43958194560107
H           13.87193713040874        3.42808590692158       16.75438825517170
C           19.52607742385369        6.31271758424927       18.96281522920495
H           19.53993815329936        5.26223963970931       18.66458908290173
H           18.51270299726831        6.57862000714743       19.26680612993349
H           20.17300765615438        6.42492659435067       19.84370222387983
C           21.99076616712344        8.43494632854237       18.35343037901863
H           22.38851354569326        9.42366815575476       18.13844991904313
C           22.60078305208842        7.67666057894889       19.26164105945643
H           22.24252601220544        6.69211374042623       19.51065934038953
H           23.49469844889502        7.99161940105744       19.77898261153729
C           23.62335463611612       11.13869886262074       13.93729884250408
H           24.39906889746026       10.67437497819478       13.32096339233663
H           23.95715797610825       11.02615037995265       14.99189054930224
H           23.61642822086976       12.21250885916626       13.72035300123167
C           22.59792993804053       11.45247725780671       11.14910994838746
H           23.58067923372134       10.97309822680134       11.08866531449405
H           22.74754174502656       12.48279086459255       11.48493878002473
H           22.20199410631198       11.50863471448529       10.11510643513696
C           15.45063982291632       12.00868519339537       16.74719673836262
H           14.55395642059530       12.32041888942329       16.21245758382459
H           15.87316610801796       12.87973145521247       17.24610498860764
H           15.17170394485494       11.27511068766697       17.49613573221110
N           16.96418593746720       12.11333530577422       14.75749362501415
H           16.77030474341676       13.07489811843593       14.52992766791426
C           16.43060397946903       11.41181405988198       15.80550045767228
C           17.78975589555649       11.27858953034992       14.08327304297370
H           18.33904877106053       11.56600820568091       13.21088519133357
N           17.80958656280236       10.09462546226789       14.64163393719364
C           16.97448249953851       10.16187891237101       15.71614303523019
H           16.81706874202970        9.31152581033981       16.34734195397143
C           22.38458440096227        6.87845932095002       12.52932967680822
H           23.35884037795751        6.58288072304366       12.91599885001844
H           22.32510213832151        7.96175554752071       12.54552575772154
H           22.30291628810876        6.54360954742478       11.49841336967351
C           21.29285366576022        6.26074305570179       13.38728405548152
H           21.35685505231492        6.63075486517728       14.40780348821230
H           21.36949833704342        5.17548578804186       13.37416010232355
S           19.61906848591033        6.68169793696936       12.72746846991706
C           18.71383916038308        5.14460446835519       13.11862148464783
H           18.72452249247589        4.94916676845160       14.18520114049748
H           19.15653861254616        4.32595324186013       12.56069629767067
H           17.69111663832592        5.30626036531867       12.79131568551955
87
 energy: -124.699038751356 gnorm: 0.035493271142 xtb: 6.7.1 (edcfbbe)
Fe          18.66582751792678        8.46300158189316       13.87065482884027
N           17.81299571833311        8.92381270875158       12.12049099725520
N           20.26782679304065        9.53427827987048       13.39354178294262
N           19.49658274448773        8.00936271778611       15.65630504812334
N           17.03317046669650        7.44176437558283       14.38503489457842
C           16.54043998457109        8.66819573321588       11.73440825950978
C           16.32306567869107        9.09303326906801       10.36297905565885
C           17.50534385265818        9.60636067610299        9.93701842987489
C           18.42591617333113        9.50501394123141       11.06098890695910
C           20.55489362909204       10.05755318759932       12.16998388597636
C           21.83312427520482       10.72381217217812       12.20948433218373
C           22.29398300769587       10.60551217405860       13.49199896840098
C           21.30234229729913        9.85237696164013       14.21547202187139
C           20.59812775106020        8.58040825755276       16.19882769282970
C           20.85337314686457        8.04292854218231       17.53200260589858
C           19.86707574222541        7.11572510888652       17.75338718242490
C           19.02585261001812        7.12757529801024       16.57587059140559
C           16.87724765751518        6.65390974073086       15.48121276928454
C           15.52636415746339        6.16449125342265       15.54913252810746
C           14.86345918407939        6.70044769561430       14.47237794036450
C           15.83289273447670        7.47282577115423       13.74987362297053
C           15.58054567049797        8.06356344431770       12.52151882872167
H           14.57176472858656        7.98867791246074       12.14237043638932
C           19.72030038346380        9.99315998135247       11.06172037576014
H           20.10476825357109       10.39922218750385       10.13648390972082
C           21.42992035489898        9.46722300696721       15.54111925079342
H           22.28004930833414        9.86035703446192       16.08141488995955
C           17.84665422914398        6.40711538785896       16.44440505605813
H           17.61588705348541        5.64826661987413       17.18698711653528
C           15.01429379243290        8.88393300062645        9.68826176817629
H           14.22350808938870        9.40700580283033       10.23293974961971