72
 energy: -105.980528083903 gnorm: 0.000035461314 xtb: 6.7.1 (edcfbbe)
Fe         -20.65664169588543        6.84658305287622       -9.72198128932218
N          -19.56943245540559        5.86099953384537      -11.06650934653936
N          -21.16860974511543        8.19626225704794      -11.13090362099669
N          -21.68080264318303        7.91080434399199       -8.34839586483244
N          -20.11849577119954        5.55039762099284       -8.31325682906970
C          -18.86615146511510        4.71995220952711      -10.86157395086879
C          -18.18704184761166        4.31102826122859      -12.07263925093323
C          -18.48978968551658        5.24400632280966      -13.01284362214332
C          -19.35932953540957        6.20302381711826      -12.36549235412603
C          -20.77546476421792        8.20598650691720      -12.43614171824713
C          -21.37265970274048        9.30775007578614      -13.14213896198478
C          -22.14541905933696        9.97803520110203      -12.22971932039159
C          -22.00060897519898        9.26243637294118      -10.97923632265406
C          -22.42492347929377        9.03257414329338       -8.56808436914488
C          -23.03110102534707        9.49036899987822       -7.34579248161331
C          -22.64235992688187        8.61004083325947       -6.37020142732114
C          -21.79970914346965        7.63141122243307       -7.02479040335390
C          -20.46460566833555        5.57487617414576       -7.00076143609512
C          -19.91475382684414        4.43037343608394       -6.30462114073082
C          -19.23340847928596        3.71182038723387       -7.23426582507172
C          -19.37018515724981        4.43167129935382       -8.48294075604545
C          -18.78573734545773        4.03066020708573       -9.66713573282551
H          -18.20304757996636        3.12277386850523       -9.65393930005662
C          -19.91347992110709        7.28844283878489      -13.01296609213817
H          -19.65924310931891        7.43089473420812      -14.05163739663475
C          -22.58670402994564        9.65795997826898       -9.79189653581686
H          -23.21423444775932       10.53481952128611       -9.81878625138557
C          -21.23764056545589        6.54091829465620       -6.38818954132179
H          -21.43419217023828        6.42408227489279       -5.33407951802983
C          -18.05909170861409        5.32767702157505      -14.43660576706176
H          -17.39351339045956        4.50562279128788      -14.68721569569646
H          -17.53272315255389        6.26386731084962      -14.62250631549267
H          -18.92141925659143        5.28574090096993      -15.10292825552929
C          -17.33209031191292        3.09659306995802      -12.18607133723833
H          -17.90319105185716        2.20093600195560      -11.94086493520228
H          -16.48859488317343        3.15868751670786      -11.49847477425979
H          -16.94389631612579        2.98961153330990      -13.19589647997692
C          -21.21183578966987        9.58069539059882      -14.59640310363089
H          -21.18334361053466        8.65130942346580      -15.16341779790356
H          -20.28453152780785       10.12221369492742      -14.79027005903904
H          -22.04302357465954       10.18348473681744      -14.95656081167282
C          -22.97580517796689       11.14765529265276      -12.41698287851109
H          -23.88162560134353       11.17921593054554      -11.82241442947356
C          -22.70693029646978       12.15765158575799      -13.23735866555514
H          -21.80020637114989       12.20098660104674      -13.81517032601617
H          -23.37800196415963       12.99416486289402      -13.33892791698488
C          -23.84966315286035       10.72553265463078       -7.20561763469565
H          -24.88436166304787       10.54177189056985       -7.49957905054522
H          -23.45714993352899       11.52346420650404       -7.83444125450179
H          -23.84182203851411       11.06180920019618       -6.17088511660934
C          -22.94973032891528        8.61556131780331       -4.95667379608383
H          -22.16570986281655        8.24533576139542       -4.30633611231532
C          -24.09487373833118        9.02279235643245       -4.41999453415950
H          -24.92389471151608        9.35348883640432       -5.02085732468469
H          -24.25224531816005        9.01151391310242       -3.35435954336425
C          -20.10596890892316        4.16010950855687       -4.85234587374830
H          -21.16619391981786        4.06418013669901       -4.61792423366269
H          -19.69892435055366        4.97533336963396       -4.25370929772063
H          -19.60576124747516        3.23980067504699       -4.56171121159842
C          -18.47225981037995        2.44112138550521       -7.07745322428719
H          -18.87938031970657        1.66852413358764       -7.72977345475451
H          -18.52211448995389        2.08480854614832       -6.05166025252031
H          -17.42435356116779        2.58836289992504       -7.33941003569536
O          -18.92151891287599        8.17708511197995       -9.22349698618061
H          -19.15659187181092        8.46472098302139       -8.33390030904136
H          -19.08790932937498        8.91993536268158       -9.81518422544609
C          -22.61337971673215        5.12931774650459      -11.90954090823126
H          -23.61631007443422        4.82853483957206      -12.19649441969657
H          -21.93110084920879        4.29007449759878      -11.99517576283855
H          -22.25877147827288        5.95421765668785      -12.51782023846793
S          -22.61597962736920        5.62114767211681      -10.14963172650462
H          -23.43443357730277        6.66538788282457      -10.31903326371373
