78
 energy: -115.970961334396 gnorm: 0.268062410248 xtb: 6.7.1 (edcfbbe)
Fe          35.43700000000000        4.20400000000000       10.23900000000000
N           37.39200000000000        4.02900000000000        9.75100000000000
N           35.20500000000000        5.63800000000000        8.81600000000000
N           33.54700000000000        4.60200000000000       10.91700000000000
N           35.72999999999999        3.00000000000000       11.85200000000000
C           38.28599999999999        3.14600000000000       10.32900000000000
C           39.50000000000000        3.18100000000000        9.54100000000000
C           39.30900000000000        4.03400000000000        8.50700000000000
C           37.97800000000000        4.59900000000000        8.63900000000000
C           36.15700000000000        5.98500000000000        7.88200000000000
C           35.56200000000000        6.95400000000000        6.98500000000000
C           34.28200000000000        7.17500000000000        7.39300000000000
C           34.04700000000000        6.34400000000000        8.56000000000000
C           32.69000000000000        5.54200000000000       10.38300000000000
C           31.52100000000000        5.61100000000000       11.23500000000000
C           31.73500000000000        4.80400000000000       12.31100000000000
C           32.99400000000000        4.10600000000000       12.08000000000000
C           34.79500000000000        2.69100000000000       12.82100000000000
C           35.43100000000000        1.80400000000000       13.77600000000000
C           36.73000000000000        1.67000000000000       13.41200000000000
C           36.91500000000000        2.35300000000000       12.14700000000000
C           38.09900000000000        2.34200000000000       11.43600000000000
H           38.90500000000000        1.68300000000000       11.75600000000000
C           37.45700000000000        5.52900000000000        7.76400000000000
H           38.08500000000000        5.91400000000000        6.96100000000000
C           32.85100000000000        6.30900000000000        9.24400000000000
H           32.01200000000000        6.90000000000000        8.87800000000000
C           33.48400000000000        3.12300000000000       12.92100000000000
H           32.82900000000000        2.68300000000000       13.67200000000000
C           40.24700000000000        4.36500000000000        7.34300000000000
H           41.18500000000000        3.77900000000000        7.44500000000000
H           40.49499999999999        5.44800000000000        7.35700000000000
H           39.75899999999999        4.10000000000000        6.38100000000000
C           40.73600000000000        2.30600000000000        9.81800000000000
H           40.56800000000000        1.28700000000000        9.40800000000000
H           40.90500000000000        2.23100000000000       10.91300000000000
H           41.62800000000000        2.75000000000000        9.32600000000000
C           36.28300000000000        7.57900000000000        5.78400000000000
H           36.89300000000000        6.80400000000000        5.27300000000000
H           36.95300000000000        8.39400000000000        6.13100000000000
H           35.53700000000000        7.98100000000000        5.06600000000000
C           33.21500000000000        7.99500000000000        6.89900000000000
H           32.17300000000000        7.64800000000000        6.95000000000000
C           33.48300000000000        9.28900000000000        6.32600000000000
H           34.51400000000000        9.66700000000000        6.25900000000000
H           32.66000000000000        9.91400000000000        5.94900000000000
C           30.29100000000000        6.46800000000000       10.91500000000000
H           30.07100000000000        6.40900000000000        9.82800000000000
H           30.49100000000000        7.52700000000000       11.18500000000000
H           29.41300000000000        6.09100000000000       11.48100000000000
C           31.02800000000000        4.51100000000000       13.51100000000000
H           31.41700000000000        3.73100000000000       14.18200000000000
C           29.82700000000000        5.17100000000000       13.91200000000000
H           29.38700000000000        5.96000000000000       13.28400000000000
H           29.32700000000000        4.89800000000000       14.85300000000000
C           34.74299999999999        1.19500000000000       15.00000000000000
H           33.88000000000000        0.57700000000000       14.67100000000000
H           34.37300000000000        2.00500000000000       15.66500000000000
H           35.46000000000000        0.54900000000000       15.55100000000000
C           37.87200000000000        1.02200000000000       14.21600000000000
H           37.92900000000000       -0.06100000000000       13.97300000000000
H           37.67700000000000        1.13700000000000       15.30400000000000
H           38.83800000000000        1.50200000000000       13.95000000000000
O           36.06500000000000        5.72800000000000       11.65600000000000
H           35.26199999999999        6.14300000000000       11.97100000000000
H           36.89400000000000        5.93400000000000       11.90200000000000
C           32.67800000000000        0.04700000000000        7.43400000000000
H           33.00800000000000       -0.99300000000000        7.64300000000000
H           32.55600000000000        0.17300000000000        6.33700000000000
H           31.70900000000000        0.22700000000000        7.94700000000000
N           35.00899999999999        1.01100000000000        7.48800000000000
H           35.36000000000000        0.39200000000000        6.78600000000000
C           33.71200000000000        1.01500000000000        7.94500000000000
C           35.69799999999999        1.93900000000000        8.11600000000000
H           36.75200000000000        2.15100000000000        7.94200000000000
N           34.89300000000000        2.54600000000000        8.97100000000000
C           33.65500000000000        1.97300000000000        8.88800000000000
H           32.83900000000000        2.30700000000000        9.51700000000000
78
 energy: -116.028328055183 gnorm: 0.097927372928 xtb: 6.7.1 (edcfbbe)
Fe          35.44371352649435        4.21219895175118       10.25577967063980
N           37.38207589979968        4.01238668357085        9.73870524247727
N           35.20208498140498        5.62015445989436        8.81218633634013
N           33.55761227893849        4.60667738400768       10.92511378372581
N           35.72976458665756        2.98553710307949       11.83869295110257
C           38.28482122437045        3.15011190005649       10.30602433005316
C           39.51008262951488        3.16828999009440        9.53083488981199
C           39.31967283930557        4.03267335624976        8.50032723174571
C           37.98294366778330        4.58073520805291        8.64653188188687
C           36.13681686924076        5.98882425096486        7.88176110503320
C           35.56349937972517        6.96518600826006        6.97828913763099
C           34.27706361091357        7.18406660022782        7.38501356276803
C           34.05836629037021        6.32354220005329        8.54326525411335
C           32.68122862849023        5.51904473852251       10.39509406247548
C           31.50804296338140        5.61202709066433       11.23500924524589
C           31.71416246547432        4.78756558003665       12.31192767158810
C           32.99170463360782        4.11518007932141       12.06862166996043
C           34.81254586751292        2.66384165408635       12.80291414158707
C           35.43631971029932        1.79897318959894       13.78741638315075
C           36.73752820691909        1.66128828651103       13.42206810691718
C           36.90445832144949        2.36089968509923       12.16224605906633
C           38.08259324360473        2.36335138346407       11.43050250816028
H           38.88618690323774        1.70813870517006       11.75103244886825
C           37.44012769298061        5.51827971458157        7.78196782921047
H           38.06637900149885        5.90210552928191        6.98293466906981
C           32.86830212764200        6.28240626400400        9.24961749207671
H           32.04016932300440        6.89034461796495        8.89970754689004
C           33.50841103431717        3.12388951327933       12.89376728449007
H           32.86876738590643        2.69634580816542       13.65828482880682
C           40.24452084547418        4.36262586442502        7.35586806394828
H           41.17301701106103        3.78978490528467        7.44085183687247
H           40.49077254554546        5.43074371932316        7.35448675456920
H           39.76885909014001        4.10874092177513        6.40065340117853
C           40.72486347494350        2.31333252698433        9.81458197549969
H           40.57177165667145        1.30243428713141        9.41611882497417
H           40.90390281682902        2.23587817772143       10.89188303905467
H           41.61292856935967        2.74157745317126        9.33878561366170
C           36.27705759843602        7.57122877150685        5.79420795371071
H           36.88378570011339        6.81572993026951        5.28193025731816
H           36.94054314477295        8.38064229890612        6.12306592884324
H           35.54949407210957        7.97445285392656        5.08194159272729
C           33.23490039606416        8.03529015089139        6.87061526358648
H           32.20566448583089        7.68226802002197        6.93957449630761
C           33.47497646738191        9.25803784750629        6.32941136362410
H           34.48339221155398        9.65062699677918        6.27166131115588
H           32.67123227737279        9.88700587851483        5.96203605069003
C           30.30493861206786        6.46381292210417       10.91207030673942
H           30.07974700977322        6.41301510877526        9.84155415838802
H           30.48499590129905        7.51174738497618       11.18188213447548
H           29.42851716146903        6.09964325340370       11.45334713928555
C           30.97869500440211        4.52676658569991       13.51286881521144
H           31.37983646128973        3.76584528469862       14.17903474437751
C           29.84545185365445        5.15860749677090       13.91082975983042
H           29.40250828501958        5.94579958777701       13.31783560337366
H           29.34779303440508        4.89477409819199       14.83616850123025
C           34.74826515708661        1.20370176890439       14.99062876185615
H           33.89528426919093        0.58970487401194       14.67569834249676
H           34.37853913912892        1.99201636975153       15.65691910479720
H           35.44429151626044        0.56453291242689       15.54325030724948
C           37.85969063551281        1.01809409272447       14.20571724063991
H           37.93100106083396       -0.05173561319577       13.97675972780100
H           37.68108205592218        1.13299879172710       15.28051123246652
H           38.81535706311771        1.49220023953079       13.95837498336591
O           36.04728067961477        5.74395934248913       11.64478565359657
H           35.26521633212622        6.16704012307901       11.99445158975385
H           36.91815293431002        5.95797249666127       11.92408363142253
C           32.68353962433036        0.04640448691209        7.43471060330948
H           32.99823684681015       -0.98413161850941        7.63659386182794
H           32.55185383784995        0.16653016920392        6.35306613973705
H           31.72807600016678        0.22560148675575        7.93532679879362
N           35.00023998942869        1.00082239089926        7.48063260036080
H           35.35702365450327        0.38030668923874        6.77535570142129
C           33.70971245073994        1.00415678617501        7.94368863915972
C           35.68722580153168        1.95020161931794        8.12553581367144
H           36.73053051814055        2.15872784408355        7.95383730942266
N           34.89991319233332        2.56804076018045        8.98275042599804
C           33.66755061340701        1.98293760056368        8.88841430670211
H           32.85532564676777        2.31243812451648        9.51000500862337
78
 energy: -116.041576847511 gnorm: 0.033764249461 xtb: 6.7.1 (edcfbbe)
Fe          35.44901700028477        4.21592552869024       10.26792431380160
N           37.37115251878451        3.99434761758750        9.72641012387994
N           35.19686467235275        5.59415412976218        8.80300474794150
N           33.56548819947611        4.60431627514165       10.93024959605486
N           35.73258813727348        2.97543068902181       11.82567945196019
C           38.27779424419357        3.14628623233872       10.28386047379005
C           39.51068292754883        3.15552981102281        9.52125379408290
C           39.32099596413497        4.02969724996947        8.49460394686055
C           37.97964508436827        4.55894238378877        8.64720296395586
C           36.11947386883003        5.97832735243794        7.87854135997335
C           35.56258559724031        6.96405092236194        6.97777109401491
C           34.27221218173387        7.17416699990080        7.38470481121098
C           34.06583308643063        6.29722677305702        8.53181200851481
C           32.67864746677509        5.49762764595152       10.40326596798127
C           31.50134795790964        5.60061632325223       11.22995860290210
C           31.70461563917603        4.76394961859925       12.30413352299916
C           32.99091352689259        4.11496707672125       12.05768924848226
C           34.82685882579678        2.64450148174536       12.78415885699058
C           35.43987505827090        1.79338723268619       13.78593474719296
C           36.74442416746841        1.65715198986831       13.42338954464580
C           36.89795644125930        2.36521496516605       12.16739468920914
C           38.06778444910973        2.38122488057378       11.42239788285229
H           38.87622891064630        1.74401019294066       11.75329337129305
C           37.42047245758342        5.49860401722256        7.79445988877592
H           38.04700502976530        5.88730973197237        7.00385521180564
C           32.88684783999742        6.25535436115578        9.25683971126690
H           32.07126579475025        6.88275462376353        8.92390176111829
C           33.53173043786395        3.12769039658273       12.87207514147899
H           32.91034055050899        2.72322827303788       13.65944546920562
C           40.24085649939983        4.36368567013800        7.36795935086637
H           41.16562106923347        3.79858748593794        7.44565092364276
H           40.48407608878461        5.42512290327956        7.35950077658530
H           39.77295438962408        4.11733986654363        6.41456349299880
C           40.71277040574476        2.31877971630895        9.81143042633217
H           40.57248808619440        1.30866716383432        9.42361763658700
H           40.89437863567305        2.24623306405267       10.88091423633865
H           41.59878040792539        2.74107639858285        9.34404830601803
C           36.27086543589654        7.56330679721894        5.80859228335169
H           36.87600325400035        6.81710003858191        5.29657356884871
H           36.93190017140465        8.37123664064593        6.12511262460967
H           35.55191166608699        7.96698920333707        5.09942555705302
C           33.25132471689646        8.05721754423897        6.85882047962906
H           32.23139115585225        7.69488576341020        6.93232725162795
C           33.47568926798200        9.24440410579996        6.33628407220980
H           34.46925806019379        9.65266040138513        6.27500281267121
H           32.68152956342586        9.86710712036316        5.96003076383738
C           30.31942762112505        6.45342025534782       10.90509213902224
H           30.10333145181334        6.41798337812882        9.83913652781350
H           30.49134097341189        7.49422377662567       11.18199684890157
H           29.43745066934889        6.09871750671116       11.42766536656523
C           30.94660983563084        4.53179093934560       13.50847091864868
H           31.35438320741646        3.77172835849729       14.16276269299491
C           29.85085091149267        5.15352297514194       13.91058063842528
H           29.39804119839695        5.94901601330254       13.35088782132772
H           29.36309273068927        4.89579784288083       14.83412181591691
C           34.75256947297034        1.21357812113948       14.97804691584933
H           33.90317650736458        0.60388045780973       14.67035872621193
H           34.38354426980043        1.99340752128013       15.64323889076853
H           35.43714680437338        0.57965236703792       15.53569741610291
C           37.84984095803962        1.01307296882323       14.19385845483378
H           37.92770950741490       -0.05023018631745       13.96988700214740
H           37.67651466989596        1.12333891412757       15.26259680453155
H           38.80138989921265        1.48340183341345       13.95839546860307
O           36.04162011228654        5.80207329296043       11.60668437833666
H           35.28703326614794        6.20485001421137       12.05069245764531
H           36.91785386660244        5.97404564388205       11.95816707708398
C           32.68794122430479        0.04978843560191        7.44110455512948
H           32.99274245539652       -0.97783933525696        7.63553046064605
H           32.55216289807838        0.16646950576431        6.36665813553583
H           31.73851827749507        0.22915580902856        7.93320537617053
N           34.99678998295994        0.99897518921725        7.48082150972304
H           35.35892398324066        0.37838542377772        6.77460765586667
C           33.70984248485378        1.00137707305644        7.94914056979473
C           35.67767346740106        1.96528317494438        8.13292251615162
H           36.71349746002053        2.17396148963089        7.96256036895597
N           34.90149042015768        2.58778936234090        8.98806280514894
C           33.67542950805589        1.99472333521698        8.88892578119777
H           32.86261299385625        2.32126388234841        9.50305503649970
78
 energy: -116.044790307174 gnorm: 0.053753312602 xtb: 6.7.1 (edcfbbe)
Fe          35.45223897863173        4.22325032067664       10.27495696544227
N           37.36139751635047        3.97757384732728        9.71453837221756
N           35.18979247918941        5.56712768512985        8.79015497764392
N           33.56818576292044        4.59491594614859       10.93161649743944
N           35.73855464064869        2.97625727290084       11.81800596042856
C           38.27203173125928        3.13884186199489       10.27177232084406
C           39.50471666060582        3.14554411143683        9.51256749366135
C           39.31477253937238        4.02212983908633        8.48779796884523
C           37.97145126896449        4.54030807800875        8.63865718575028
C           36.10983379927475        5.95879442680336        7.87093986115641
C           35.55982828820516        6.95365526229876        6.97946236125857
C           34.26916308079014        7.15858585833350        7.38686475010690
C           34.06421119997296        6.27349571683602        8.52404440701086
C           32.67852202876623        5.47976884304742       10.40259675119868
C           31.49898720370004        5.58253692055141       11.22198811433518
C           31.69676989942745        4.73906267503900       12.29252112094867
C           32.98898920408570        4.10501440097379       12.05340058733709
C           34.83505986940786        2.63923598166847       12.77318045081107
C           35.44383687163056        1.79194761610823       13.77722804821404
C           36.74911146119747        1.65585961834394       13.41730946965940
C           36.90120666531777        2.36970750464844       12.16633132753530
C           38.06716457209619        2.39223331416245       11.42058538441504
H           38.88360366107089        1.77439817167795       11.76368102365587
C           37.40782348125257        5.47857271614982        7.79170732255696
H           38.03567882215003        5.87333290850153        7.00769100070396
C           32.89364045567468        6.23497797365453        9.25856504163658
H           32.08862931893825        6.88144970329317        8.94106599431060
C           33.54542844688267        3.12886026595271       12.86674199696900
H           32.94194958922014        2.74218009628002       13.67524273576782
C           40.23867848804802        4.36790446022145        7.37272186367664
H           41.16567567934155        3.80797630902796        7.45172463934227
H           40.47608890167674        5.43000403901652        7.36975924078708
H           39.77796940012384        4.12641837015668        6.41535033871507
C           40.70667633278630        2.31945079783397        9.81114904164433
H           40.57512568987374        1.30464239089218        9.43341618790842
H           40.88635378778815        2.25784580603508       10.88099130289675
H           41.59166878460792        2.74217696655702        9.34393794497968
C           36.26792439501973        7.55565606345835        5.81758383688839
H           36.87418247034990        6.81151487316481        5.30551035594957
H           36.92750491744565        8.36364523201341        6.13449072182844
H           35.54922497754571        7.96112524693598        5.11037695008695
C           33.25834177228109        8.05143813171849        6.85447793287294
H           32.24031440760342        7.68869472527995        6.92757967272490
C           33.48261178396120        9.24567110103183        6.32577708999018
H           34.46957861307315        9.67158919184264        6.27959354751459
H           32.68527951563487        9.86428959294556        5.95202245240421
C           30.32937913379219        6.44253498799719       10.89019653914608
H           30.13425763586305        6.42640904876520        9.81971797353786
H           30.50202645223562        7.47804540851500       11.18575545334317
H           29.43472505655986        6.08683495950620       11.38972704908164
C           30.92608936921292        4.51683614118478       13.49436780920707
H           31.32891836569004        3.75077865394843       14.14274924545820
C           29.84573233059647        5.16192656148652       13.92220532230036
H           29.38922746505455        5.97515079742062       13.39019760829217
H           29.37068843149368        4.89798507193559       14.85039661195743
C           34.75349207830244        1.22267413150167       14.96783623487950
H           33.90237083109215        0.61608281990691       14.66216897345528
H           34.38630942138169        2.00647156528757       15.62858850241368
H           35.43320514206648        0.59040670523830       15.53190108608159
C           37.84671619693187        1.00138597553278       14.18246502911279
H           37.92329865743366       -0.06021877255494       13.95223538308121
H           37.67079581876312        1.10351057311850       15.25096252568632
H           38.80018880669193        1.47019697101413       13.95565832733064
O           36.04735273827603        5.91434438962553       11.53102921267014
H           35.30959140284381        6.21530849922850       12.13365095487416
H           36.91234390078164        5.97126583760953       12.01928418149675
C           32.69041581615802        0.05678070178216        7.45128637937781
H           32.99113115907070       -0.97218390947661        7.64277405282333
H           32.55381875146348        0.17274862190158        6.37731449592616
H           31.74115751182281        0.23733863756369        7.94112805102667
N           34.99724537594501        1.00698041067177        7.48867118995967
H           35.36210514397940        0.38645952404605        6.78300884226940
C           33.71094448368849        1.00806283084391        7.95933115000395
C           35.67303500188765        1.98184974618339        8.13988667614848
H           36.70619111282804        2.19500300413475        7.96808448566802
N           34.89887497426565        2.60396913193790        8.99373432951272
C           33.67581083239905        2.00765442042890        8.89388400074500
H           32.85978118726199        2.33474431854775        9.50212371106136
78
 energy: -116.046813297368 gnorm: 0.025070157941 xtb: 6.7.1 (edcfbbe)
Fe          35.45510962920736        4.22868847415315       10.27991053614154
N           37.35461773983356        3.96580208172766        9.70720063613689
N           35.18349803301538        5.54322816319302        8.78054431029308
N           33.57028120751007        4.58519155796447       10.93383282985960
N           35.74638238290543        2.98300691255663       11.81614805241616
C           38.26826369631078        3.13157792326938       10.26522187063761
C           39.49833628168326        3.13772589972769        9.50575992619135
C           39.30732958539685        4.01385164978926        8.48166923954497
C           37.96361003677659        4.52577443653014        8.62989409976395
C           36.10379361929743        5.93936972378393        7.86500999765351
C           35.55736516209107        6.94260188581104        6.98360026433302
C           34.26771472726560        7.14595848358056        7.39216126271109
C           34.06077334290172        6.25438008145165        8.52033984580804
C           32.67987853879223        5.46543173807367       10.40097196151427
C           31.49800701103359        5.56389795827346       11.21474500581477
C           31.69095727029536        4.71820335514770       12.28324246886437
C           32.98681041355925        4.09340563678209       12.05334948766317
C           34.84127195376679        2.63999602135552       12.76835287186740
C           35.44762119350780        1.79040059052584       13.76793466033472
C           36.75284825705182        1.65355645084214       13.41002401998597
C           36.90776885248921        2.37301436319826       12.16472045120570
C           38.07179851791862        2.39926602698930       11.42153499918504
H           38.89603275995434        1.79841955400468       11.77491644846636
C           37.39896216871502        5.46090974721999        7.78537645715314
H           38.02776010775170        5.86062116240371        7.00556833053426
C           32.89675005082155        6.22016756619681        9.26028553872053
H           32.10038323941487        6.88214764059877        8.95485620199448
C           33.55482431177293        3.13025193667163       12.86970145353395
H           32.96682183141011        2.75643216367361       13.69487390938392
C           40.23694178250965        4.37294270538436        7.37494742388440
H           41.16783985524891        3.81769676000452        7.45769284698803
H           40.46761328956935        5.43774236628358        7.38258403820731
H           39.78366068324492        4.13609839724048        6.41171881464819
C           40.70331212937757        2.31822863380907        9.81175228989802
H           40.57731607502242        1.29778825851892        9.44388099286735
H           40.88054944978072        2.26888458572936       10.88399260015063
H           41.58731628665771        2.74219366411788        9.34127799483436
C           36.26680892255584        7.54997223539140        5.82602847501950
H           36.87472570989333        6.80617142726030        5.31328364732143
H           36.92534052228799        8.35800550051022        6.14757768180385
H           35.54632430160953        7.95791302381770        5.12038434310095
C           33.26399108677619        8.04360681371266        6.85744649777206
H           32.24511720510181        7.68362760572804        6.92227779183277
C           33.49177150497703        9.24894492407395        6.32395295771953
H           34.47611911230580        9.68348343852169        6.28390500895409
H           32.68934388251613        9.85858643959579        5.94365967769304
C           30.33569499371965        6.43073930741540       10.87730655676946
H           30.16281495173359        6.43465015707818        9.80057026674494
H           30.51134279928056        7.46136136981928       11.19377833938354
H           29.42979647552467        6.07024281343760       11.35721775952421
C           30.91168114850919        4.50069393988244       13.48053512184472
H           31.29744985604114        3.71865179771129       14.12081123229896
C           29.84161669148879        5.17036681493113       13.92920515639145
H           29.38749641464855        6.00101670495672       13.41763672791635
H           29.37832122606175        4.89890443443307       14.86338928618451
C           34.75245553733698        1.22830029385233       14.95880297325993
H           33.89800762338695        0.62519625581866       14.65273271573282
H           34.38785391070763        2.01959867575782       15.61426803061299
H           35.42891204138249        0.59593561485083       15.52873834795104
C           37.84569578012233        0.98491201654861       14.17095961632577
H           37.91727450005782       -0.07566488964868       13.92866223126342
H           37.66517753642168        1.07602479048387       15.24096394684207
H           38.80300220784351        1.45222775465898       13.95183176351989
O           36.04539407452179        5.90893443403226       11.59010769731494
H           35.33475305008159        6.28998516750384       12.09681252954196
H           36.89791124677756        6.02440395509950       12.02033533119045
C           32.69095393915683        0.06664163315895        7.46079279051045