87
 energy: -128.467177624416 gnorm: 0.000038506516 xtb: 6.7.1 (edcfbbe)
Fe          11.70503484406614        2.18995003925878       -2.25883567759074
N           12.31162888998415        3.28610871579003       -3.82403379089301
N           13.37783966533664        2.67590331646339       -1.26737785577766
N           11.08532989343697        1.09872461139728       -0.69097976513320
N           10.03994661336741        1.69002445840128       -3.25819291964547
C           11.66368846602410        3.45133658782923       -5.00438353535964
C           12.41658590595746        4.31952351545492       -5.88465370855232
C           13.53606341337237        4.67765551122025       -5.20186232569051
C           13.45282690490328        4.01908212065970       -3.91575199550910
C           14.37641839245240        3.48882439154682       -1.70303523149034
C           15.41686295491183        3.59486138767241       -0.71393233580368
C           15.04020509294332        2.79408928636770        0.33019005719637
C           13.74602059453343        2.24770296494043       -0.03343645383868
C           11.73135981449840        0.94613876793553        0.49701784791291
C           10.95649645785053        0.13692950088661        1.40105058151909
C            9.81281969972515       -0.20751012796830        0.72713614242615
C            9.92486058243240        0.40400123535542       -0.58292983019984
C            9.02513120852080        0.90253679410954       -2.81393129102805
C            8.00081607248130        0.76837969065795       -3.82626710277376
C            8.42520662984776        1.49515086681915       -4.89479157728468
C            9.70022691879285        2.06485718557785       -4.51829762168451
C           10.44951114972643        2.88363543171063       -5.34199884524510
H           10.05307708229734        3.10075776085934       -6.32244519428642
C           14.41780072027647        4.12779245255307       -2.93271536314864
H           15.27520398947881        4.75100831754698       -3.13999019990344
C           12.96957664824221        1.47931580162439        0.81093580870022
H           13.35470956855347        1.29622168501783        1.80204126471510
C            8.95548788059794        0.30699960911541       -1.56716862180347
H            8.07266698069052       -0.27417444987354       -1.34527593219077
C           14.66228144130955        5.55809553358625       -5.62552013804066
H           14.49994133662487        5.93714270193116       -6.63164264261399
H           15.60454519073815        5.00923234017883       -5.61435182477836
H           14.75994335175210        6.40914237164490       -4.95071429319547
C           11.98550055685237        4.70392584205867       -7.25883743598698
H           11.02775684125079        5.22421756882489       -7.22859613669524
H           11.86923754054975        3.81921332029237       -7.88543208256674
H           12.71658997531317        5.35991475211061       -7.72549329085235
C           16.66933329150796        4.38771579764525       -0.86857453678022
H           16.44013855694475        5.43023390787411       -1.09189465497825
H           17.27617845663262        3.99455785390189       -1.68536692626544
H           17.26147299160750        4.34904707897026        0.04240675641561
C           15.79072370420443        2.54021214126009        1.54251194457079
H           16.32410865146966        3.39519532475699        1.94545793239391
C           15.90520389610700        1.36590941793633        2.15268846730040
H           15.44267724618598        0.47420886937136        1.76462047990550
H           16.48832444259876        1.25096456365902        3.05169516679830
C           11.38940952032712       -0.28677230552879        2.76148731424693
H           11.17210185749656        0.48817526757758        3.49864186407519
H           12.46108464495690       -0.47773656574346        2.78314142927339
H           10.86714410788277       -1.19563783147895        3.05450233367755
C            8.70547093452368       -1.02838776616007        1.16130142599873
H            8.21698262174989       -1.60497558214934        0.38349927768614
C            8.24733591395944       -1.11947335611142        2.40635883368386
H            8.65758054943817       -0.53699387155820        3.21249218392837
H            7.42345652704096       -1.76725713370722        2.65717745984402
C            6.75122472975523       -0.02849031776954       -3.66079092124949
H            6.16536383109544        0.34407144283738       -2.81977095883066
H            6.98489114329961       -1.07650716017476       -3.46970204584777
H            6.13619008042292        0.02605239755823       -4.55582409039362
C            7.76359891652417        1.70842464965914       -6.21352815018215
H            7.56890056901484        2.76866283347015       -6.37748029104132
H            6.81720659000456        1.17507891682987       -6.26384637517981
H            8.40094259606931        1.35366259705604       -7.02391759670408
C           10.34049618862929        7.31246502172079       -0.44847779698960
H           10.21894130683846        7.45272415696369        0.62570782038542
H            9.53262222855691        7.84104516350496       -0.95466266401177
H           11.28641345954322        7.75047543939654       -0.75138063538779
N            9.25281486043353        5.05808278342400       -0.53795917120802
H            8.39230798254398        5.34259960756525       -0.09967822900092
C           10.32723270930285        5.86895666729485       -0.79697198807543
C            9.56340276122612        3.81631396918184       -0.97342598711091
H            8.90711288760295        2.97390863287999       -0.89933254088342
N           10.76642550416718        3.79122481009482       -1.49115910309680
C           11.25419677393487        5.06036474685661       -1.38921977607932
H           12.23264642058153        5.30520818457666       -1.74664442999717
C           15.34861665505131       -1.35836671153718       -4.60141490393451
H           15.08947024180969       -1.79884437007386       -5.56430014797923
H           15.77205637087540       -2.14091881484047       -3.97164018312392
H           16.10278141778668       -0.59391305810321       -4.76008826421549
N           13.03747314756138       -1.48213636986329       -3.64462909790735
H           12.91302032154075       -2.46777444981437       -3.80762435138945
C           14.15448119656267       -0.75252341442048       -3.95935170763177
C           12.14492185006837       -0.63913704541924       -3.07802656183479
H           11.17666780659486       -0.93527909621549       -2.73097717724322
N           12.62737519116725        0.57697698671239       -3.01508143634649
C           13.87630382101237        0.52281529051461       -3.55925233915920
H           14.48697325608462        1.39907884007611       -3.62619233303430
