87
 energy: -128.467848542042 gnorm: 0.000166341083 xtb: 6.7.1 (edcfbbe)
Fe          37.00258147359352       24.54075236107938       69.06437913652015
N           36.75100949388597       26.31209724502808       68.15863131030370
N           38.67752495293946       25.22654572555521       69.92461271267561
N           37.25882023570222       22.77366727563062       69.97584938102891
N           35.32639283033652       23.85913494604990       68.19857189984050
C           35.76341887334853       26.64991664916406       67.28772964111272
C           35.91890738973147       28.01830243543414       66.84473337329401
C           37.02245163494533       28.50016342619761       67.47690975391926
C           37.53017327708965       27.41638700414594       68.28923446764679
C           39.20265771640275       26.47452441453455       69.81647757523970
C           40.42755860768897       26.58175833457684       70.57870360337152
C           40.63231819522457       25.36206858960322       71.14412624242343
C           39.52409799103676       24.53085086696955       70.72670348129292
C           38.28720526822541       22.41167806490646       70.78150162109759
C           38.12300393753967       21.04493815555264       71.24028475728745
C           36.94646462543488       20.60388130314771       70.69382601001706
C           36.43197098795518       21.69584519712961       69.90726609881766
C           34.76255012038015       22.63689476160959       68.36860517088516
C           33.56487476330370       22.50819828638317       67.55997607243322
C           33.42313757722460       23.70337123613929       66.90481415640755
C           34.52990061307546       24.52604941912429       67.32056505934091
C           34.73284801238228       25.82456317919980       66.88209291080102
H           34.02645869570575       26.22689174711493       66.17139783156296
C           38.67030388789816       27.50759456200406       69.06736153797711
H           39.19272341439487       28.45258602410574       69.07786283503587
C           39.36023186957042       23.21593878967089       71.12096249298850
H           40.12461796670911       22.79037522276467       71.75361802916926
C           35.26750708414629       21.62407696905149       69.16172022525986
H           34.72291256933394       20.69204683549056       69.18407559846639
C           35.00600208103074       28.70243006099970       65.88465083286779
H           33.99092070081375       28.74468852987946       66.28140582311669
H           34.97468191375984       28.16531155792731       64.93637771432596
H           35.33892884408219       29.71932586314841       65.69088959898815
C           37.64193802519645       29.85392316717206       67.39519119141232
H           38.66140424225764       29.78875157599451       67.01328519511307
H           37.68100534504259       30.31750720890268       68.38122895359288
H           37.07093856576391       30.50222503902958       66.73476819299441
C           32.32208110519101       24.13528311823820       65.99919813330176
H           32.06329117578865       25.17874325705689       66.17410785500402
H           31.43754885348823       23.52433453625413       66.16893750674636
H           32.61522721956113       24.03253603205989       64.95293686839261
C           32.71796715215535       21.33745500586899       67.52033788615353
H           32.65685365041784       20.77304244344869       68.44404934489050
C           32.03579661405277       20.91043155811978       66.46206372536898
H           32.09550899701969       21.40015342319811       65.50585550711276
H           31.41128715385661       20.03356674885091       66.51052021900129
C           36.26132763032165       19.29793453684495       70.90154645640712
H           36.45705223654893       18.61730811622819       70.07094323395694
H           35.18364828427692       19.43603550440332       70.97657808117989
H           36.61675602979270       18.83135179543510       71.81824314629230
C           39.03522286586701       20.35624615751042       72.12504099517598
H           39.54920707818797       20.98125231954617       72.84663567504222
C           39.28960007305514       19.05131176422538       72.11298291424615
H           38.84873194794050       18.38771851352806       71.38990252830081
H           39.97389638697388       18.60427242127177       72.81529146364115
C           41.74277152725912       24.90427309298660       72.02711815818944
H           42.25699535892774       24.05061014989827       71.58485275587425
H           41.35838812866412       24.59866695471856       73.00081663039364
H           42.46866659163429       25.69919799502359       72.18112956883758
C           41.25390932975824       27.81895835821864       70.67613881937383
H           42.11785764431475       27.65805714482338       71.31653525980784
H           40.66777566015556       28.63936548009115       71.09097859773001
H           41.60986172387487       28.12363054162186       69.69119906635964
C           39.18245713366291       21.55431062348034       64.86851353441980
H           40.21521955051615       21.21952684318806       64.96684188320208
H           39.03628774645728       21.91407692622396       63.84995213289648
H           38.52484677125365       20.70709685271204       65.03614790355691
N           39.54432554720333       23.81942202520007       65.87434283333538
H           40.28318930134722       24.09196107745049       65.24722942738364
C           38.87749835823440       22.62186742297891       65.85462079340719
C           39.02975453156964       24.55707555792880       66.88427046250297
H           39.36000430240036       25.54352163165740       67.13648085256735
N           38.08019398308380       23.90085761153566       67.50362228869314
C           37.97344649666015       22.69569854901374       66.87496350960419
H           37.25795960723246       21.96741465274636       67.19589532039461
C           35.08903370980462       25.74695007481971       74.17727953095188
H           34.16846889164186       25.26494307208160       74.50664489476853
H           35.04990459637741       26.79512968950754       74.47415907032044
H           35.92769338438155       25.27433394092636       74.67888459787540
N           34.34144247721818       26.12244264013752       71.81641354201712
H           33.49406660101989       26.61088744003363       72.05487900640955
C           35.25449277056204       25.62011038451907       72.70698939165885
C           34.78694681296211       25.83956058951371       70.57117276480669
H           34.27306443020768       26.11383778340821       69.67311044222303
N           35.92371848397983       25.19035618168075       70.61925946216309
C           36.22776365726946       25.04642495477386       71.94053139538109
H           37.12054665270908       24.54319447463053       72.24846407405440
