77
 energy: -118.995334988331 gnorm: 0.000060498067 xtb: 6.7.1 (edcfbbe)
Fe           2.83781455803116        5.86456671112884        0.23115154185113
N            4.81914264100188        6.14326282404038        0.52034912187120
N            2.70818480126118        4.90986230429160        2.01515114015176
N            0.82863814355470        5.76951844479772        0.05660028319770
N            2.94663505337813        7.01214602288118       -1.42168786071676
C            5.68361168139794        6.78886071289912       -0.30428265819343
C            7.03211221446746        6.69714635243547        0.21054094089004
C            6.95659578228861        5.97184995329166        1.35980513022348
C            5.56152079136950        5.63290955854912        1.53720529139679
C            3.74706250190322        4.57748274943397        2.82519782759434
C            3.27548987239175        3.85487447482940        3.97998081553621
C            1.91425511163844        3.76547994423351        3.84990757523912
C            1.58485034594741        4.42127307083907        2.59903388122930
C           -0.03742566119989        5.15230089950923        0.90163801509746
C           -1.37527598736749        5.19782763710162        0.36699824948523
C           -1.28603163612876        5.81885274452905       -0.84942838202241
C            0.10694516365356        6.18842337421385       -1.01097370063240
C            1.91021600030811        7.32436944979598       -2.24031723843531
C            2.37559031056547        8.11379446507248       -3.36134587123493
C            3.71848271776662        8.25598543077446       -3.19876882393501
C            4.05855781892928        7.55280313033447       -1.97942416255398
C            5.34003729327610        7.45500441461938       -1.46801433335833
H            6.13575644622048        7.92686104608320       -2.02429729531951
C            5.07506196908307        4.90783932323872        2.60858420520129
H            5.79319691705328        4.57258352939857        3.34171001804397
C            0.30109688828950        4.54468962644269        2.09913260362200
H           -0.50307887671442        4.11534920924488        2.67749061189184
C            0.59207092116597        6.95000955954523       -2.05946295176261
H           -0.12150444404397        7.27267060117010       -2.80186384768310
C            8.04493158601744        5.56760897043745        2.29399850730711
H            9.00530330523938        5.94794209047274        1.95584000631922
H            8.10888615766396        4.48149186357414        2.35538204505087
H            7.85660951067776        5.95296439456574        3.29640471873898
C            8.22515857036519        7.29480273226884       -0.45168930039298
H            8.10313387386092        8.37227808041169       -0.56301773357993
H            8.36291417189551        6.86553313538001       -1.44375496185266
H            9.12469716171755        7.10903788549979        0.12953536302586
C            4.14377412582823        3.27797197704902        5.04281443981407
H            4.42499407315809        4.03696862353128        5.77501194085655
H            5.05607222411120        2.86948769099857        4.61180554417917
H            3.61611095518463        2.48023625751971        5.56095221175859
C            0.95322314820125        3.12667816370873        4.72337041183595
H            0.10795930873022        2.66392483630771        4.22863673130523
C            1.03249069869338        3.07723353644578        6.04875405348709
H            1.82563540651597        3.55824557617965        6.59439221997249
H            0.28647036694750        2.57136345400202        6.63851255137504
C           -2.57621100605947        4.60371551428862        1.01576282114097
H           -2.68685515642093        4.97357658089843        2.03522977542089
H           -2.48684322258933        3.51800890256199        1.05771060188529
H           -3.47401745119594        4.84851513763199        0.45402524107665
C           -2.36146987036536        6.04761861260792       -1.79494362354526
H           -3.31409238740735        6.32884199811988       -1.35856363878303
C           -2.26524169285751        5.89302286530719       -3.10985245780226
H           -1.35510507918231        5.55516059217241       -3.57513332132415
H           -3.10577846666878        6.06631696683698       -3.76131967900242
C            1.49536733249064        8.62256206370961       -4.44977495725775
H            0.69638275732122        9.24178813464017       -4.04181774085968
H            1.03848487529276        7.79097203949773       -4.98552700636430
H            2.06316803232650        9.21754339567108       -5.16055941088854
C            4.70556162065061        8.96295116293508       -4.06154325718574
H            4.21205840266071        9.43464179000408       -4.90734040429028
H            5.44572758792916        8.26064416785484       -4.44431441155339
H            5.22968118733827        9.73251418053449       -3.49457322325372
O            2.49510919695441        4.20218052114624       -1.66626072702868
O            3.10546537064647        4.41378958035700       -0.56031279240681
C            1.17605330743334       11.17004967521875        2.18844364253462
H            1.92322860497941       11.96336278980655        2.20885748775121
H            0.59731294941786       11.22359415798780        3.11048890816746
H            0.50959574778109       11.34121447443502        1.34886759846063
N            2.72042684068004        9.35743485901373        2.96549635672616
H            3.02195120307603        9.83542228984059        3.79927889996177
C            1.82221291682114        9.84135132258738        2.04821397785765
C            3.11567855150979        8.13708202608191        2.54510546320819
H            3.81803480094278        7.51846660960931        3.06531276957820
N            2.52718129164393        7.81799895807387        1.42334875106891
C            1.71903324106300        8.86460744480360        1.09847328973672
H            1.12292452945615        8.84268435269338        0.20966219109951
