78
 energy: -115.939634314914 gnorm: 0.260007735612 xtb: 6.7.1 (edcfbbe)
Fe          48.39700000000000       41.14000000000000        0.04500000000000
N           47.58500000000000       39.41500000000000       -0.77700000000000
N           50.13800000000000       40.03400000000000        0.49200000000000
N           49.53900000000000       42.91100000000000        0.15800000000000
N           46.96299999999999       42.27999999999999       -0.99700000000000
C           46.35100000000000       39.35099999999999       -1.39400000000000
C           46.04500000000000       37.95399999999999       -1.68600000000000
C           47.04600000000000       37.21700000000000       -1.16000000000000
C           48.04599999999999       38.11500000000000       -0.59700000000000
C           50.13700000000000       38.64900000000000        0.61300000000000
C           51.38900000000000       38.28599999999999        1.25800000000000
C           52.00800000000000       39.40600000000000        1.66500000000000
C           51.21400000000000       40.53000000000000        1.18900000000000
C           50.80299999999999       42.93400000000000        0.76500000000000
C           51.22000000000000       44.31699999999999        0.83900000000000
C           50.30299999999999       45.08900000000000        0.24100000000000
C           49.19100000000000       44.20699999999999       -0.15100000000000
C           46.91400000000000       43.67299999999999       -0.95400000000000
C           45.56200000000000       44.08700000000000       -1.35400000000000
C           44.81999999999999       42.82000000000000       -1.67700000000000
C           45.79800000000000       41.76500000000000       -1.54100000000000
C           45.50899999999999       40.41900000000000       -1.66400000000000
H           44.50700000000000       40.16900000000000       -2.01200000000000
C           49.24200000000000       37.76300000000000        0.04200000000000
H           49.48799999999999       36.70199999999999        0.09300000000000
C           51.52700000000000       41.87700000000000        1.30000000000000
H           52.42700000000000       42.13000000000000        1.86100000000000
C           47.94300000000000       44.54500000000000       -0.64800000000000
H           47.75300000000000       45.60500000000000       -0.81500000000000
C           47.22999999999999       35.70700000000000       -1.29700000000000
H           47.98299999999999       35.49499999999999       -2.08600000000000
H           46.26600000000000       35.23600000000000       -1.58400000000000
H           47.58800000000000       35.28400000000000       -0.33400000000000
C           44.78200000000000       37.46100000000000       -2.42300000000000
H           44.44299999999999       38.24000000000000       -3.13900000000000
H           43.96999999999999       37.26800000000000       -1.68900000000000
H           45.01400000000000       36.53099999999999       -2.98500000000000
C           51.83200000000000       36.83900000000000        1.49100000000000
H           52.25800000000000       36.42600000000000        0.55200000000000
H           50.95799999999999       36.22300000000000        1.79200000000000
H           52.61000000000000       36.80800000000000        2.28400000000000
C           53.36200000000000       39.46600000000000        2.39800000000000
H           54.05000000000000       38.61000000000000        2.33300000000000
C           53.75600000000000       40.52200000000000        3.12400000000000
H           53.05000000000000       41.33200000000000        3.36000000000000
H           54.79000000000000       40.59100000000000        3.49300000000000
C           52.56900000000000       44.79300000000000        1.35200000000000
H           53.33800000000000       44.01700000000000        1.15000000000000
H           52.51299999999999       44.96800000000000        2.44800000000000
H           52.85900000000000       45.73100000000000        0.83200000000000
C           50.38900000000000       46.63000000000000        0.16700000000000
H           50.89000000000000       47.23299999999999        0.93700000000000
C           49.82600000000000       47.20600000000000       -0.87800000000000
H           49.32500000000000       46.60000000000000       -1.64700000000000
H           49.85000000000000       48.30000000000000       -0.99300000000000
C           44.95000000000000       45.47599999999999       -1.26800000000000
H           45.30100000000000       46.09000000000000       -2.12500000000000
H           45.26400000000000       45.96600000000000       -0.32200000000000
H           43.84200000000000       45.40100000000000       -1.30800000000000
C           43.34499999999999       42.74000000000000       -2.16100000000000
H           43.09300000000000       43.65699999999999       -2.73500000000000
H           42.66600000000000       42.66500000000000       -1.28500000000000
H           43.21400000000000       41.85499999999999       -2.82000000000000
O           49.76400000000000       40.94400000000000       -2.31700000000000
H           49.43100000000000       40.15800000000000       -2.75000000000000
H           50.39100000000000       41.49100000000000       -2.63000000000000
C           45.38000000000000       42.56500000000000        4.70900000000000
H           45.92300000000000       42.66200000000000        5.67300000000000
H           44.45100000000000       41.98000000000000        4.87600000000000
H           45.12700000000000       43.57999999999999        4.33500000000000
N           46.73700000000000       40.57900000000000        3.90300000000000
H           46.55300000000000       40.02399999999999        4.71400000000000
C           46.25600000000000       41.85499999999999        3.70600000000000
C           47.46900000000000       40.21600000000000        2.86200000000000
H           47.97500000000000       39.25599999999999        2.76900000000000
N           47.47200000000000       41.20600000000000        1.98200000000000
C           46.72700000000000       42.24799999999999        2.49400000000000
H           46.60299999999999       43.17299999999999        1.94500000000000
78
 energy: -116.008175116005 gnorm: 0.112192852163 xtb: 6.7.1 (edcfbbe)
Fe          48.45492160234030       41.15642022449998       -0.06615192445900
N           47.56544197644491       39.41494138593412       -0.74165952073256
N           50.10534120605803       40.03253366024821        0.55467065208603
N           49.53942744034460       42.91461169676380        0.18684238762550
N           46.96803098958893       42.28111570803870       -0.99346939005251
C           46.35306897245439       39.35003793073428       -1.38334087844220
C           46.04017887334292       37.95772216113086       -1.68234311472927
C           47.06035985700625       37.21292694105481       -1.17726878152892
C           48.03299012047312       38.12708142174344       -0.59330910770794
C           50.15910286988141       38.65651916864908        0.59577136466786
C           51.38821409796097       38.27132658929020        1.27109726475272
C           52.02499156886824       39.40771003650904        1.67507731174415
C           51.21018669019482       40.52184049727246        1.19420347114434
C           50.78719511670923       42.94394099797151        0.77517988631491
C           51.23366417483565       44.31943934209313        0.83300444560185
C           50.28239712495687       45.10271515087801        0.26064336297131
C           49.18856898277384       44.19962098467114       -0.13600512641330
C           46.88694029480789       43.65446974607222       -0.95762629067456
C           45.53971582485514       44.05390663680063       -1.35071638480154
C           44.83908489221675       42.86173863569675       -1.68280799260010
C           45.78471456714266       41.78540670337053       -1.48137855484669
C           45.51334546910979       40.42616246292073       -1.65265853199062
H           44.52224793023935       40.17536111937482       -2.02029605881882
C           49.23548482312211       37.77940067619402        0.03227670939629
H           49.47380117959313       36.71997058812278        0.09164250116214
C           51.51341445533576       41.87630819012253        1.29056300024480
H           52.41883878533399       42.13356263538309        1.82616878828741
C           47.93229887982991       44.53090587458991       -0.64340089959832
H           47.73954710523586       45.58853115038517       -0.80076860881667
C           47.23291572706596       35.71857384641115       -1.29467614562993
H           47.97440942459576       35.49432873796048       -2.07202381771102
H           46.28573531046581       35.24384545424086       -1.57334237068910
H           47.58171253124553       35.28865342966674       -0.34896174731762
C           44.80042146602366       37.47165431032467       -2.41229857223708
H           44.45224453517296       38.22773875731947       -3.12484277588746
H           43.98818896158575       37.27090208786793       -1.70096767743537
H           45.01209839015235       36.55145603939003       -2.96985320712023
C           51.82784807894751       36.84595167757842        1.49142532340984
H           52.24953591714672       36.43144801704653        0.56659099724535
H           50.97442571662948       36.22835161657947        1.79101086921798
H           52.59384829219781       36.80342614906083        2.27244691694902
C           53.33989574070551       39.48098227215041        2.38593420627515
H           54.01757248149578       38.62872235167598        2.29892653608732
C           53.74686726196845       40.51436694217369        3.12250977155878
H           53.07381841161928       41.32605323477920        3.36680237782726
H           54.76303478930493       40.57543045210162        3.50391341735251
C           52.56666601390855       44.78655947899227        1.34959249934883
H           53.33400345006515       44.03017777101871        1.15462672879313
H           52.51831098337864       44.96579675032543        2.43159282751813
H           52.85612381747774       45.71549491581545        0.84667177919429
C           50.36267133650267       46.59668805326048        0.15459651549949
H           50.87869143394173       47.17786533732792        0.92237493552508
C           49.81867048708973       47.20761100596535       -0.88654647837380
H           49.33403720450143       46.62741856083924       -1.66018626764661
H           49.84818336197334       48.28799646821597       -0.99713563004781
C           44.96027084626826       45.44663256149496       -1.27504438230548
H           45.29882231326555       46.07415988926989       -2.11243184181847
H           45.25899507448997       45.94857853194003       -0.34397770451857
H           43.86561446913023       45.40154189053008       -1.30736405690097
C           43.38839446567212       42.75113740273754       -2.15345890391488
H           43.10450342857864       43.64221313036709       -2.72559770037101
H           42.69621865280379       42.66724764530808       -1.30191439611630
H           43.23182119555355       41.87617919270664       -2.79876965897101
O           49.72522542594913       40.93991226920195       -2.28026485167869
H           49.43122960146673       40.15972494246198       -2.74507904808598
H           50.39701830234119       41.49919830743831       -2.62728831444621
C           45.38900754116593       42.55817726025597        4.70269824783394
H           45.91316140155038       42.66154625323327        5.66107420310295
H           44.46462485216610       41.99274276172932        4.87417849222354
H           45.13241794921126       43.55745511226946        4.33819620314159
N           46.73306012199137       40.58650225805967        3.90532085323653
H           46.55011525858708       40.02657738700755        4.72089530125740
C           46.25639663189349       41.85626996617186        3.70229459114501
C           47.46927489680830       40.22968914257685        2.84059255930670
H           47.96905371019075       39.27750262398253        2.75466440452142
N           47.48981276912295       41.20400295172450        1.94578732846072
C           46.73899374252554       42.23044070626005        2.48001027769401
H           46.61052035304830       43.15284577866817        1.94235740571130
78
 energy: -116.033024743862 gnorm: 0.040824135389 xtb: 6.7.1 (edcfbbe)
Fe          48.51210271911416       41.16180224849356       -0.15870138177079
N           47.56303214755436       39.42691220305542       -0.72932564669342
N           50.08339005137442       40.03458273751027        0.57888113937171
N           49.53769349030753       42.90233633109789        0.19696470061511
N           46.97611844481256       42.27540579267527       -0.97274822314404
C           46.35584306001810       39.35632900661280       -1.36103954584888
C           46.04286744945086       37.97031907345818       -1.67529763515979
C           47.07600315405224       37.22081474819529       -1.18676379401456
C           48.02502653137935       38.14954139317997       -0.58850003253308
C           50.16120270377627       38.67325564805613        0.59768231600395
C           51.38107052130829       38.26897377838102        1.27118913066256
C           52.02635021194563       39.41589119776079        1.67673558231264
C           51.18776439157421       40.51968341718684        1.20543829982070
C           50.76575807702491       42.94766358710640        0.77950354440501
C           51.23281361448603       44.31619163641721        0.82914717008169
C           50.25513979803450       45.10077031834597        0.27169069465823
C           49.17657027100071       44.18031510837919       -0.11736693430929
C           46.87202277625977       43.63340161840897       -0.94987179839575
C           45.52811569774730       44.02355131825217       -1.34963130217570
C           44.86233020035228       42.88967149212110       -1.66981677317013
C           45.78774728002213       41.79405506423862       -1.43446144060212
C           45.52090886116547       40.43594647475158       -1.63640292390044
H           44.54213314740483       40.18822392151264       -2.03124044753047
C           49.22185340110651       37.80243492601013        0.03787260865059
H           49.45982857018353       36.74536108564435        0.08978752213932
C           51.49275827632661       41.87431609366524        1.28421052915812
H           52.41591015214227       42.13420214386105        1.78034092251882
C           47.91893271748256       44.51201886139290       -0.62620149717981
H           47.72288775902253       45.56712345276819       -0.77569336022141
C           47.24030336625283       35.73753811740472       -1.29148093277572
H           47.97497811468445       35.49472723182795       -2.06035266516138
H           46.30094891009512       35.26180050792923       -1.56293497392032
H           47.58025590115100       35.30384828462950       -0.35400082853208
C           44.82258052727378       37.48656123494607       -2.39915227889922
H           44.46808122142714       38.22791873596900       -3.11118574826204
H           44.00915150052917       37.27965361826013       -1.70124353052813
H           45.02548340862501       36.56997319202566       -2.95066121355010
C           51.81968156295024       36.85857964743052        1.48903463102335
H           52.23840871621886       36.43895001392091        0.57333723091592
H           50.98210386673682       36.23389475187406        1.79061365976757
H           52.58031265124184       36.80638179181382        2.26292381453301
C           53.30489185318716       39.49695037361947        2.36491240052898
H           53.97440239876600       38.64744011115513        2.24648338455037
C           53.73120593332526       40.50624172064256        3.12226252535604
H           53.09269431048212       41.33102976865410        3.37589454835331
H           54.73269947311640       40.54396251558620        3.52283475738408
C           52.55694220512851       44.77865064207628        1.34524477257038
H           53.32780173760899       44.03624942085375        1.15741322101369
H           52.51549097465594       44.96005614621759        2.41988637006925
H           52.85005054727535       45.70413525367949        0.85618634727761
C           50.32560785260365       46.54858985495244        0.13697330109052
H           50.85605661594533       47.10449146006005        0.90799258631218
C           49.80827853897723       47.20363636518998       -0.89853497595735
H           49.32991487222803       46.65570751912853       -1.68719374091437
H           49.85427543732784       48.27530846808420       -0.99653292248778
C           44.97270950247113       45.41821417928644       -1.28545916395448
H           45.31123038904400       46.04518155813513       -2.11291102126263
H           45.26830810634778       45.91840587573126       -0.36149388035173
H           43.88507325607522       45.39180800539161       -1.31228993234510
C           43.43611015012352       42.76233771588944       -2.13926342202749
H           43.13377712164598       43.63833037023542       -2.71237995331566
H           42.74021088574241       42.66920294023065       -1.29981059665331
H           43.27987916325223       41.89123294900277       -2.77601234178226
O           49.66437989831794       40.95831007349690       -2.23461510584318
H           49.44106305129975       40.16824234437752       -2.73347444232468
H           50.38056916060716       41.48747274423303       -2.59772888823567
C           45.39971194764674       42.55393480137477        4.68973176381979
H           45.91423185251259       42.65733820864861        5.64472227571830
H           44.47923247979834       41.99714525015465        4.86421046079946
H           45.13954654547920       43.54410266436128        4.33204937593421
N           46.73536787605911       40.59092071116042        3.89865736810148
H           46.55561010156903       40.02651096939914        4.71520321544467
C           46.26008690116738       41.85882078491850        3.69163532904225
C           47.47060010746632       40.24189678496558        2.81781618220621
H           47.96571795840188       39.29533960813135        2.73292429526507
N           47.49792853245140       41.20490009757747        1.92326639621358
C           46.74768176442592       42.21972112676093        2.46398381292937
H           46.61419527385021       43.14125881006677        1.93513710911520
78
 energy: -116.041132477212 gnorm: 0.031494638324 xtb: 6.7.1 (edcfbbe)
Fe          48.52372011398679       41.16419147508063       -0.18413097307265
N           47.56408439455146       39.44156253294840       -0.71616279396315
N           50.05534902694185       40.04329339118340        0.59471850143386
N           49.52788120885634       42.88387793204425        0.20216608717487
N           46.98557711219866       42.26821597018744       -0.95736568686877
C           46.36045622538293       39.36501626678066       -1.34539272139593
C           46.05220448261664       37.98371686878254       -1.66499481895617
C           47.08777631074805       37.23538979322889       -1.18457168812997
C           48.02833576728117       38.16725409345301       -0.58755060972261
C           50.14874188657105       38.68532507690021        0.60158637325551
C           51.36355480834543       38.27768189626046        1.27072031531746
C           52.00458885320047       39.42754056669639        1.67598347946081
C           51.16434499285091       40.52640667425445        1.21060763912869
C           50.75545608583720       42.94199448726273        0.77566998810853
C           51.21991880531702       44.30719176280763        0.82764856769436
C           50.23337835301717       45.08149547048013        0.26914442751347
C           49.16365151264466       44.15844178721735       -0.10740139684856
C           46.87654162552745       43.62242734503560       -0.92705405532075
C           45.53943141901101       44.02015612228247       -1.33085947006367
C           44.87505654569691       42.88046958506665       -1.65849637011315
C           45.79755668560688       41.78554044253050       -1.41084303325031
C           45.52542368839809       40.43882608612905       -1.62252403162544
H           44.55601243819750       40.19625573921665       -2.04038690163949
C           49.21765417819688       37.81529529923610        0.03636392383758
H           49.45071840385570       36.75951651532110        0.08779855608757
C           51.48708125302686       41.87295185461784        1.27229307769280
H           52.43056732571669       42.13189552924236        1.72954259441020
C           47.91017620379542       44.50064609474516       -0.60145188948329
H           47.70509750925598       45.55540216798977       -0.73034726585737
C           47.25292186037560       35.75494996542075       -1.28409546586118
H           47.98745626562346       35.50072687585106       -2.05009936961794
H           46.31104435982999       35.28232160833154       -1.55165004169722
H           47.58901121838021       35.32616296610141       -0.34293580111460
C           44.83746299025410       37.50124897824993       -2.38711556097544
H           44.48488085838559       38.24080300234590       -3.10163745411211
H           44.02451289641055       37.29410429482806       -1.68908445761571
H           45.04788298015131       36.58361433700941       -2.93282985926306
C           51.80714879111934       36.86953079774010        1.48527670010383
H           52.22446710347984       36.45005558719625        0.56849186689947
H           50.97448437089923       36.23894012833112        1.79028609039332
H           52.56997579379775       36.81760268591250        2.25753982781985
C           53.28128421203354       39.51007714419965        2.34565322662732
H           53.94378689594525       38.66134197425166        2.18956583896850
C           53.72015513993494       40.49564618733854        3.12949869521463
H           53.10173545038181       41.33137413965506        3.40383942987160
H           54.71265161699372       40.49259458222878        3.55506421844637
C           52.54263519655443       44.77137035410842        1.34232479058004
H           53.31883204074160       44.03347096575212        1.15457368389624
H           52.50229525505159       44.95003499859771        2.41772547136130
H           52.83547205178530       45.69974619054316        0.85813322407510
C           50.29049515836131       46.51809084928848        0.11686358016476
H           50.82619961795979       47.05380770609611        0.89550255922246
C           49.79032781321482       47.19751453932508       -0.91317524635842
H           49.31749403806605       46.67741427360716       -1.72813303940066
H           49.86285856463274       48.26878626263159       -0.99595749825516
C           44.99134628619058       45.41138590096448       -1.28917223556491
H           45.34212500812207       46.01869584172213       -2.12356734402984
H           45.28847422422474       45.90757838377125       -0.36631339484452
H           43.90439161995997       45.38509981825529       -1.32211016081535
C           43.46255162877308       42.75787067453659       -2.13204192850738
H           43.16844292382262       43.63728052372795       -2.70203182972875
H           42.77671695924537       42.66296690309126       -1.28740873615285
H           43.32630525890522       41.88577075622450       -2.76740416203393
O           49.57265038601859       41.00603686996490       -2.22508456720520
H           49.45678776705616       40.16595936155446       -2.70653287651189
H           50.36466301816899       41.47371562835474       -2.54381875808735
C           45.41136539954313       42.55114803323212        4.67221691832250
H           45.92675744441687       42.65287575312864        5.62686144621666
H           44.49134051523748       41.99384210835419        4.84724773063724
H           45.14989830936076       43.54091153152737        4.31488843118230
N           46.74472152729760       40.58989828663751        3.88129847520837
H           46.56794708519514       40.02467955898953        4.69750621473481
C           46.26881351689229       41.85874593114649        3.67361926594523
C           47.47665690476521       40.24457477402513        2.79607025592373
H           47.97002105037226       39.29907081216755        2.70384702314495
N           47.50100216681633       41.20745902031828        1.90935506448317
C           46.75325517515370       42.21916521990734        2.44556639737556
H           46.61595606746398       43.13995808647500        1.91767353612966
78
 energy: -116.045560868511 gnorm: 0.020492332259 xtb: 6.7.1 (edcfbbe)
Fe          48.51879108449535       41.16241760976446       -0.17234077072903
N           47.56826428795079       39.46157004600991       -0.70270266082399
N           50.03179156052736       40.05527160256336        0.59331255814107
N           49.51799300110677       42.85848202940929        0.20506275534183
N           46.99800599982358       42.25623875348512       -0.92606996682646
C           46.36787425346747       39.37720029632509       -1.33343301886876
C           46.06391780087824       37.99983393793983       -1.65492632329049
C           47.10032802109360       37.25426533323098       -1.18097674564584
C           48.03230521398983       38.18684966387735       -0.58271335535670
C           50.13217144470530       38.69877650657910        0.60661788949722
C           51.34447287599774       38.28985183658081        1.26684940717653
C           51.98201824197483       39.44038133447862        1.66694454411933
C           51.14393491049707       40.53431239279441        1.20721358115699
C           50.74993171150511       42.93267846869512        0.77141277665563
C           51.20601453251096       44.29651742717832        0.82324885463330
C           50.21177442996549       45.05759742625886        0.26342981287123
C           49.15148536929993       44.13207996582194       -0.09821931483869
C           46.88551032953778       43.60922071685408       -0.89728316233653
C           45.55750008091456       44.01276134865756       -1.30913668325270
C           44.89293763078168       42.86774762658701       -1.63769159046215
C           45.81405201948433       41.77747494130274       -1.38762923263588
C           45.53172018253482       40.44361019062464       -1.61324362735893
H           44.56927164949354       40.20785252168404       -2.04636821958579
C           49.21252307786479       37.82597176242427        0.04016692390956
H           49.44366160558549       36.77149291361423        0.08565445692716
C           51.48982822170753       41.86988942304728        1.25865257408979
H           52.44824959662106       42.12073208865951        1.68620610436106
C           47.90169159498227       44.49022989776755       -0.57080093374322
H           47.68958678153368       45.54512570272740       -0.67743489447695
C           47.26950253632385       35.77472276322092       -1.27233857034533
H           48.00698764432972       35.51248731955362       -2.03380790180252
H           46.32604244647735       35.30260401233971       -1.53809217813504
H           47.60223788447895       35.35490312300209       -0.32458997921330
C           44.85072875973092       37.51747019423785       -2.37557726345229
H           44.50276080556387       38.25619588043379       -3.09391814339341
H           44.03761394723256       37.31476214453500       -1.67599629894791
H           45.06760730168026       36.59723607928958       -2.91506523542293
C           51.78923979785386       36.88169872509939        1.48144951371549
H           52.20285764974078       36.46279410720624        0.56160349330403
H           50.95843038512111       36.24920767072827        1.79167719540530
H           52.55623922431030       36.83312177961862        2.25138328191047
C           53.25835594133728       39.51776901632545        2.33606897159818
H           53.91696529698351       38.67396397444689        2.14159849299417
C           53.69982351469990       40.47632560024334        3.15066078839169
H           53.09875359770504       41.32303360955760        3.43689170894890
H           54.69043481847637       40.44460001934837        3.57525450740376
C           52.52597981457996       44.76464374652760        1.33927463965807
H           53.30693591994044       44.03048503952785        1.14836283619326
H           52.48308686363045       44.93591425182561        2.41693494310379
H           52.81517799789480       45.69781822818395        0.85994168044518
C           50.25861823019413       46.49261659610104        0.09236966760340
H           50.78845993975122       47.01690363961912        0.88031650735956
C           49.77563408197945       47.18486344071846       -0.93498516098799
H           49.29100370015648       46.69375582754393       -1.76395866916642
H           49.86193211458058       48.25739176455210       -0.99468385692819
C           45.01778693832518       45.40304165716623       -1.29413629939843
H           45.38448694387563       45.98769791081445       -2.13796247599370
H           45.31331725358141       45.90759622082710       -0.37610479719066
H           43.93053022663317       45.38317149335337       -1.33759521528154
C           43.48979833403735       42.74831049288577       -2.12277069435461
H           43.20372489856766       43.63144300212758       -2.69078133262798
H           42.80362298565531       42.64958508532153       -1.27994046805093
H           43.36910286526368       41.87794548612454       -2.76179664445559
O           49.54110413260408       41.02747817175787       -2.20822214656113
H           49.43204722483998       40.19788440693245       -2.67492086645395
H           50.34329264098650       41.46176386667815       -2.53110420919251
C           45.42254488164721       42.54926285377143        4.65217124489326