78
 energy: -116.057025795138 gnorm: 0.000118585698 xtb: 6.7.1 (edcfbbe)
Fe          48.49399089120791       41.20470910017464       -0.19538562097169
N           47.55574730363494       39.51031735034629       -0.73997086449448
N           50.03107911728059       40.11164906382584        0.50933077802233
N           49.47961265626026       42.87546653743885        0.23772546843938
N           46.96498962145892       42.26948025987496       -0.89041926757002
C           46.31450855635858       39.40526479850054       -1.28537402166218
C           45.98679067140758       38.02211555256156       -1.54588727933308
C           47.06026877088424       37.29007804293124       -1.14133954022128
C           48.02493243889514       38.23533600283756       -0.62662846007624
C           50.14286109867633       38.75347110034682        0.50405667404660
C           51.33597166098944       38.33879721388023        1.19051553751671
C           51.93254207858575       39.48115060444825        1.65626609939153
C           51.11048053911272       40.57932223880821        1.19177509189492
C           50.70091113025819       42.97068079555092        0.82980220225015
C           51.12027017419094       44.34623534961029        0.91480977436764
C           50.12649404485327       45.08963929631167        0.33890123760780
C           49.09707575419391       44.14414135601083       -0.05062992363507
C           46.85857194054348       43.62304944813621       -0.89974091952332
C           45.55785386114159       44.03158164019974       -1.38637130567855
C           44.88495507052694       42.88773799304769       -1.67906016397890
C           45.78365774862111       41.79694342035813       -1.36512076818490
C           45.47091279619837       40.46534590626203       -1.56053415423277
H           44.49847999165701       40.23452210651907       -1.96770103473353
C           49.23163349324511       37.87370108217568       -0.05920352956131
H           49.46809384678514       36.82129858923641       -0.01826291171379
C           51.45263479924647       41.91264227131089        1.30792999811685
H           52.39276514617894       42.14370058600579        1.78374393299944
C           47.85285953431138       44.50844928172130       -0.53136586246244
H           47.64028779907630       45.56319942824911       -0.61122996497794
C           47.26737394298212       35.81442428097108       -1.18102273311922
H           48.16133615667949       35.56705204841326       -1.75404736063449
H           46.41744147997270       35.31725733365555       -1.64183208320759
H           47.39206195122949       35.41565808315898       -0.17361598812994
C           44.70438049551785       37.56183110176053       -2.14936618590681
H           44.56457676697298       38.00432058984408       -3.13587212481852
H           43.86041038382506       37.85631657890760       -1.52519067719983
H           44.69142413234727       36.47967070646103       -2.25419488843452
C           51.76325653838026       36.92480030628762        1.38627008563211
H           51.83319446540951       36.40751239408475        0.42895867824301
H           51.04533993347225       36.38686157619762        2.00700421716694
H           52.73281774875150       36.88274787128532        1.87601744109626
C           53.13705980628841       39.56787386612133        2.45509055289870
H           53.90793384865752       38.84366918849320        2.21346000106475
C           53.34005631020995       40.41486985585000        3.45789765199264
H           52.58681380089572       41.11710271502727        3.77275750971247
H           54.26239403265838       40.41880170002418        4.01489045058728
C           52.41829282510679       44.81023448089485        1.47905815943001
H           53.25205790305222       44.41424751273968        0.89849601053795
H           52.53443047767241       44.46905416728480        2.50816502846233
H           52.47696414036552       45.89561477244471        1.46259024186966
C           50.11194434867244       46.52505976920277        0.14692263107414
H           50.55895287453801       47.10479404197289        0.94778043516980
C           49.64514587221640       47.15657549898148       -0.92430500422754
H           49.24416093558362       46.62415296321768       -1.76979235318505
H           49.67408993413461       48.23089804308862       -1.00298983842448
C           45.12007979789608       45.44941555948441       -1.52236993441119
H           45.75781313229175       45.97963404063555       -2.22990544507183
H           45.18115522489850       45.96407294929180       -0.56330738185333
H           44.09417160035552       45.50586321145963       -1.87804422258987
C           43.50728343894792       42.71335628632082       -2.22021644283707
H           43.01709621785081       43.67549297681909       -2.34683390852984
H           42.90388086625791       42.10613529341601       -1.54509768855069
H           43.53651608794636       42.21408470372368       -3.18908502747818
O           49.50817357708949       41.10585139923278       -2.25111696351045
H           48.98789981659230       40.39823403093352       -2.64720384108856
H           50.35370187175944       40.72396920231041       -1.99192038985015
C           46.03518219949031       42.48266202844508        4.63790106033530
H           46.61929844134872       42.36757066482730        5.55087073907464
H           45.03348906626864       42.09495025066571        4.82315899231909
H           45.96122105506281       43.53974899120267        4.40287942555736
N           46.90705389960640       40.41534452700537        3.52563924867239
H           46.67560584308465       39.78940108601961        4.27940917149500
C           46.67744640254141       41.76617943181646        3.50703775498422
C           47.49941832865420       40.08453614940101        2.35613662444491
H           47.79484108504342       39.08995642000853        2.09340378225683
N           47.65840068151131       41.14267268201179        1.59912167562951
C           47.15192893815505       42.19681290739752        2.30119475567797
H           47.16319878601940       43.18662734451080        1.89358695604329
