78
 energy: -116.058077970174 gnorm: 0.000067536464 xtb: 6.7.1 (edcfbbe)
Fe         -12.04927110540671        1.93136828172322       -0.44134395241064
N          -12.64581029500382        0.18751551354630        0.36934858474366
N          -10.35283158977573        1.83924769010112        0.64507958528405
N          -11.42224378420596        3.62589729909792       -1.28315584342555
N          -13.70333032727058        1.97580507358754       -1.54956610804231
C          -13.81949979943353       -0.45938051582274        0.13959186017631
C          -13.90894153833950       -1.65731589057673        0.94276299131940
C          -12.75975913332625       -1.71916662224213        1.66877922680482
C          -11.98549858499108       -0.55508770254010        1.30203552052538
C           -9.99960129921425        0.87330739415042        1.54067170935740
C           -8.73951633657681        1.18587354012452        2.16081859237244
C           -8.33526024931038        2.38360071472982        1.62989909067406
C           -9.35902543087558        2.76590485774282        0.67860042125782
C          -10.27689083336475        4.30432987051925       -1.00120380570190
C          -10.18182127408580        5.50405931384384       -1.79530457544073
C          -11.30855801154482        5.54006153687497       -2.57181644907117
C          -12.06420213295613        4.34845119230176       -2.23338590933236
C          -14.04546600371759        2.92244024761683       -2.46049647097773
C          -15.33120658633797        2.62266826086871       -3.05467970010109
C          -15.75813249900557        1.47028688600786       -2.47505875705907
C          -14.72631436494912        1.08220104758626       -1.53653019141682
C          -14.79623152502790       -0.05051210844211       -0.74908892925700
H          -15.67825232274370       -0.66619107636118       -0.83632291678705
C          -10.75182621456681       -0.25035754589847        1.84413448445179
H          -10.35424400510713       -0.93035735100039        2.58202663931114
C           -9.32129938854972        3.92120678845812       -0.07750095092017
H           -8.47877690689447        4.58025702120563        0.06508769820166
C          -13.29157605488198        4.03322941216008       -2.78614317268226
H          -13.69599735333102        4.70818114744001       -3.52504410920826
C          -12.32029661048898       -2.74499350173177        2.65702289971852
H          -13.06714626809547       -3.52844623952614        2.75844372944870
H          -12.16246075919514       -2.29340251833620        3.63699642530684
H          -11.38269673063334       -3.20457957508893        2.34285940338676
C          -15.06512145270882       -2.59724031048812        0.92398607509992
H          -15.20699507812720       -3.01034747709714       -0.07495469414397
H          -15.98224966721631       -2.08132182233654        1.20887658409113
H          -14.90637759229694       -3.42112402358127        1.61552663608200
C           -8.01977922759358        0.31321749665882        3.12956590972481
H           -8.14637051236711       -0.73725149358349        2.87143395899475
H           -8.39721155180697        0.45902563517228        4.14331405110950
H           -6.95714015209547        0.54733252172144        3.12323855663077
C           -7.13153889875126        3.13960642218813        1.89467767144001
H           -6.73218684558350        3.69339860229204        1.05294536391540
C           -6.50399914742131        3.20823462949087        3.06434011797126
H           -6.87915326382370        2.71958319137311        3.94656915639229
H           -5.60066205902240        3.78274158616059        3.18552442505795
C           -9.02774986070585        6.44470793887924       -1.79356733492858
H           -8.08767917561664        5.90094095386710       -1.71255445840348
H           -9.09060792491831        7.13728273693400       -0.95246875029027
H           -9.01642882026899        7.02275244570879       -2.71527789700705
C          -11.70688799894092        6.51485966484800       -3.56314582565950
H          -12.25007122705174        6.12098376698532       -4.41434409961392
C          -11.46657218986917        7.82056054836506       -3.50054967368074
H          -10.97342933821846        8.27242912252748       -2.65752944459803
H          -11.78008385567582        8.48964441489573       -4.28476777426873
C          -15.99113096943897        3.45912731458026       -4.09649737023005
H          -15.36486665489971        3.52443529527604       -4.98637708764276
H          -16.16016440316514        4.47098415929953       -3.72711422147619
H          -16.95009362281669        3.03476345168260       -4.38357278696268
C          -17.01403233373960        0.70286409042328       -2.70911514982396
H          -16.78786482451223       -0.30280587560460       -3.06424357052307
H          -17.63560349430464        1.19596958145886       -3.45240535701657
H          -17.58746054936531        0.61455894677964       -1.78600842302049
O          -10.94971156820609        0.66686660336522       -2.00831162008604
H          -11.29678155449351       -0.20264874822676       -1.78090829413209
H          -10.05345905302129        0.71448190102248       -1.65819033138575
C          -14.99029361146528        5.61303131019724        2.53694387828901
H          -14.44303610431079        6.27387594694259        3.20905373073764
H          -15.88155776546718        5.26082405338557        3.05620129438211
H          -15.29714475078829        6.18095741137689        1.66434184368387
N          -13.60628092264796        3.57913296133259        3.00503223781386
H          -13.72653163030172        3.60258004954085        4.00430817608405
C          -14.14073022289853        4.47153406331018        2.11297472495891
C          -12.89161071586170        2.67356476531607        2.30013139980817
H          -12.36076129641492        1.85467313284778        2.73965406389725
N          -12.94123296766399        2.93786937275600        1.01722266601054
C          -13.71501671036027        4.05348613158038        0.88475645584067
H          -13.91135311456353        4.47775508825860       -0.07823183362924
