77
 energy: -118.880230870913 gnorm: 0.285658385899 xtb: 6.7.1 (edcfbbe)
Fe           5.46200000000000       21.91700000000000       86.80700000000000
N            4.18900000000000       21.50800000000000       85.26300000000001
N            6.58100000000000       20.28700000000000       86.36499999999999
N            6.67100000000000       22.29700000000000       88.46800000000000
N            4.23300000000000       23.51200000000000       87.40100000000000
C            3.04400000000000       22.21100000000000       84.92800000000000
C            2.40500000000000       21.52500000000000       83.81699999999999
C            3.15600000000000       20.46800000000000       83.50100000000000
C            4.29700000000000       20.43100000000000       84.40399999999998
C            6.35100000000000       19.43000000000000       85.30899999999998
C            7.40800000000000       18.44500000000000       85.29300000000001
C            8.23100000000000       18.70100000000000       86.32599999999999
C            7.73000000000000       19.87600000000000       87.01500000000000
C            7.76700000000000       21.54000000000000       88.83900000000000
C            8.25300000000000       22.05900000000000       90.10799999999999
C            7.47600000000000       23.09800000000000       90.46599999999999
C            6.46800000000000       23.25600000000000       89.43800000000000
C            4.47700000000000       24.34200000000000       88.49600000000000
C            3.47600000000000       25.38400000000000       88.52600000000000
C            2.57100000000000       25.12000000000000       87.31899999999999
C            3.11500000000000       23.93900000000000       86.68000000000001
C            2.59200000000000       23.35400000000000       85.54800000000000
H            1.73100000000000       23.84700000000000       85.09600000000000
C            5.30800000000000       19.49300000000000       84.40900000000001
H            5.28000000000000       18.73100000000000       83.63000000000000
C            8.29500000000000       20.47500000000000       88.12799999999999
H            9.24500000000000       20.07000000000000       88.47799999999998
C            5.48100000000000       24.21000000000000       89.42600000000000
H            5.49500000000000       24.93800000000000       90.23699999999999
C            2.84700000000000       19.46300000000000       82.36699999999999
H            3.32000000000000       19.81100000000000       81.42399999999999
H            1.74900000000000       19.39399999999999       82.21500000000000
H            3.25700000000000       18.46400000000000       82.62800000000000
C            1.09800000000000       21.93900000000000       83.09500000000000
H            0.89200000000000       23.01400000000000       83.28700000000001
H            0.24900000000000       21.33500000000000       83.48000000000000
H            1.20800000000000       21.78400000000000       82.00100000000000
C            7.47500000000000       17.31300000000000       84.24299999999998
H            8.05700000000000       17.65900000000000       83.36199999999999
H            6.44800000000000       17.04500000000000       83.91400000000000
H            7.97800000000000       16.42400000000000       84.68099999999998
C            9.51700000000000       17.96400000000000       86.76000000000001
H            9.92000000000000       18.12200000000000       87.77100000000000
C           10.17800000000000       17.12800000000000       85.95300000000000
H            9.81700000000000       16.93600000000000       84.93199999999999
H           11.09100000000000       16.62200000000000       86.30000000000000
C            9.46600000000000       21.47300000000000       90.84399999999999
H           10.18000000000000       21.05000000000000       90.10499999999999
H            9.13400000000000       20.66300000000000       91.52900000000000
H            9.97700000000000       22.27300000000000       91.42099999999999
C            7.52100000000000       24.02300000000000       91.70900000000000
H            6.89200000000000       24.92500000000000       91.73000000000000
C            8.28600000000000       23.79100000000000       92.77199999999999
H            8.93600000000000       22.90500000000000       92.80900000000000
H            8.27800000000000       24.48300000000000       93.62700000000000
C            3.34600000000000       26.52600000000000       89.55700000000000
H            4.26800000000000       27.14600000000000       89.54199999999999
H            3.21400000000000       26.10000000000000       90.57499999999999
H            2.47700000000000       27.16800000000000       89.29900000000001
C            1.33800000000000       25.94000000000000       86.87799999999999
H            1.62300000000000       26.62000000000000       86.04700000000000
H            0.96700000000000       26.54800000000000       87.73099999999999
H            0.53800000000000       25.25500000000000       86.52400000000000
O            4.51500000000000       20.91100000000000       87.92800000000000
O            3.95400000000000       21.55100000000000       89.13699999999999
C            8.32500000000000       26.29200000000000       84.61000000000000
H            7.62200000000000       27.00400000000000       84.12600000000000
H            9.21200000000000       26.15900000000000       83.95399999999999
H            8.63700000000000       26.70600000000000       85.59199999999998
N            7.13600000000000       24.22700000000000       83.76600000000001
H            7.17800000000000       24.49500000000000       82.80399999999999
C            7.64400000000000       24.97700000000000       84.80999999999999
C            6.59700000000000       23.12200000000000       84.23800000000000
H            6.12200000000000       22.35600000000000       83.62600000000000
N            6.73600000000000       23.11700000000000       85.55500000000001
C            7.38400000000000       24.26599999999999       85.93300000000001
H            7.60100000000000       24.47100000000000       86.97399999999999
77
 energy: -118.957123835516 gnorm: 0.143841677230 xtb: 6.7.1 (edcfbbe)
Fe           5.42109290640021       21.89192749165568       86.87276977501817
N            4.18870723518585       21.51183216364443       85.26325767548548
N            6.58464440928810       20.29020667568973       86.36644624762914
N            6.68600543562554       22.31046878555085       88.46432072212862
N            4.25492854099136       23.53707412120615       87.37111637313373
C            3.04964623971378       22.20769504943889       84.93020277628672
C            2.40039657274789       21.53815007146632       83.81096539583663
C            3.15652446393521       20.45974894528795       83.49438942290061
C            4.28868689439271       20.44123544110186       84.40867691991366
C            6.36358395826295       19.43522069623806       85.31906650095101
C            7.41213835922672       18.43302509896310       85.28987354659402
C            8.25458817585151       18.69710129418332       86.33072212372311
C            7.72512344721476       19.87644277464365       87.00821867170585
C            7.76246587601339       21.55561433820630       88.84414052796333
C            8.26498123698498       22.06383915430548       90.11296547929163
C            7.47118954291358       23.11336302556604       90.48027503156915
C            6.46963106261807       23.25554989797225       89.43061797130528
C            4.45230920015109       24.35060682467304       88.46366635505677
C            3.44103543871985       25.38272314223913       88.48925783423874
C            2.59301802053875       25.13536059156446       87.35688714722137
C            3.13328078772671       23.96267385652390       86.70110998027307
C            2.60137993739754       23.35992320807820       85.56039154633520
H            1.73482898765128       23.84103053470489       85.11419228838504
C            5.30958884812315       19.50291882371503       84.41662602345227
H            5.27801621830753       18.74246293620106       83.64136836603143
C            8.28529089142526       20.48231678027810       88.12643423906955
H            9.22465718785808       20.06792195035915       88.48160990551980
C            5.46905932698538       24.21348711199678       89.40599190004042
H            5.47855111756175       24.93102018937422       90.22163544036272
C            2.85743392357668       19.47042262618841       82.38161821554989
H            3.31584137470245       19.80520477898355       81.44125237787874
H            1.77524673927210       19.39509634067950       82.22416382880766
H            3.24987070018647       18.47829251323614       82.62534709643052
C            1.11479529630984       21.94372190664519       83.10856116326539
H            0.89341490874897       23.00075855786964       83.28563923013959
H            0.27005116772370       21.34657345525128       83.47580435490961
H            1.20890446138743       21.78588875757461       82.02709842172722
C            7.47190910067620       17.32417506961518       84.25548394852096
H            8.04602669517971       17.65423603325957       83.37826286143505
H            6.46542655211858       17.04912772650635       83.92329957339753
H            7.95427516096349       16.43573574719802       84.67541764339151
C            9.49818199812939       17.97043544393260       86.74440964154387
H            9.88623844724772       18.13613915452892       87.75023744414479
C           10.17106317637795       17.13603680213618       85.95478019763787
H            9.84634915089745       16.94067941195084       84.94221247852174
H           11.07187801332372       16.63308652220702       86.29677625786982
C            9.45903928901487       21.47684625469618       90.83071255739424
H           10.16974503952595       21.05271371725723       90.11362412695895
H            9.13956817313030       20.67991359111857       91.51575303320898
H            9.97745071420642       22.25439237523108       91.40026245484449
C            7.52773984806919       24.00198649379222       91.69063885001492
H            6.89815725133962       24.89286537105896       91.70062486969810
C            8.28328675344799       23.78642763668048       92.76323603276464
H            8.92015051121640       22.91688934365775       92.83424320126092
H            8.27639729099601       24.47084869470958       93.60789055057309
C            3.34219633579774       26.49849599795330       89.52358616635013
H            4.24869892831885       27.12350102840907       89.53137676986715
H            3.21436299026875       26.09820556376919       90.54044273070181
H            2.49096105432015       27.15138631788270       89.30108205234463
C            1.37260067058270       25.92446554536577       86.89706220271394
H            1.62716277879040       26.60271690490380       86.06790779930162
H            0.97720361604393       26.53317380351653       87.71806920026552
H            0.56847167613140       25.26366523757622       86.54218647123069
O            4.48384298781476       20.90134550083393       87.96054940848585
O            3.99121918539486       21.51177223021422       89.07819743956509
C            8.32231213615407       26.28961661311226       84.60671907855802
H            7.63553034482495       27.00045664786510       84.13023318941028
H            9.20288541335087       26.16869770703653       83.96378947804119
H            8.63342316769675       26.69762220011426       85.57314646863105
N            7.14355157745076       24.23847645596986       83.76385396261340
H            7.18428220930997       24.50488982048435       82.79565763539686
C            7.64611124169201       24.97914957710952       84.80722482123612
C            6.59672819962417       23.12278744142971       84.25509865095411
H            6.12978890089653       22.36328114023372       83.64745521236779
N            6.71095513498989       23.10690909871171       85.56997515429150
C            7.37386639905684       24.25280067932071       85.92777750324196
H            7.59305299390810       24.46114918739436       86.96006200511840
77
 energy: -118.980200568219 gnorm: 0.076972529577 xtb: 6.7.1 (edcfbbe)
Fe           5.39290710287366       21.87615978412043       86.92654660185471
N            4.17836875538770       21.50899859870846       85.27749007666972
N            6.58057646280186       20.28433676092293       86.37954047164433
N            6.68338773771919       22.31256670950798       88.46698290977506
N            4.26770375541271       23.54583424790754       87.35495089163106
C            3.05572617443151       22.20579384673607       84.93756329442689
C            2.40172507136991       21.55307951873413       83.81163458391642
C            3.16052496781591       20.45855001044862       83.49648605411596
C            4.27975504964936       20.45081771605890       84.42273096494746
C            6.36800344247756       19.43974246962221       85.33502752672759
C            7.41174180936951       18.43081872153338       85.28709070399655
C            8.27128762048770       18.70002759371934       86.33207352127211
C            7.71686230899012       19.87689427240831       87.00686767541916
C            7.75507832682006       21.57113444276665       88.84475030301003
C            8.27239788946313       22.06879606571906       90.10908446359568
C            7.46490244420099       23.12506650283580       90.48600595274540
C            6.46867731526929       23.25595813552488       89.41999457978406
C            4.44402979054669       24.35612866653404       88.43183583119591
C            3.41167814548778       25.37971516658583       88.45170992708374
C            2.61762628452161       25.14864119963244       87.38991033853175
C            3.15642105637876       23.97851116346523       86.71081600225602
C            2.61412001429286       23.36652408256510       85.57113373071007
H            1.73795013921204       23.83414358179515       85.13764294450324
C            5.30851359377180       19.51430572055464       84.43060995516083
H            5.27530728803500       18.75812832573081       83.65610275193781
C            8.27335616827153       20.48953085457768       88.12591101973847
H            9.20019392149841       20.06433297295450       88.48999929251943
C            5.46220017632717       24.21833514094923       89.38185293099266
H            5.45847444679840       24.92380370059457       90.20315068000649
C            2.87048247472072       19.48157460176821       82.40146381710082
H            3.31931977257953       19.80522981432779       81.46012997253776
H            1.79710758924496       19.40065858871203       82.23969703879837
H            3.25157584666544       18.49190838674026       82.63288447891571
C            1.13534059136147       21.95110900015663       83.12436880664869
H            0.89942256978167       22.99664030925981       83.29162701278440
H            0.29387037995282       21.35494787495855       83.48130777092797
H            1.21759763417458       21.78864449445326       82.04983777173780
C            7.46707611795983       17.33752090737072       84.27137071501288
H            8.03822204691171       17.65405477319756       83.39573891950437
H            6.47171007177467       17.06040580818616       83.93520129079833
H            7.93721597292391       16.44823201056277       84.68101662239337
C            9.47241529687511       17.98793484465189       86.72610499805737
H            9.84288137536750       18.15732514976230       87.73173898848417
C           10.16316485594722       17.15022140928130       85.95424788871894
H            9.87516592514026       16.94511073474729       84.94281027916588
H           11.04998149454654       16.64583689160906       86.30247623280881
C            9.45071423118858       21.48494522944397       90.81452331889345
H           10.15580847008141       21.05253493923382       90.11012771682030
H            9.13802641929592       20.69769829807216       91.50245556247091
H            9.97624327655540       22.24711834959299       91.38197899346457
C            7.53088679026223       23.97383409458614       91.66197637027446
H            6.90303757121755       24.85877463843463       91.65932860495934
C            8.27537757758891       23.77583192657185       92.75000349063784
H            8.90926510123526       22.91996593646650       92.85895944735053
H            8.26923620805414       24.46335061143473       93.58090651783199
C            3.33435541761265       26.47131705517988       89.48723082311371
H            4.23774466895386       27.08830485260423       89.50178516955862
H            3.21329761356274       26.07384633656937       90.49801595749406
H            2.49401901861677       27.13342527267404       89.29060785919285
C            1.40748034565682       25.91102753113172       86.91928621329761
H            1.65084044153589       26.58124114891810       86.08876080692188
H            0.99526256351027       26.52129497500105       87.71976794425308
H            0.61069085499947       25.25326260697532       86.56674186506753
O            4.46861349014008       20.91605208450912       87.98238374815887
O            4.01803247501713       21.44060181168374       89.01379518338864
C            8.32237683824734       26.28832540257192       84.60569678614905
H            7.64434753821290       26.99630323690169       84.13245029120350
H            9.19854771391063       26.17441659929715       83.97006935285648
H            8.63219000663431       26.69155956144201       85.56311317753014
N            7.15148154828135       24.24732090250282       83.75955352141968
H            7.19025083273282       24.50926414337751       82.78757137126469
C            7.64865349879954       24.98171227734074       84.80453234344782
C            6.59398443077439       23.12916120679979       84.26731320179559
H            6.13394669750202       22.37132122057196       83.66602011601914
N            6.69990048436015       23.10700710754158       85.57317152937377
C            7.36161098870741       24.24931918303735       85.92215938797084
H            7.58472961114181       24.45982988657253       86.94819474325460
77
 energy: -118.987193895339 gnorm: 0.019786538238 xtb: 6.7.1 (edcfbbe)
Fe           5.38494149439956       21.86855184036600       86.93605234469059
N            4.17514722511735       21.51205164614476       85.29253162389891
N            6.57126014096145       20.28482613292426       86.38994282408763
N            6.67792657927843       22.31299061397017       88.45887448887466
N            4.28533939288722       23.55339602899438       87.33889462449292
C            3.05887626801100       22.21038530958653       84.94557533803801
C            2.41150995571127       21.56245810550856       83.81969379411504
C            3.16733352754401       20.46848878697766       83.50874675134352
C            4.27823190404568       20.45625965797830       84.43835948940738
C            6.35973826715380       19.44596399292334       85.34301121652051
C            7.40293635423745       18.44317312825439       85.28663221770879
C            8.26347334033905       18.71264814457814       86.32521895624434
C            7.70887009506989       19.87942483227696       87.01028739306270
C            7.75016333313540       21.57148770523043       88.83671249637317
C            8.27282788715996       22.06919046630857       90.09228822046565
C            7.46636947249386       23.12105670887996       90.46987815251356
C            6.46980602763008       23.25776709798581       89.40911154963746
C            4.46265779024780       24.35759860243735       88.41900724241023
C            3.42984886685166       25.37832707956827       88.44737259874886
C            2.62460206131000       25.14550378152297       87.37277339068163
C            3.16944243736396       23.97955019482447       86.69634190100260
C            2.61715399518634       23.36929826869819       85.57240130138926
H            1.73035716555591       23.82914484811640       85.15482373332941
C            5.30242259745067       19.52089361009194       84.44320645522865
H            5.27005043725742       18.76961499543027       83.66597634372673
C            8.26413941548316       20.48685386194457       88.12778517672552
H            9.18066785982716       20.05217866256393       88.50380498421947
C            5.46700444010248       24.21959938752806       89.37095862393929
H            5.44749797036959       24.92119445928680       90.19375620119119
C            2.88413628853698       19.48741088414658       82.41711384919522
H            3.33565540427131       19.81000913179733       81.47618997564878
H            1.81035238183961       19.40657806396827       82.25736430449189
H            3.26603220532825       18.49814029970895       82.65399463425243
C            1.14626828168013       21.96383829851562       83.13596958464480
H            0.90810981686005       23.01003454826907       83.30465351804089
H            0.31031630206077       21.36264758252242       83.49792599577545
H            1.23040413317227       21.79806746800220       82.06219897656926
C            7.45217896542102       17.34357605926362       84.27947247911067
H            8.03285862123322       17.65119233746760       83.40622319300014
H            6.45403318119599       17.07655166997545       83.94206955913657
H            7.90755242407142       16.44997695646609       84.69953111205157
C            9.46135784945420       18.00229231436348       86.71973792389380
H            9.80861519319738       18.17633236866086       87.73199290323035
C           10.16851514207001       17.16633530721714       85.95912021533317
H            9.92290708902466       16.97479712889695       84.92914378226678
H           11.04358285226724       16.65925572511171       86.33145070502742
C            9.45364142548067       21.48668720161233       90.79210481898980
H           10.14714455682031       21.03842905798632       90.08449460115493
H            9.13631410698607       20.71123964634513       91.49252630799555
H            9.99488049057828       22.25034551741656       91.34440064036741
C            7.53068620893555       23.96456113674169       91.64441242498454
H            6.90200358457302       24.84729373209210       91.61996732422904
C            8.25972651219750       23.77432837942791       92.74499150646604
H            8.87471913332277       22.90519473413307       92.89620738909494
H            8.24544769650324       24.47745480692014       93.56170704870426
C            3.33451076714547       26.46034407238372       89.47484761394999
H            4.24159327989606       27.06770157672115       89.47796799964748
H            3.21211858258636       26.04039003444802       90.47394548547997
H            2.49028186693033       27.11589857614159       89.27366676469009
C            1.41830778405881       25.90608697939872       86.92374070600003
H            1.67183835917076       26.57009858234684       86.09383012198587
H            1.01567198821144       26.51278569981955       87.73140578866546
H            0.63368624947326       25.23152355242679       86.58333079634845
O            4.45374046365552       20.87019771127786       87.94199209126734
O            4.02574055669219       21.36913215013524       89.04828928505698
C            8.32426393695616       26.28735437237425       84.60586402892967
H            7.64917056114348       26.99878818687565       84.13086299457457
H            9.20304405362115       26.17563991126462       83.97173674357835
H            8.63369295674142       26.68965910446512       85.56471514256124
N            7.15272724880408       24.24685560450937       83.75861223060002
H            7.19738707958656       24.50630789965547       82.78617363624382
C            7.64706652661119       24.98200032856655       84.80480763237246
C            6.58838485583842       23.13319172029947       84.26870194660638
H            6.13051479847514       22.37184705842177       83.67118294882340
N            6.68724937044446       23.11543859851763       85.57403304249966
C            7.35164659585358       24.25448509333532       85.92277982793344
H            7.57232596884059       24.46582487868521       86.94852896446167
77
 energy: -118.989972058488 gnorm: 0.015857397109 xtb: 6.7.1 (edcfbbe)
Fe           5.37600506978069       21.85406709556273       86.94522470819021
N            4.17175865653982       21.51379523517510       85.30985772824957
N            6.56409137621147       20.28762267999746       86.39565787584611
N            6.66229552940566       22.30090658039570       88.45305510628553
N            4.29477038485725       23.53845580183200       87.33403062470842
C            3.06125810213131       22.21176265761736       84.95632296601401
C            2.42018729631029       21.57307619996992       83.82813145047817
C            3.17312854447977       20.47735368858798       83.52166361717468
C            4.27409957964871       20.46098024002278       84.45638835311614
C            6.34969067142996       19.45054544323262       85.35082272313113
C            7.39297346028562       18.45463287878084       85.28408625425668
C            8.25676285656580       18.72465827407559       86.31776077337368
C            7.70019671723415       19.88119297675179       87.01099313039634
C            7.73969735739911       21.56570422494194       88.82916230857849
C            8.27191896289861       22.06532697143897       90.07402495269228
C            7.46579975596881       23.11470360405319       90.45322369586032
C            6.46671835987108       23.25011939251902       89.39894719471661
C            4.47621363078507       24.34684013569557       88.40731650952316
C            3.44746107902399       25.36978756484426       88.43605170452366
C            2.64031335364526       25.13740497998306       87.36286405605921
C            3.18192941960807       23.97059015077148       86.69064485390899
C            2.61746853201879       23.36840291693730       85.57830694937049
H            1.72466380124641       23.82535391952041       85.17417688515540
C            5.29292490418990       19.52509875286451       84.45624126854000
H            5.25939985249028       18.77857968820186       83.67648859924455
C            8.25225594400915       20.47906714887279       88.13061356904380
H            9.15801688042101       20.03589649438593       88.51940308952409
C            5.46990688967301       24.21416725652726       89.36143463778048
H            5.43956760195452       24.91764799203881       90.18058568290772
C            2.90003662681247       19.49306319126236       82.43491220695878
H            3.35729046038170       19.81328836448677       81.49616132424006
H            1.82704022987620       19.40901691892782       82.27303993998719
H            3.28522507022835       18.50737928032959       82.68187198447372
C            1.15812863119461       21.98137688188735       83.14900090240009
H            0.92272138787707       23.02739504552638       83.32177513266048
H            0.32474444930128       21.37959548100037       83.51580815188628
H            1.24011677425435       21.81668548741367       82.07538033727774
C            7.43945980187903       17.34918607223839       84.28849816752084
H            8.02905453711772       17.64187771810760       83.41644769047470
H            6.43916498065274       17.09023745323001       83.94932490482313
H            7.88726754418675       16.45927442727266       84.72560351114771
C            9.44961687082107       18.01852491089477       86.71525668136694
H            9.76865221221331       18.18458451989945       87.73813455140882
C           10.17771045653588       17.19511279481072       85.96147770468014
H            9.96012596131129       17.00243386865301       84.92454831256556
H           11.03865354706584       16.68273085930199       86.35935834336620
C            9.45645361020178       21.49235673141736       90.76883838913157
H           10.13759459207523       21.02606706188079       90.05932205062916
H            9.13981417008943       20.73123480934064       91.48545187611747
H           10.00404366035301       22.26433641442306       91.30458772407258
C            7.53001861775445       23.95699020196781       91.62139787804543
H            6.91526453800342       24.84839602798898       91.57376331815615
C            8.23456582878791       23.76396844537024       92.73697200242692
H            8.84293979378991       22.89418720867210       92.91500882871763
H            8.21393900234845       24.48300273064057       93.53953655635465
C            3.34415995797349       26.44321269819291       89.46165567327340
H            4.24894531338557       27.05071797291544       89.46615076357757
H            3.21703773234483       26.01107654735674       90.45334804187273
H            2.49730454274577       27.09362375752511       89.25891749324254
C            1.43532642358811       25.89432078079901       86.92473335467395
H            1.68411051150640       26.55488627374314       86.09232680433368
H            1.04211293976482       26.50158202296648       87.73575027802778
H            0.65212242734334       25.21380753570559       86.59839952077604
O            4.44828586177222       20.84621477480631       87.92253565340641
O            4.03020510639045       21.31847753252903       89.04517851009285
C            8.32867317611452       26.28870678142075       84.60617620493852
H            7.65752259823844       27.00303253367063       84.12916466054575
H            9.20967500173425       26.17569842630652       83.97492470123112
H            8.63649349340617       26.68897418338481       85.56672635940193
N            7.15676905345508       24.24950840283189       83.75490279814784
H            7.20944006540790       24.50450204412807       82.78169320797349