77
 energy: -118.995671580488 gnorm: 0.000077861360 xtb: 6.7.1 (edcfbbe)
Fe           5.27950860722820       21.82220529199539       86.96468723820045
N            4.11249507905229       21.51146329141214       85.34312223383948
N            6.48737155892629       20.30026355657821       86.39027156196111
N            6.58455786278904       22.27831496644263       88.43728932752497
N            4.17912101621915       23.45307588422990       87.40797452120938
C            3.00329825878641       22.20924937344853       84.98730948767307
C            2.41290899867572       21.64098488634812       83.79553216767655
C            3.18893706706996       20.57699356596440       83.45170250925653
C            4.24679237807934       20.50887160742886       84.43597669013701
C            6.27506526347339       19.45314525012923       85.34961437227720
C            7.30270777616882       18.44335575619762       85.30287783617219
C            8.14986874957006       18.70651730701210       86.34728817918352
C            7.60864386570638       19.87055803509332       87.02207759456358
C            7.70590276925324       21.59066981375609       88.77910229124062
C            8.32152402621929       22.17912008047062       89.94286086654429
C            7.52598627841721       23.23275577503821       90.30934957924326
C            6.44353336304974       23.27407026883789       89.34460174584869
C            4.36139391595689       24.26298909499576       88.48125467084147
C            3.30118505406921       25.24655333763845       88.55491426607968
C            2.47987158740615       25.00430546742608       87.49832314120654
C            3.04293848806768       23.87009303941727       86.79563020490113
C            2.49274786045893       23.30698155511434       85.65861802197666
H            1.58757955919479       23.74966439895790       85.27139789523061
C            5.24230005840741       19.55025616434035       84.43109641463498
H            5.20866478385044       18.81034417783752       83.64559625718999
C            8.19138848294162       20.47180163845160       88.12295148281622
H            9.09304141223789       20.02373715437148       88.51228485887573
C            5.41002731095376       24.19385920233542       89.37903463346882
H            5.40911769697471       24.90630933697805       90.18985848562367
C            3.03756782885395       19.62728135131702       82.31339090977573
H            3.92840589697959       19.63218012567948       81.68490972262961
H            2.18267799616970       19.89522417401525       81.69800855455583
H            2.88919047809865       18.61263583909621       82.68238302636287
C            1.18440080452003       22.16547513629795       83.13619360246547
H            1.31833088113033       23.20840313379690       82.84896641349216
H            0.33499531756147       22.10813056346506       83.81646496836319
H            0.94773595139588       21.59077290201736       82.24444267488687
C            7.34977405129816       17.31375935356306       84.33428404390146
H            7.77835924498251       17.63088071711045       83.38189659756100
H            6.34868527929225       16.93100848729377       84.14398272911055
H            7.96065153502120       16.50727254309315       84.73383324030182
C            9.33455927241431       17.98818080339309       86.76601356915988
H            9.50808245970065       17.95682934973278       87.83481640151273
C           10.19804318868661       17.38934150314710       85.95294321414499
H           10.09847942262398       17.42726742520569       84.88202504737701
H           11.05425438465780       16.85822350291676       86.33381800293213
C            9.60023021173403       21.72711514608213       90.55494719613671
H           10.30797137901988       21.41784995827897       89.78730094391472
H            9.43014667996388       20.87927908613192       91.21978091670205
H           10.04266199000962       22.53467215106027       91.13464360872247
C            7.69196499499306       24.16847042415312       91.40083778946202
H            7.35058833500158       25.17885000256517       91.20774693928622
C            8.20875133796610       23.87850550941472       92.58996952932256
H            8.51474828441602       22.88154360785103       92.85334466956890
H            8.31147579829463       24.62839920790383       93.35652462394948
C            3.19482693667070       26.28633680321463       89.61593237366225
H            4.07340231207429       26.93207280546606       89.61299463072622
H            3.12109809332096       25.81761471170157       90.59670257723899
H            2.31418574084857       26.90517354439667       89.46416301916281
C            1.23068505595327       25.70582659791621       87.09134111261660
H            1.32062156501217       26.09236417398368       86.07600589670746
H            1.01906262525016       26.53747290155180       87.75839470266722
H            0.38469579359061       25.01947838438323       87.11923210878180
O            4.37156501512237       20.76916356739647       87.89686194931527
O            4.00931830152061       21.14699449779707       89.06562513501832
C            8.48786828731907       26.16419861512405       84.59970266423852
H            8.09476070754147       26.68202097962151       83.72482266698279
H            9.55060217721863       25.98299811783014       84.43925363826204
H            8.37172861800180       26.80752396343544       85.46631045095636
N            7.73718426874906       23.88065926705404       83.89538429591816
H            8.19004689359365       23.90119419117008       82.99589506134009
C            7.76447009022591       24.88826680484924       84.82615073387227
C            7.00184664281407       22.87131767376528       84.40791053194397
H            6.80746482770108       21.94876158916556       83.90023661357621
N            6.56245955805451       23.17432323566617       85.60025705520687
C            7.02605562320077       24.42414343083373       85.87778832224690
H            6.79783873224481       24.90003286087320       86.80896698855324
