87
 energy: -128.429344958067 gnorm: 0.206975507066 xtb: 6.7.1 (edcfbbe)
Fe          25.76400000000000        1.40700000000000        6.93400000000000
N           26.26300000000000        2.62700000000000        8.43200000000000
N           23.84800000000000        1.57800000000000        7.39700000000000
N           25.26400000000000        0.16200000000000        5.41800000000000
N           27.64200000000000        1.24600000000000        6.40300000000000
C           27.51500000000000        2.97900000000000        8.82300000000000
C           27.43800000000000        3.83900000000000       10.02300000000000
C           26.14200000000000        4.00600000000000       10.30700000000000
C           25.38800000000000        3.21100000000000        9.33400000000000
C           23.31400000000000        2.35300000000000        8.46400000000000
C           21.86799999999999        2.32500000000000        8.38400000000000
C           21.52700000000000        1.59500000000000        7.31300000000000
C           22.74100000000000        1.13100000000000        6.73100000000000
C           23.97400000000000       -0.21200000000000        5.06200000000000
C           24.06300000000000       -1.21700000000000        4.00900000000000
C           25.38000000000000       -1.38300000000000        3.72600000000000
C           26.11900000000000       -0.50200000000000        4.60600000000000
C           28.20100000000000        0.52500000000000        5.36500000000000
C           29.60100000000000        0.73600000000000        5.26000000000000
C           29.95500000000000        1.60800000000000        6.30300000000000
C           28.72900000000000        1.87200000000000        7.01900000000000
C           28.63900000000000        2.65200000000000        8.13500000000000
H           29.57500000000000        3.05800000000000        8.51700000000000
C           24.01800000000000        3.12500000000000        9.33600000000000
H           23.46500000000000        3.70500000000000       10.07500000000000
C           22.83400000000000        0.26500000000000        5.65000000000000
H           21.89100000000000       -0.07400000000000        5.22100000000000
C           27.48700000000000       -0.34300000000000        4.58600000000000
H           28.05000000000000       -0.96300000000000        3.88800000000000
C           25.52700000000000        4.82700000000000       11.41300000000000
H           26.33200000000000        5.31100000000000       12.00700000000000
H           24.93200000000000        4.16900000000000       12.08200000000000
H           24.87600000000000        5.61500000000000       10.97800000000000
C           28.65600000000000        4.39900000000000       10.74800000000000
H           28.92500000000000        5.38500000000000       10.31300000000000
H           29.51600000000000        3.70600000000000       10.62800000000000
H           28.42300000000000        4.53200000000000       11.82600000000000
C           20.98400000000000        2.96800000000000        9.41400000000000
H           20.77900000000000        4.02000000000000        9.12200000000000
H           21.49200000000000        2.96100000000000       10.40200000000000
H           20.02100000000000        2.41800000000000        9.47900000000000
C           20.19800000000000        1.26100000000000        6.78400000000000
H           20.13500000000000        0.36000000000000        6.16000000000000
C           19.06000000000000        1.88400000000000        6.94600000000000
H           19.00600000000000        2.80000000000000        7.55300000000000
H           18.14200000000000        1.50000000000000        6.47700000000000
C           22.88400000000000       -1.86000000000000        3.43700000000000
H           22.41900000000000       -1.18300000000000        2.68800000000000
H           22.14500000000000       -2.07100000000000        4.23900000000000
H           23.17900000000000       -2.80500000000000        2.93400000000000
C           26.01500000000000       -2.33000000000000        2.77700000000000
H           27.02000000000000       -2.68700000000000        3.03700000000000
C           25.54300000000000       -2.80500000000000        1.66400000000000
H           24.54300000000000       -2.51200000000000        1.31100000000000
H           26.13700000000000       -3.50700000000000        1.06000000000000
C           30.50800000000000        0.18600000000000        4.16900000000000
H           30.06800000000000        0.40900000000000        3.17400000000000
H           30.60500000000000       -0.91500000000000        4.28100000000000
H           31.50800000000000        0.66500000000000        4.23600000000000
C           31.32000000000000        2.09300000000000        6.63300000000000
H           31.52400000000000        3.03300000000000        6.07700000000000
H           32.07100000000000        1.33000000000000        6.33800000000000
H           31.39300000000000        2.29600000000000        7.72300000000000
C           24.34000000000000        6.24900000000000        4.52600000000000
H           23.67899999999999        6.21500000000000        3.63400000000000
H           25.16900000000000        6.96300000000000        4.33300000000000
H           23.74500000000000        6.58600000000000        5.40200000000000
N           25.66300000000000        4.21100000000000        3.88200000000000
H           25.90000000000000        4.54300000000000        2.96900000000000
C           24.89500000000000        4.89000000000000        4.78600000000000
C           26.03300000000000        3.05100000000000        4.42200000000000
H           26.63900000000000        2.31000000000000        3.90100000000000
N           25.55800000000000        2.94500000000000        5.66300000000000
C           24.87000000000000        4.11600000000000        5.90400000000000
H           24.41600000000000        4.29500000000000        6.87100000000000
C           25.71100000000000       -2.20600000000000       11.22400000000000
H           26.69200000000000       -2.35900000000000       11.72300000000000
H           25.22500000000000       -3.19400000000000       11.07500000000000
H           25.07500000000000       -1.56300000000000       11.87000000000000
N           26.68200000000000       -2.12400000000000        8.92100000000000
H           27.14000000000000       -3.01100000000000        8.97100000000000
C           25.91800000000000       -1.55300000000000        9.92300000000000
C           26.68500000000000       -1.26600000000000        7.88900000000000
H           27.21900000000000       -1.46500000000000        6.96000000000000
N           25.97700000000000       -0.18100000000000        8.14100000000000
C           25.54900000000000       -0.33200000000000        9.44100000000000
H           25.00200000000000        0.46800000000000        9.92400000000000
87
 energy: -128.458658249940 gnorm: 0.083536680785 xtb: 6.7.1 (edcfbbe)
Fe          25.76193247847904        1.40763322978151        6.93161397615594
N           26.25523017326402        2.62406781716069        8.44725376774130
N           23.83647369450814        1.59617145033673        7.40229134318938
N           25.26802653142251        0.16346994246328        5.42269238055382
N           27.65951676434729        1.24694737512945        6.41105834978357
C           27.50748034029220        2.98846569936971        8.82692580939372
C           27.45291691480066        3.83611991387788       10.01713372222908
C           26.14509037103399        4.00135481756108       10.30843139942330
C           25.39870992783712        3.21957981018686        9.33414862237617
C           23.30546682912511        2.35666557187060        8.44110309315829
C           21.86444652954108        2.32373541712171        8.39091531336143
C           21.51930335392784        1.57906133148406        7.30524300229556
C           22.75452369040389        1.12103048058136        6.72541180150045
C           23.99817073241750       -0.22142742672636        5.06876174648729
C           24.06616881316529       -1.21018921897664        4.01002825112462
C           25.38723893500589       -1.39553925792262        3.72812568005852
C           26.11738404819644       -0.51163362755517        4.61346267447906
C           28.20167153003639        0.52920578602203        5.37500043706933
C           29.60898656063370        0.74679127152708        5.26586024756035
C           29.95180723765732        1.59099144314836        6.29647517857239
C           28.73039547597314        1.87607232039304        7.00611803956938
C           28.64911042550389        2.66019272538719        8.13652162949472
H           29.58176339680016        3.06059150051281        8.51831851262137
C           24.02420856644654        3.12157120047355        9.33074505621303
H           23.47658394801331        3.69346183243901       10.07087786057999
C           22.84464875848859        0.25756716832356        5.64438173594002
H           21.90665639388072       -0.07816162397806        5.21427030999988
C           27.48719862839430       -0.34545242494572        4.58208295756872
H           28.04695019866811       -0.94770876177262        3.87510887960509
C           25.53157790057893        4.81659521806530       11.40583341562426
H           26.31239103961523        5.30293247385417       11.99770210850515
H           24.93478258962561        4.18476562625487       12.07235010714731
H           24.88380109445011        5.59618837428231       10.99084931522146
C           28.64985245736827        4.39487337739181       10.73513582853450
H           28.92649832066371        5.36998200726789       10.31866315832016
H           29.50369433316218        3.72035241153465       10.63530156551816
H           28.43201487453679        4.52675038456420       11.79940418747649
C           20.98433816386688        2.96892098711853        9.41144695505390
H           20.77337109182242        4.00896701948396        9.13542035869980
H           21.47065329519905        2.96461190219678       10.39106138819253
H           20.03597358641544        2.42979794314660        9.48653874896443
C           20.20316852680625        1.24426536989585        6.78377142040988
H           20.15764431057014        0.35413862010181        6.15912524959463
C           19.05691143775256        1.88844696414885        6.95529006148161
H           18.99394984307396        2.80093499520189        7.53467274519284
H           18.14531839345215        1.52371018543977        6.49733562229908
C           22.87598319798016       -1.86307821595307        3.43154300372056
H           22.40585035889253       -1.20501902039189        2.68991667209304
H           22.14135247773761       -2.07705693461121        4.21413266060257
H           23.15398076299212       -2.79914542134110        2.93997347805645
C           26.01866542083220       -2.32706785755179        2.79408860824002
H           27.01927418969868       -2.66362259093718        3.06452268104495
C           25.53083610846512       -2.80657094962261        1.66033437260034
H           24.55718037956425       -2.51248302498948        1.28880628472945
H           26.10675346059476       -3.49930296232158        1.05764917809568
C           30.49725902251107        0.19396725791191        4.18491038153966
H           30.07522180411091        0.40426911936044        3.19590322072647
H           30.60514847719363       -0.89258540058918        4.28066773859769
H           31.48879132444608        0.65042112473198        4.23614118201267
C           31.31306235816985        2.09101012958857        6.63024075401498
H           31.52900095273217        3.02151822282179        6.09017560756695
H           32.06789544072426        1.35056213997634        6.34963306812510
H           31.40363202760780        2.29250376649161        7.70167886567245
C           24.34226098391318        6.24867280607095        4.52312560685835
H           23.68685359449740        6.22561708351405        3.64535939767992
H           25.14776172737487        6.96641694769250        4.33524007293367
H           23.75976258061282        6.58354797001899        5.38355582707911
N           25.65729987806368        4.21405619146512        3.87906564549624
H           25.89137276453213        4.54185655228323        2.95781493560552
C           24.90632687430707        4.90049153216769        4.79383042014824
C           26.03161086998422        3.05000555857539        4.43450018398524
H           26.62648320548244        2.31167485558512        3.92472908652683
N           25.57101966506500        2.95297309470278        5.66708381673343
C           24.87357333089017        4.10887313997905        5.90280039178614
H           24.41253145781148        4.28131503672734        6.85695336833433
C           25.71713339752445       -2.20467754434062       11.22774455266301
H           26.67543853515885       -2.36529519600917       11.73477207002064
H           25.23266023628983       -3.17844991053341       11.09198781642477
H           25.08531287562498       -1.58094804192291       11.86356294268591
N           26.67452263994322       -2.11992008228348        8.91946940418774
H           27.12941904888138       -3.01465901808114        8.96878355687604
C           25.93098637925164       -1.54086619078132        9.92416454857927
C           26.68381865306797       -1.26295541696523        7.88148125153135
H           27.20344692653534       -1.46095391890238        6.95958338759519
N           26.00451709645699       -0.17168846323152        8.15060352603971
C           25.54098226648416       -0.33161237089107        9.43117901364651
H           24.98401474076959        0.45333637936286        9.90802740480183
87
 energy: -128.464452311833 gnorm: 0.017475603197 xtb: 6.7.1 (edcfbbe)
Fe          25.76308636549927        1.40763616672606        6.92879357288141
N           26.25414129984603        2.62840179312995        8.44983568238787
N           23.82650100138763        1.61049118253184        7.40493723158891
N           25.27196061386887        0.15506078383681        5.43353252002015
N           27.67837994829428        1.25072248622616        6.41630862664121
C           27.50670351339377        2.99430223419024        8.82496745112652
C           27.46345611274073        3.83416624947951       10.00551220392462
C           26.14760629423025        3.99574884788332       10.30613645492082
C           25.40878680675678        3.22059380621189        9.33256881455636
C           23.30065339113493        2.35855161258795        8.41876023029336
C           21.86224172931821        2.32550354053258        8.38973390238638
C           21.51333142163206        1.56601221564766        7.30091854217240
C           22.76395668629013        1.11045855417213        6.72246437674421
C           24.01604099920960       -0.22912972837847        5.07578376742740
C           24.06461425471684       -1.20497369131418        4.01327474269024
C           25.39033323502378       -1.40519015932693        3.73015567183843
C           26.11904950261331       -0.52321693411040        4.62274247432461
C           28.20146478551603        0.53394696474276        5.38154918215722
C           29.61810186029577        0.75396739369950        5.27093324274260
C           29.95626313922452        1.58313127687968        6.29435373051970
C           28.73471925975595        1.87878317319559        7.00249133463742
C           28.66123735473420        2.66443832668516        8.14000526691880
H           29.58948310818216        3.06650147037198        8.51931784626830
C           24.03134522208177        3.11064291758426        9.32513388555770
H           23.48665850673811        3.67357839651436       10.06855738934875
C           22.85009355886382        0.25152258071834        5.64082116846227
H           21.91919210844574       -0.08337497223982        5.20643061931282
C           27.48961650508864       -0.34182666335108        4.57714089831903
H           28.04896022501025       -0.91852656589661        3.85404020601120
C           25.53555985122713        4.80521526103172       11.40001817288890
H           26.30638443289853        5.29241421377792       11.99019904164513
H           24.93698933214458        4.18164408060708       12.06222743659709
H           24.88707552241322        5.57769329256228       10.98893830736602
C           28.64693785622582        4.39111250206406       10.72082462540753
H           28.92756699009845        5.36085534687391       10.31025557284457
H           29.49959717929665        3.72439812254358       10.63371496532899
H           28.42787073465828        4.52414205060898       11.77771394564455
C           20.98217245580933        2.96820829222664        9.40574197556221
H           20.76713947856239        4.00270486152910        9.13697188356369
H           21.45978918514490        2.96605072608057       10.38219710968385
H           20.04110403761807        2.43113001105647        9.48299802242388
C           20.20794076202768        1.23081387836088        6.78530698174897
H           20.17078513893109        0.34252336686940        6.16689869491641
C           19.06569494041761        1.89465423079803        6.96109273963716
H           18.99992392160173        2.80547868796171        7.52543604813733
H           18.15102295477150        1.53930499776830        6.51982096772548
C           22.86798294432096       -1.86820115184263        3.42959572545186
H           22.39729495564175       -1.22219378766794        2.68752511153150
H           22.13479752824306       -2.08154494978987        4.20367443022692
H           23.14434553617711       -2.80199862561368        2.94888603975311
C           26.01982194379509       -2.31800376788351        2.80335972568170
H           27.01379957831516       -2.64761282816595        3.08579165935247
C           25.52262305853984       -2.79049290631072        1.66133929499863
H           24.56154369532114       -2.49909925744500        1.28183218528285
H           26.08075931560830       -3.48992263903630        1.06348686719075
C           30.49201357389320        0.19531857682370        4.19823652141813
H           30.07028796447347        0.40271876434807        3.21563972677302
H           30.59704786067829       -0.88518438990412        4.29396870311415
H           31.48073467634867        0.64143224898121        4.24397227623759
C           31.31550611131890        2.09442441241618        6.63116897526254
H           31.52610659022281        3.02191373911542        6.09732688779851
H           32.07182063649380        1.36457636250151        6.35294393723460
H           31.40824131587336        2.29058023986403        7.69526716230609
C           24.34401662323248        6.25135305787111        4.52168499817245
H           23.69226357913246        6.22477479354420        3.65020531219820
H           25.13690063203063        6.97320862453453        4.33322590242303
H           23.76728949671882        6.58349485363131        5.37668250702873
N           25.65440982312557        4.21656201630308        3.87776009919198
H           25.88430115508006        4.53727287105232        2.95065801163613
C           24.91564243401905        4.91012838557159        4.80023802402961
C           26.02955902266318        3.04944964509007        4.44571949689576
H           26.61789023687639        2.30901057338673        3.94599002568533
N           25.57143179397932        2.95864028205887        5.66959938567929
C           24.87926408382819        4.10985667158746        5.90525971354076
H           24.40910907142100        4.28000919537350        6.85038321991885
C           25.71933648603389       -2.20281178668824       11.23271225418561
H           26.66742688814229       -2.36739349647600       11.74258865013264
H           25.23489810778594       -3.16871796617253       11.09720782701754
H           25.08968642662699       -1.58400388807254       11.86084672996141
N           26.66818754164871       -2.11595474835797        8.92133406796006
H           27.12088477432996       -3.01444673555689        8.96969833492767
C           25.93853281893503       -1.53245616189361        9.92664665591597
C           26.67887586531083       -1.26081827023999        7.87656008652016
H           27.18790793598675       -1.45682761370319        6.95641934375115
N           25.99921602816888       -0.17588050329391        8.15082616567403
C           25.53673683672426       -0.32846800095565        9.42637537016366
H           24.96297146919354        0.44304097936452        9.89580506047301
87
 energy: -128.465116510014 gnorm: 0.008653793553 xtb: 6.7.1 (edcfbbe)
Fe          25.76353456805798        1.40720813747947        6.92711329345714
N           26.25793434650036        2.62684361290134        8.44643830725890
N           23.82315352294567        1.61128379409271        7.40249142867802
N           25.27357474937831        0.15301944902651        5.43644329059527
N           27.68569264559408        1.25120826009180        6.41970648027951
C           27.51008638165608        2.99565788821846        8.81944041776133
C           27.46618887597561        3.83262208020954        9.99893771183309
C           26.14956641331545        3.98938963828294       10.30434753707499
C           25.41231435286803        3.21663584113748        9.32974232770200
C           23.30016300839816        2.35878233141840        8.41154778627764
C           21.86145691508407        2.32584296301651        8.38661238573322
C           21.51182225557163        1.55878791025716        7.30235467569618
C           22.76446160338338        1.10362900917583        6.72185877953324
C           24.01948186277125       -0.23207124248308        5.07935210369842
C           24.06351869213842       -1.20321947902008        4.01560718306732
C           25.39026252557290       -1.40479236832767        3.73109485508644
C           26.12134158985251       -0.52291073678262        4.62331895764531
C           28.20205223730308        0.53778446368211        5.38223449810507
C           29.62271091759094        0.75542762318102        5.27253695602167
C           29.96339041235907        1.58351615078347        6.29672235880908
C           28.73972219135051        1.88033960364040        7.00424754383958
C           28.66830901310923        2.66825032592063        8.13916188742500
H           29.59481096448512        3.07319267073511        8.51838900573791
C           24.03465926742900        3.10473233237244        9.32188682342485
H           23.49098380702963        3.65948534655659       10.07190521462527
C           22.84930295115764        0.24616583306646        5.64152575598357
H           21.92226930280498       -0.09003657744710        5.20253484476729
C           27.49130115602082       -0.33234823036423        4.57130288471203
H           28.05072786141836       -0.89141204241629        3.83431384691998
C           25.53599946287747        4.79529194794066       11.39878813135612
H           26.30536069545551        5.28403850523696       11.99070335964409
H           24.93706272223816        4.16841256937151       12.05887832845131
H           24.88511724435906        5.56610524326510       10.98598613913396
C           28.64894180380371        4.39317977221902       10.71212184323857
H           28.93216242979111        5.36095243719627       10.29629427420017
H           29.50276643300355        3.72506782475704       10.63113013812135
H           28.42616198507672        4.53168577072570       11.76825993011151
C           20.97883253811608        2.96743214231712        9.40090983904793
H           20.75974556504618        4.00181222167917        9.13178464938774
H           21.45511102606467        2.96774017147891       10.37927998491926
H           20.03885049316731        2.42624006387976        9.47699442469085
C           20.20699176157774        1.21982200995584        6.79254861239725
H           20.16801362101655        0.32640682804002        6.18134368252251
C           19.07112529439064        1.89362932464646        6.96934394227758
H           19.01620683615620        2.81915771369964        7.51370586194715
H           18.14984746002610        1.54484079052114        6.53370283266763
C           22.86714602177223       -1.87247235841622        3.43227518736541
H           22.39560442588411       -1.23369644462541        2.68360916964757
H           22.13129132160667       -2.08406457169122        4.20557836475836
H           23.14825903905733       -2.80915740209432        2.95822353887615
C           26.01790102969913       -2.31742355560049        2.80655624750987
H           27.01217820301519       -2.64425920496043        3.09095526748449
C           25.51481309462870       -2.78547213573499        1.66575583219393
H           24.56253616908057       -2.47254277144504        1.27640587187046
H           26.07016174698310       -3.48104133288147        1.05943109215680
C           30.49363978993373        0.18910691645910        4.20299789476305
H           30.07106975869790        0.39600426953416        3.22018158556683
H           30.59107188455074       -0.89206923897666        4.30469961064231
H           31.48601586949610        0.62970788854122        4.24735710766479
C           31.32189517098334        2.09950935726561        6.63357303726606
H           31.52445525991750        3.03112345788128        6.10324788432255
H           32.08287960986880        1.37521606287531        6.35026345755936
H           31.41452146678568        2.29071537216577        7.69915424812235
C           24.34600162993810        6.25433750383619        4.52071976192198
H           23.69320605124915        6.22170363163509        3.64952847505907
H           25.13520754259812        6.98083711326101        4.32891931576186
H           23.76837031870271        6.58692350790415        5.37644630281462
N           25.65604598840011        4.21772112687241        3.87863941165469
H           25.88144908766552        4.53288997672610        2.94883199106167
C           24.92062734146315        4.91460761581849        4.80222226017784
C           26.02825381996429        3.04940125798518        4.44936697503155
H           26.61272281895213        2.30359637850262        3.95232003239846
N           25.57326670585583        2.96379068872396        5.67403066866083
C           24.88319830250713        4.11573565825041        5.90836900736723
H           24.40857464523273        4.28821402521775        6.85127331286298
C           25.71852342294937       -2.19871907304802       11.23706756379290
H           26.66603464773134       -2.36377901603632       11.74926414791420
H           25.23357404709674       -3.16460598976600       11.10007180524551
H           25.08734218829181       -1.57826603219255       11.86379884539077
N           26.66423165736760       -2.11400923126683        8.92428651194621
H           27.11511606552234       -3.01324287106299        8.97180854721284
C           25.93661125378096       -1.52985594967989        9.92899211301357
C           26.67123992362124       -1.26174074714617        7.87576666452181
H           27.17243035892222       -1.45986950571558        6.95137966869976
N           25.99327357012486       -0.17602722796172        8.15221122241494
C           25.52777096548698       -0.32847149742283        9.42526231004221
H           24.94139602132480        0.43681442293377        9.89021257139779
87
 energy: -128.465561318019 gnorm: 0.008053077882 xtb: 6.7.1 (edcfbbe)
Fe          25.76400584027162        1.40694110699710        6.92599457121740
N           26.26305655154244        2.62318091651819        8.44122583001086
N           23.81962536112883        1.60938807440439        7.39935063036834
N           25.27544316487133        0.15436228552615        5.43812019363393
N           27.69422217922991        1.25303994419005        6.42250280241703
C           27.51448098529195        2.99684307166064        8.81126244512375
C           27.46874845252642        3.83162373189183        9.99069660094249
C           26.15230893868022        3.97995094845415       10.30275475828178
C           25.41618024949372        3.20784316311290        9.32777935582108
C           23.29971465805306        2.35771550526236        8.40561277552579
C           21.86021499061757        2.32552397010815        8.38267571872970
C           21.51026608576815        1.54975437816926        7.30527757682684
C           22.76361153591429        1.09398694729561        6.72254416181898
C           24.02255836146292       -0.23404961905805        5.08285407080399
C           24.06455054020572       -1.20101993032619        4.01814258032986
C           25.39192249225393       -1.39839379240456        3.72907574715549
C           26.12471368789120       -0.51719191378912        4.62103977051672
C           28.20431290024806        0.54363720221375        5.38203421437228
C           29.62945646483313        0.75684914472400        5.27352609465200
C           29.97317488521013        1.58421044689120        6.29864833909135
C           28.74715693430044        1.88194647289693        7.00625745506654
C           28.67706277124511        2.67362274348486        8.13678366940316
H           29.60091499668460        3.08427675871162        8.51546767016410
C           24.03868164407496        3.09491076248359        9.32013462045773
H           23.49612678581842        3.64131408179125       10.07722324711307
C           22.84735015111707        0.23854919194246        5.64334141554780
H           21.92502185932202       -0.10172987872167        5.19943043374540
C           27.49343697297142       -0.31561976931462        4.56133121076255
H           28.05172801422933       -0.85440479825666        3.80856266728665
C           25.53551627330528        4.77948664000743       11.39928633569026
H           26.30226979700117        5.27021449875202       11.99435023137205