78
 energy: -115.924072060432 gnorm: 0.292965442131 xtb: 6.7.1 (edcfbbe)
Fe          10.02600000000000        2.31100000000000       27.06400000000000
N            9.06700000000000        2.44800000000000       28.85900000000000
N           10.02900000000000        4.30400000000000       26.94600000000000
N           10.67600000000000        2.14500000000000       25.10500000000000
N            9.70100000000000        0.31700000000000       27.04000000000000
C            8.68100000000000        1.36500000000000       29.63100000000000
C            8.29600000000000        1.76100000000000       30.93700000000000
C            8.41900000000000        3.07800000000000       30.97400000000000
C            8.95400000000000        3.52800000000000       29.66300000000000
C            9.72900000000000        5.20700000000000       27.94400000000000
C            9.95100000000000        6.60000000000000       27.43700000000000
C           10.46500000000000        6.48100000000000       26.15900000000000
C           10.50300000000000        5.04400000000000       25.88000000000000
C           11.10100000000000        3.21900000000000       24.35100000000000
C           11.69500000000000        2.75800000000000       23.13400000000000
C           11.62100000000000        1.34300000000000       23.14800000000000
C           10.98000000000000        0.98500000000000       24.37000000000000
C           10.07900000000000       -0.57900000000000       26.00500000000000
C            9.71600000000000       -1.97400000000000       26.38100000000000
C            9.05700000000000       -1.85900000000000       27.73100000000000
C            9.13200000000000       -0.40000000000000       28.05800000000000
C            8.68900000000000        0.09300000000000       29.22400000000000
H            8.28500000000000       -0.63500000000000       29.92700000000000
C            9.17900000000000        4.83100000000000       29.18800000000000
H            8.89700000000000        5.64400000000000       29.85600000000000
C           10.99900000000000        4.52000000000000       24.70000000000000
H           11.34900000000000        5.24300000000000       23.96400000000000
C           10.69300000000000       -0.27800000000000       24.78900000000000
H           10.96000000000000       -1.10700000000000       24.13300000000000
C            8.15400000000000        3.88500000000000       32.24300000000000
H            8.84600000000000        3.55100000000000       33.04600000000000
H            7.10700000000000        3.72300000000000       32.57900000000000
H            8.32700000000000        4.96400000000000       32.04400000000000
C            7.80000000000000        0.83800000000000       32.06700000000000
H            8.39400000000000       -0.10100000000000       32.06700000000000
H            6.73000000000000        0.58700000000000       31.90400000000000
H            7.92600000000000        1.34400000000000       33.04800000000000
C            9.76200000000000        7.92800000000000       28.20200000000000
H            9.42100000000000        7.71400000000000       29.23700000000000
H            8.99600000000000        8.55000000000000       27.69100000000000
H           10.72700000000000        8.47600000000000       28.24700000000000
C           10.91800000000000        7.60500000000000       25.15100000000000
H           11.29000000000000        7.31100000000000       24.15900000000000
C           10.88100000000000        8.94700000000000       25.42700000000000
H           10.51900000000000        9.30700000000000       26.40200000000000
H           11.21300000000000        9.68100000000000       24.67700000000000
C           12.32100000000000        3.73100000000000       22.03700000000000
H           12.87400000000000        4.55200000000000       22.54200000000000
H           11.51000000000000        4.17000000000000       21.41800000000000
H           13.02700000000000        3.16500000000000       21.39200000000000
C           12.12600000000000        0.30400000000000       22.07999999999999
H           11.95900000000000       -0.76700000000000       22.26400000000000
C           12.77900000000000        0.64100000000000       20.90100000000000
H           13.24800000000000       -0.13700000000000       20.28100000000000
H           12.83500000000000        1.69000000000000       20.57400000000000
C            9.94400000000000       -3.23400000000000       25.59200000000000
H           11.03200000000000       -3.36800000000000       25.41400000000000
H            9.42500000000000       -3.16300000000000       24.61300000000000
H            9.56200000000000       -4.10800000000000       26.16200000000000
C            8.46300000000000       -3.05200000000000       28.57600000000000
H            9.25200000000000       -3.46600000000000       29.23900000000000
H            8.10800000000000       -3.85400000000000       27.89500000000000
H            7.62200000000000       -2.68600000000000       29.20200000000000
O            7.89500000000000        2.45900000000000       26.28100000000000
H            7.35200000000000        2.68800000000000       27.03500000000000
H            7.61100000000000        2.33200000000000       25.44800000000000
C           15.56300000000000        3.02300000000000       27.58900000000000
H           16.25800000000000        2.16700000000000       27.45300000000000
H           15.88000000000000        3.60500000000000       28.48100000000000
H           15.60000000000000        3.66500000000000       26.68300000000000
N           13.81900000000000        1.67800000000000       28.82800000000000
H           14.44900000000000        1.34800000000000       29.53100000000000
C           14.17300000000000        2.51100000000000       27.78800000000000
C           12.53100000000000        1.39500000000000       28.73999999999999
H           11.99100000000000        0.75400000000000       29.43600000000000
N           12.03800000000000        2.01500000000000       27.68400000000000
C           13.04400000000000        2.72000000000000       27.07300000000000
H           12.86000000000000        3.30700000000000       26.18200000000000
78
 energy: -116.002757621525 gnorm: 0.120214825011 xtb: 6.7.1 (edcfbbe)
Fe           9.99147952352810        2.29613772249177       27.02682021043347
N            9.10600787308059        2.43819905404495       28.87642600300041
N           10.06591791256542        4.31924890961691       26.95194291585238
N           10.69077418475982        2.13631482190738       25.09238228487905
N            9.71450468965884        0.28818173934257       27.02561250734343
C            8.69400978233551        1.36181417479055       29.62773272062973
C            8.29143919702213        1.76759823058757       30.93837829871469
C            8.43121154745815        3.11074792923258       30.97719798229791
C            8.94669233931300        3.53957021979469       29.65748095186650
C            9.71651361481620        5.21640636466087       27.93265202909628
C            9.96192053982462        6.59696474219944       27.43995171940683
C           10.46359256089745        6.49357592186148       26.15762358668833
C           10.51188095026009        5.05602631819015       25.88073287921052
C           11.11159682165979        3.19719542507210       24.33683483397327
C           11.70721604749880        2.74163262490452       23.10666995784195
C           11.62625427093863        1.34541462448607       23.11279967580801
C           10.98762838161452        0.99524944674343       24.36577746792522
C           10.07148956088973       -0.60067825355712       26.02237702767837
C            9.69852020738250       -1.96383519437164       26.41630155169940
C            9.07979710736767       -1.87225881319466       27.68761762163581
C            9.13948984762487       -0.44325257503279       28.02098348209552
C            8.68603812312361        0.06107274538727       29.21444975889924
H            8.28383565517931       -0.65181459641438       29.92352949514216
C            9.18029833381626        4.83942272970242       29.18025556886903
H            8.90946155931290        5.64619343620384       29.85421914484471
C           10.99953267588993        4.52618975565291       24.69669742579239
H           11.34668145078856        5.24468855533942       23.96496917984733
C           10.68627577774471       -0.28150767183608       24.80796659783821
H           10.94836997464795       -1.10475016985068       24.15064080450642
C            8.16031910695237        3.90298523184395       32.22908634446142
H            8.83475455495166        3.56551805391673       33.02923594711606
H            7.12847882260352        3.73530053221911       32.56785975300873
H            8.32271778894875        4.96743672996122       32.05299655028637
C            7.80802962420035        0.84980524645978       32.04735275542463
H            8.38493705524061       -0.08346097988630       32.07199226473414
H            6.74963405513991        0.59435049114615       31.90464712649712
H            7.92098570462147        1.33736273712648       33.02300936353650
C            9.75978102759112        7.89590628428010       28.20357468795897
H            9.42247402397082        7.71018312488173       29.22792609057947
H            9.01024642795237        8.52698217753044       27.70348747517329
H           10.70572252207436        8.45396133835600       28.25199457425739
C           10.89860257104660        7.59050926085521       25.19266395849976
H           11.26930900008988        7.29012222121517       24.20740651959000
C           10.87600550345586        8.91254881399949       25.43386405291475
H           10.52636717678289        9.30787577493603       26.37701432146351
H           11.20556076141499        9.64141680247148       24.69193645906996
C           12.30784765768853        3.70960281535766       22.06352103950939
H           12.85698733913925        4.52901523024509       22.54522890035558
H           11.52063960348299        4.15161261025422       21.43745998422301
H           13.01389953323529        3.18382344833264       21.41641389311868
C           12.12429173583996        0.34712306708533       22.08543822924664
H           11.96954856079936       -0.71701367945413       22.29144963730778
C           12.75843423428031        0.64066575494308       20.93134239593843
H           13.21039371524627       -0.12830073891552       20.30551708948452
H           12.84333994165956        1.66007065007924       20.57910527030261
C            9.93788504489264       -3.21020171490518       25.61048922829526
H           11.01127881592186       -3.36053198661054       25.42012853639296
H            9.43261666074573       -3.16103833107129       24.63455238576293
H            9.56745448978686       -4.09012565880727       26.15032553240419
C            8.48679393133961       -3.01324843863502       28.54483634771963
H            9.24345722400967       -3.44589556385550       29.21734554430739
H            8.11949087482694       -3.82442075445817       27.90248218548206
H            7.64806643920759       -2.67965176747351       29.17330791429110
O            7.90384711971706        2.46549389028716       26.29618102879649
H            7.33456658188221        2.68859471506600       27.02956462031465
H            7.58735053033298        2.33006267639345       25.42358951865029
C           15.56378519211320        3.01818008271872       27.59202001721346
H           16.25779454802137        2.17987790585014       27.45446124611889
H           15.88350793271442        3.59952200085700       28.46593764146609
H           15.59959066384179        3.65429422776918       26.70183048353558
N           13.83002026490926        1.68050488512615       28.82592772009048
H           14.46060135972479        1.34497918394133       29.53281980406465
C           14.17846300622790        2.51084007565375       27.78957747836352
C           12.52048906043292        1.40839475315251       28.72970671975092
H           11.98843070065726        0.76883174626159       29.41694583315013
N           12.00803247092555        2.03493325631068       27.69062352721674
C           13.03219689632155        2.71559339904822       27.08431537059911
H           12.85754163203813        3.29786020018471       26.19748294813816
78
 energy: -116.029083747281 gnorm: 0.042631828344 xtb: 6.7.1 (edcfbbe)
Fe           9.97972891745666        2.28093932358098       27.00127129686443
N            9.13314832086911        2.42587124804443       28.87931390509514
N           10.07829149959281        4.32980166720585       26.94644996444285
N           10.69918498688866        2.12954210491725       25.08157317155913
N            9.71543504743724        0.26720526348077       27.01132348393909
C            8.71812940291505        1.35826982062307       29.61960460348736
C            8.29610705626711        1.77655183677589       30.93021681080244
C            8.44428851818437        3.13387216371920       30.96411338060570
C            8.95504162516051        3.54145583796428       29.64663114584743
C            9.71943753760445        5.21607622021394       27.92499736682107
C            9.96180795861751        6.58453626922289       27.44871537993127
C           10.46278855161010        6.49471636850426       26.16582815654927
C           10.52312397602379        5.05909643432945       25.88257188392407
C           11.11789086307213        3.18347151292828       24.33176429757855
C           11.71302057296038        2.73239202520091       23.09294865782964
C           11.62868734871236        1.34998966077845       23.09557450197512
C           10.98694548080161        1.00313468863083       24.36847949298121
C           10.06541561782132       -0.61410822891998       26.03432226685786
C            9.68809762462370       -1.96216669474098       26.43787016334274
C            9.09925450622177       -1.87553159117914       27.64982906362731
C            9.14370710767743       -0.46922867813858       27.99973702320139
C            8.69171165094421        0.03952023809959       29.20732011544583
H            8.28365625829670       -0.66347403545409       29.91692032704384
C            9.19715050657829        4.83907863940920       29.17433031881548
H            8.92961645859018        5.64273097585831       29.85073335351801
C           11.00373966379986        4.52655790112727       24.69679028446494
H           11.34329281466165        5.24150642193105       23.96316519708545
C           10.67938082192686       -0.28020863993832       24.82444247233276
H           10.93590921152357       -1.10055916292151       24.16662590715801
C            8.16912414512199        3.92601282760399       32.20168044439136
H            8.82987559499534        3.58891076667916       33.00505649534351
H            7.14626653473314        3.75605209693006       32.54405832056495
H            8.32177234073063        4.98639716766243       32.05107446188742
C            7.81837250980612        0.87105283170666       32.02800746694837
H            8.38619672017829       -0.05871726780890       32.04709107789994
H            6.76669298364870        0.61001790916216       31.89388942122220
H            7.92183469904074        1.34583902344180       33.00222248132391
C            9.75433202525490        7.85841309643341       28.21084506458971
H            9.41769983821089        7.68414447839855       29.22750949270667
H            9.01586717593438        8.49289669739656       27.71338431711663
H           10.68983616376893        8.42156441212929       28.26047070355004
C           10.87839822290158        7.55591431115746       25.24382097855417
H           11.24289613164722        7.24075809691287       24.26665054486208
C           10.86546668654920        8.87311060528778       25.44895630472297
H           10.52742224210893        9.31502274338033       26.36595880055436
H           11.19817872705738        9.58474463760720       24.70314717853005
C           12.29585355817276        3.68282640603029       22.08901806529874
H           12.82981596497842        4.50150448579076       22.57230828167542
H           11.51835598061771        4.12481087045651       21.46160942670440
H           13.00927411915092        3.19001435495945       21.43854603562184
C           12.11577507234893        0.38923604211414       22.11187975682972
H           11.97764880379888       -0.66543135590694       22.35113524208514
C           12.73340017721597        0.64478043987441       20.96083400493649
H           13.15393547191916       -0.12929996244121       20.33234392734622
H           12.85921572395415        1.64105862526522       20.57897003266879
C            9.93398895660087       -3.19626874695597       25.62180711984854
H           10.99967781070430       -3.34154464546677       25.43099787302712
H            9.43315630682942       -3.14547724333441       24.65264841172079
H            9.56794257980448       -4.07602561853694       26.14711776449961
C            8.51429375469555       -2.97773433298010       28.50350563377807
H            9.25704210992632       -3.40771774422529       29.18337877178065
H            8.13724700748899       -3.79440978903081       27.88555830301447
H            7.68195274563663       -2.64009710035244       29.12491706345482
O            7.91607944612976        2.47929761495956       26.29880184507692
H            7.30549206145589        2.68408143433528       27.00777372433054
H            7.56549703107694        2.32849589461022       25.42208517167367
C           15.56307225032651        3.01306801608743       27.59291909640764
H           16.25802744489599        2.18603425339403       27.45535536694668
H           15.88541381897466        3.59384479923960       28.45632089931265
H           15.59773902189076        3.64732837395852       26.71330170507510
N           13.83416169409505        1.67988637883178       28.82416103991428
H           14.46282340804057        1.33763603099364       29.53296070720298
C           14.17989934717862        2.51038363362918       27.79064654980697
C           12.50935087427923        1.42528749678481       28.72453692421220
H           11.97951924467267        0.78761987708611       29.40362719116745
N           11.99123930280171        2.05043568107544       27.69505154506179
C           13.02220430904333        2.72090637295737       27.09817375442150
H           12.85768195276718        3.30029543146283       26.21342121720312
78
 energy: -116.038056450342 gnorm: 0.022733601576 xtb: 6.7.1 (edcfbbe)
Fe           9.97431102546794        2.26997444114480       26.98933305328868
N            9.16311013930359        2.41769189392419       28.87578239280806
N           10.09397874096642        4.31970893167638       26.95034450657518
N           10.69916377534594        2.12954295724048       25.08522386043100
N            9.72014661235243        0.26273876836667       27.00391918629075
C            8.74350860219778        1.35757743583828       29.61374724611894
C            8.31391006525819        1.78890942996570       30.91905876178484
C            8.46307330621465        3.14714778751244       30.94662166249305
C            8.98000128549806        3.53691673689298       29.63771647343940
C            9.72987634291924        5.20019154443425       27.92774635603541
C            9.96269354165022        6.56134158800522       27.47047979232822
C           10.46124507381577        6.47850317606442       26.18912468762930
C           10.52992419475202        5.05024118341644       25.89139345456240
C           11.11555519183149        3.18433213928418       24.33950646756768
C           11.70976479606006        2.73570321000830       23.10281959391733
C           11.62842640263459        1.35940043015834       23.10598075716408
C           10.98435099115473        1.00830490606402       24.37619239587276
C           10.06955348508068       -0.61224358477817       26.02580525399168
C            9.69824082970638       -1.96235399571259       26.41665124455776
C            9.10784857796718       -1.87100411626453       27.63851762840676
C            9.14923048152840       -0.46970241333408       27.99536189317203
C            8.70306377796556        0.03490609643833       29.20405772241998
H            8.28859111357198       -0.66874230322049       29.91013551194668
C            9.21608129696744        4.83085178470573       29.17427956403932
H            8.96045126196629        5.63487256546536       29.85415393877861
C           11.00370379343303        4.52607624324264       24.70169008321160
H           11.33758092299086        5.24063346484570       23.96455749242540
C           10.67905607312490       -0.27577439371691       24.82254507451472
H           10.92916958545909       -1.09632706942023       24.16461778695962
C            8.17966749162618        3.96040933229534       32.16797022809605
H            8.83519597937222        3.63138531319768       32.97827856024463
H            7.15511521067478        3.79297539585848       32.50382279387885
H            8.32926351573331        5.02254374952215       32.01802009534252
C            7.82784315463559        0.89163578987832       32.01065414606659
H            8.39550382191367       -0.03743971648780       32.03491769981192
H            6.77664575876869        0.63333435414195       31.87050780607905
H            7.92612819329629        1.37055524264827       32.98169648487101
C            9.74342090311799        7.82086990136074       28.23771788411443
H            9.40070492896754        7.63678578279795       29.25001847696584
H            9.00724098032315        8.45059038208531       27.73393592182034
H           10.67724710172782        8.38384589949056       28.29220330859270
C           10.86312858556474        7.52326812277612       25.27749942125530
H           11.22415436497576        7.18305263435010       24.31112722628763
C           10.85785618041812        8.84508116493111       25.45924861993466
H           10.52177489930538        9.32278139249865       26.36152834168732
H           11.19620020002987        9.52744546620532       24.69342672830998
C           12.29110969864598        3.68011959954843       22.10828181365433
H           12.80349212682219        4.50043605238037       22.60993739791916
H           11.50931208025640        4.10672894564814       21.47681927368086
H           13.01883806196686        3.19790160973344       21.46619828061819
C           12.11390879194631        0.40179077467415       22.14336549481185
H           11.98585576807444       -0.64210821844202       22.42152479397115
C           12.71150098579584        0.63061121070886       20.97228803428406
H           13.08706578028085       -0.16771982857937       20.34855726637380
H           12.86417413950232        1.61548981759620       20.56654771702897
C            9.93922191949474       -3.19332627308888       25.60791057647213
H           11.00455735494689       -3.32931966740183       25.42461677508962
H            9.43365214703609       -3.13252779456899       24.64487397583100
H            9.57084127054923       -4.06868948876717       26.13680079219641
C            8.52920138759488       -2.96108236655848       28.48083755866484
H            9.27973168668282       -3.37462876360058       29.15788709281218
H            8.15589023844891       -3.77346426294132       27.85966712570024
H            7.70020019058153       -2.59843057750816       29.08683786677955
O            7.90849179058195        2.51308828692267       26.28147639075192
H            7.26546013513146        2.66771723094014       26.98048598535601
H            7.53656135814463        2.31758247493990       25.41743010360395
C           15.55977332401354        3.00711672005690       27.59451901629401
H           16.25530579313533        2.18099831272591       27.45495055532509
H           15.88803320727658        3.58787188777661       28.45567858944527
H           15.59445007636961        3.64289116640456       26.71646267619988
N           13.82438853268860        1.67904242210974       28.82400895633283
H           14.45156569201504        1.32596202603190       29.52939712753464
C           14.17385707994425        2.51196721744782       27.79338632843358
C           12.49373944491136        1.44211007308340       28.72574114684124
H           11.95798460543497        0.80618077729267       29.39986300234199
N           11.97868205444360        2.07566948577984       27.70239669105931
C           13.01443050869730        2.73765832165712       27.10806077415233
H           12.85702021094958        3.32182378219993       26.22625323434982
78
 energy: -116.043306052771 gnorm: 0.033013202055 xtb: 6.7.1 (edcfbbe)
Fe           9.97781879258086        2.26818587272270       26.98725975443146
N            9.19074862419266        2.40847788650871       28.86547989375976
N           10.10338487575596        4.30444042434493       26.95524639196478
N           10.69752597240041        2.13152913487299       25.10029162330614
N            9.72466622971662        0.27366287112355       26.99360396578082
C            8.76935117909935        1.35538212097059       29.60613298313094
C            8.33577799368977        1.79810357181200       30.90717527842356
C            8.48593395775153        3.15437557073370       30.92738229446115
C            9.00960128972253        3.52677138051194       29.62750556837447
C            9.74542575809049        5.17947885325566       27.93510360395674
C            9.96391488050631        6.53526569524785       27.49397492566299
C           10.45836562077395        6.46066744238197       26.21228460782151
C           10.53236131247968        5.03945942522880       25.90265686247000
C           11.11166005159876        3.18733115689725       24.35485715968834
C           11.70908025157363        2.74078454385016       23.12287733155321
C           11.63378912505675        1.36787202820845       23.12645337044737
C           10.98511892446241        1.01470257949294       24.38984612994645
C           10.07325543815718       -0.60169449369562       26.01577456714015
C            9.70784400510321       -1.95215743407841       26.39701613744556
C            9.11749220322696       -1.85977254980199       27.62153922672370
C            9.15896043742582       -0.46195556057446       27.98651512046538
C            8.71905282154436        0.03218277465949       29.19801016903355
H            8.30231375218067       -0.67519606591020       29.89985959294802
C            9.24420653135922        4.81792503528720       29.18079084348964
H            8.99924664770137        5.62073281186604       29.86419299120773
C           11.00130921104498        4.52537323259129       24.70939491856522
H           11.32908368799914        5.23810996515920       23.96756842566427
C           10.68058599345792       -0.26923932619880       24.81792806647304
H           10.92280957064133       -1.09093228824264       24.15959507991233
C            8.19328183268994        3.99832930777676       32.12648755471756
H            8.84322440307316        3.69023799818789       32.94989131843837
H            7.16386839950592        3.84280247948160       32.45319163613439
H            8.34440692353264        5.05816963625622       31.95351034609105
C            7.83790669216335        0.91135366584455       31.99709465360694
H            8.40490831357964       -0.01801193722707       32.02853598685197
H            6.78683101832520        0.65775491411120       31.84568853921017
H            7.92934262226557        1.39921768365193       32.96460149827608
C            9.73102391388828        7.78301381611311       28.27014363545988
H            9.38025695093844        7.58192169128325       29.27739049615282
H            8.99338194815686        8.40835617496971       27.76496611689980
H           10.66076513485861        8.35061010195641       28.33666347084200
C           10.85674924794255        7.49932015091454       25.30232419415974
H           11.21301873565616        7.14297390811388       24.34291158966113
C           10.84889728480388        8.82228270145039       25.47013048376641
H           10.51776527610652        9.31947464747230       26.36287712502456
H           11.18942968274717        9.47816433718647       24.68442382061600
C           12.29059913755596        3.68305716979796       22.12731256141272
H           12.78066098527404        4.51303996598182       22.63537407167936
H           11.50829376329038        4.09060485101819       21.48333450906169
H           13.03319093899296        3.20225476475750       21.50115914524905
C           12.11039384243915        0.40146141451652       22.17193628428283
H           11.99130661658490       -0.63186368500787       22.48051506400075
C           12.68222594803727        0.60930044882477       20.98347330558147
H           13.02906171487524       -0.21212588524826       20.37696000145141
H           12.83734537561960        1.58108932729657       20.55066897358525
C            9.94500917194466       -3.18156475540256       25.59238750306319
H           11.00992951087946       -3.31670511518852       25.41043520705317
H            9.43839654188135       -3.11786425322854       24.63072801758153
H            9.57579986776765       -4.05733366415386       26.12070350765109
C            8.54246770395941       -2.94726973990700       28.45980659250849
H            9.29361910369998       -3.35086473143079       29.14065609519948
H            8.17548321413641       -3.76212867214266       27.83998948282044
H            7.71198897242345       -2.57512164281188       29.05503623332106
O            7.90480307380216        2.59227748599039       26.25061822430578
H            7.22117418606782        2.62031328270236       26.95101517883925
H            7.50051775725819        2.27195098169803       25.42017963192938
C           15.55441662078788        2.99951736175070       27.59789705228026