78
 energy: -116.057577657382 gnorm: 0.000086249262 xtb: 6.7.1 (edcfbbe)
Fe          14.52725005021929       55.24994665731600       18.92683227357209
N           13.13344358876218       56.59176431043641       18.36883104810223
N           14.09479262871665       54.14579430370715       17.29841513447655
N           15.97084640410865       53.96976844663678       19.41526161983419
N           14.95183987074538       56.36094742941068       20.52264151519353
C           12.76131342184188       57.70989557011557       19.04710184422942
C           11.72015375530974       58.41620086506681       18.33612746241948
C           11.46821003803169       57.69617896515353       17.20928421977097
C           12.35207093253576       56.55343448063524       17.25237119778516
C           13.15780100716684       54.41736138022910       16.34661016384409
C           13.07939577900113       53.34725327897890       15.38995161348863
C           13.96754500974340       52.38994205358961       15.80499778121631
C           14.60942401341014       52.92611386557270       16.98749206230272
C           16.32372846629792       52.84047428685523       18.74219796095936
C           17.44958558527832       52.19772106863928       19.37323637893805
C           17.76567339421467       52.96192623131503       20.46428317413869
C           16.82560686857816       54.06748389693836       20.46249969016781
C           15.90083296075681       56.10694961785018       21.45956346636189
C           15.87598651813030       57.11227819553763       22.50098870891378
C           14.88685749006288       57.98172801538861       22.16622543458226
C           14.32371651457731       57.49634899590563       20.92387732240993
C           13.30186768587808       58.13338548322903       20.24687632771176
H           12.90093528505841       59.03608622997042       20.68165817387503
C           12.36396866450682       55.55259559969718       16.30013105212011
H           11.68017562210385       55.64557675993975       15.47012818790227
C           15.68169341176285       52.33436171584117       17.62665567399927
H           16.05244813607499       51.41016433905332       17.21219942859016
C           16.78766913140015       55.04798224008204       21.43666166886329
H           17.50327194371107       54.98193784107941       22.24204755919981
C           10.49300596516405       57.96428198911962       16.11423649324012
H           11.00397362191536       58.03751400443710       15.15386767170043
H            9.96103245121210       58.89590992367261       16.29018610459881
H            9.76024061220405       57.15949139894475       16.04535658855169
C           11.09517887055309       59.68541742661510       18.80418663535904
H           11.84721734864305       60.46824773052347       18.90528381673332
H           10.62327479550700       59.54366041858425       19.77667474507043
H           10.33788162402920       60.02659453026602       18.10252141492028
C           12.15190256933422       53.30736113619883       14.22444571133740
H           12.28299736462669       54.18989001486946       13.59758813634649
H           11.11349217789332       53.28347579692912       14.55785407812816
H           12.33430189622650       52.42181167500993       13.62098007145132
C           14.20724664278689       51.10248227644173       15.18686663245414
H           14.16504192996698       51.09320979735975       14.10274515420125
C           14.42416482121984       49.96257451098857       15.83315015023047
H           14.42253413056754       49.90672036880105       16.90852087126829
H           14.58916574658242       49.03792477479556       15.30515984296410
C           18.13974818463337       50.98226558819322       18.86064516281038
H           18.18008578287292       50.99215699787845       17.77254806915490
H           17.61557414603194       50.07648372665199       19.17040581715185
H           19.15594502314800       50.93970086456610       19.24742991582658
C           18.82347144902072       52.78257906625146       21.43378384058887
H           19.25289836039957       53.69533249327748       21.83020027984454
C           19.28705680086152       51.61343340606076       21.86383654301940
H           18.86814438763850       50.67659280565731       21.54033447102565
H           20.09069980595729       51.55480518794987       22.57916777061196
C           16.79146818829015       57.12720892394667       23.67669958041030
H           17.82863095637693       57.21183023130504       23.35167064182866
H           16.69203841699415       56.20712458741136       24.25312866711892
H           16.56870647312023       57.96702359112901       24.33031498139942
C           14.42482905220907       59.20746724731627       22.87696568338437
H           14.98443141652381       59.35487172291943       23.79736593290738
H           13.36644166733157       59.13008938476526       23.12691143261296
H           14.56047725402770       60.08841284270058       22.24903381317195
O           15.97342897012584       56.43095603373858       17.59434120450750
H           15.41030041755670       57.18336776446084       17.38217871661733
H           15.98212172207497       55.85710468540726       16.82063652717839
C           11.84779794379420       52.27752551213977       22.80416360496343
H           11.59389921224510       51.24524338308830       22.56349388518054
H           10.99165077719257       52.73159901321592       23.30295488068416
H           12.69025895261995       52.27799113185324       23.48855960972118
N           11.32990529717203       53.20391915216850       20.53591321362107
H           10.38889236160614       52.84858498442957       20.49368670613989
C           12.20482683350967       53.03263395005877       21.57658484964727
C           11.96133510455424       53.92862488173933       19.58509702985339
H           11.51615738190683       54.21543782658406       18.65499072540958
N           13.18151972349158       54.22626574077272       19.96020130833492
C           13.34792405528325       53.67609110294624       21.19727222534988
H           14.27257713501321       53.77910627168620       21.72671064640372
