78
 energy: -115.946562828306 gnorm: 0.301386477861 xtb: 6.7.1 (edcfbbe)
Fe          35.17100000000000        4.13100000000000       10.22000000000000
N           37.04100000000000        3.92500000000000        9.70200000000000
N           34.90700000000000        5.47300000000000        8.74700000000000
N           33.32000000000000        4.49400000000000       10.96300000000000
N           35.46800000000000        2.85900000000000       11.79300000000000
C           38.00800000000000        3.05700000000000       10.27900000000000
C           39.26600000000000        3.10400000000000        9.50000000000000
C           39.06600000000000        3.94100000000000        8.47700000000000
C           37.71600000000000        4.46200000000000        8.58700000000000
C           35.86900000000000        5.82900000000000        7.80200000000000
C           35.25800000000000        6.79200000000000        6.86700000000000
C           34.00400000000000        7.00600000000000        7.29800000000000
C           33.81200000000000        6.24700000000000        8.50000000000000
C           32.44400000000000        5.45800000000000       10.47700000000000
C           31.29100000000000        5.59200000000000       11.33000000000000
C           31.45900000000000        4.74700000000000       12.36700000000000
C           32.72700000000000        4.06800000000000       12.12300000000000
C           34.59200000000000        2.70100000000000       12.83000000000000
C           35.21700000000000        1.76100000000000       13.78400000000000
C           36.45300000000000        1.54800000000000       13.36700000000000
C           36.66200000000000        2.27500000000000       12.13300000000000
C           37.85700000000000        2.24300000000000       11.39900000000000
H           38.66600000000000        1.58200000000000       11.70500000000000
C           37.09600000000000        5.30000000000000        7.67900000000000
H           37.65599999999999        5.55500000000000        6.77900000000000
C           32.70000000000000        6.18400000000000        9.31200000000000
H           31.87300000000000        6.81300000000000        8.98700000000000
C           33.25200000000000        3.09600000000000       12.95800000000000
H           32.62200000000000        2.63600000000000       13.71800000000000
C           40.02800000000000        4.28100000000000        7.30300000000000
H           39.62900000000000        3.85000000000000        6.36000000000000
H           41.03100000000000        3.84700000000000        7.50200000000000
H           40.10700000000000        5.38300000000000        7.19000000000000
C           40.52000000000000        2.22700000000000        9.77900000000000
H           40.36699999999999        1.21400000000000        9.35000000000000
H           40.67700000000000        2.13400000000000       10.87500000000000
H           41.41300000000000        2.68800000000000        9.30500000000000
C           35.92800000000000        7.32200000000000        5.55500000000000
H           36.46100000000000        6.48900000000000        5.04800000000000
H           36.66000000000000        8.12000000000000        5.80300000000000
H           35.14899999999999        7.72100000000000        4.87100000000000
C           32.90000000000000        7.92200000000000        6.70200000000000
H           31.85400000000000        7.58100000000000        6.71700000000000
C           33.14200000000000        9.11400000000000        6.16500000000000
H           34.16800000000000        9.50900000000000        6.12100000000000
H           32.31900000000000        9.72000000000000        5.75800000000000
C           30.09600000000000        6.57100000000000       11.11900000000000
H           30.06400000000000        6.89400000000000       10.05600000000000
H           30.22600000000000        7.46600000000000       11.76400000000000
H           29.14200000000000        6.05800000000000       11.36800000000000
C           30.67500000000000        4.44700000000000       13.64600000000000
H           30.96900000000000        3.63900000000000       14.33100000000000
C           29.57200000000000        5.22100000000000       13.93100000000000
H           29.26900000000000        6.03200000000000       13.25200000000000
H           28.98100000000000        5.03800000000000       14.84100000000000
C           34.45100000000000        1.19300000000000       15.01800000000000
H           33.55600000000000        0.63200000000000       14.67300000000000
H           34.12200000000000        2.02800000000000       15.67300000000000
H           35.11200000000000        0.50300000000000       15.58500000000000
C           37.54200000000000        0.75000000000000       14.15100000000000
H           37.49000000000000       -0.32300000000000       13.86900000000000
H           37.36300000000000        0.84400000000000       15.24300000000000
H           38.54999999999999        1.14100000000000       13.89600000000000
O           35.75500000000000        5.75800000000000       11.66000000000000
H           34.93600000000000        6.15500000000000       11.95600000000000
H           36.57500000000000        5.99400000000000       11.91100000000000
C           32.22600000000000        0.05500000000000        7.55900000000000
H           32.12900000000000       -0.77800000000000        8.28800000000000
H           32.37700000000000       -0.37000000000000        6.54400000000000
H           31.29700000000000        0.66400000000000        7.58100000000000
N           34.73400000000000        0.76600000000000        7.72900000000000
H           35.10100000000000       -0.01600000000000        7.22900000000000
C           33.42000000000000        0.92400000000000        7.93600000000000
C           35.49000000000000        1.73000000000000        8.24300000000000
H           36.56300000000000        1.85700000000000        8.14100000000000
N           34.58300000000000        2.48000000000000        8.90300000000000
C           33.32900000000000        2.07700000000000        8.72900000000000
H           32.48600000000000        2.60400000000000        9.15600000000000
78
 energy: -116.015968421029 gnorm: 0.136178166127 xtb: 6.7.1 (edcfbbe)
Fe          35.18662363023734        4.14196941836466       10.23074881295310
N           37.07440007599468        3.90720512633704        9.69294243128479
N           34.91956169259860        5.49201896505024        8.75480014272699
N           33.31408336111564        4.51817275032275       10.97222614114178
N           35.48159136941850        2.88962384839135       11.80992534064386
C           38.01477816717627        3.05625148422125       10.26979716980983
C           39.26280149745563        3.08644611637935        9.49876709933731
C           39.06406375607589        3.93742346103461        8.46345222307625
C           37.71297122834062        4.44553691671522        8.58408179455327
C           35.84011675262882        5.82421435505446        7.78435827554053
C           35.24688069581477        6.78724173143021        6.85115777238368
C           33.98154328729953        7.02149853560640        7.29576815044589
C           33.80037321732846        6.22702242282826        8.49497374293743
C           32.43931125456839        5.46134036775775       10.47224881426289
C           31.28361333604787        5.59753837721695       11.33243452902858
C           31.45884250826072        4.73177459723645       12.37967791503288
C           32.72643760885701        4.05748728611187       12.11697720698232
C           34.58766071134846        2.64708595910324       12.81399960637550
C           35.20265489468193        1.75502621572155       13.80003139010490
C           36.46835773951616        1.54065900109030       13.38703374415146
C           36.65013392075277        2.25687100596521       12.13563625732374
C           37.83238390740239        2.25622527983380       11.39148400840185
H           38.64323704513635        1.60550268945222       11.70300920019825
C           37.09959421433624        5.29568703649636        7.67499166253070
H           37.66782848595449        5.56531598680628        6.79066580819341
C           32.67861999767635        6.18478671484567        9.30594124938334
H           31.86427660810493        6.82570079879182        8.98874818404344
C           33.27031702752110        3.08185942582540       12.93744412627472
H           32.65268990203548        2.65258740110486       13.71732799647422
C           40.01157624056127        4.27911537347025        7.31997837830604
H           39.63237462026760        3.85801547889872        6.37979273879273
H           41.00671070937517        3.85796315537594        7.50255930795813
H           40.10355104346596        5.36434451761716        7.19667701577043
C           40.49726608206412        2.23893169140581        9.77996766817820
H           40.36501196101333        1.23327056280519        9.35921881807014
H           40.67327285700195        2.14032976898150       10.85651251219935
H           41.38757547424691        2.68299106315103        9.31838080601639
C           35.91720552384682        7.30976073733708        5.58009833153394
H           36.44933266965793        6.50043766601955        5.06444527520457
H           36.64295245585846        8.10201411462258        5.80657141387270
H           35.16141486638135        7.71166822810203        4.89521812362549
C           32.92064348448451        7.91333578385838        6.71075836237865
H           31.88715054789055        7.56292236343646        6.73480886802119
C           33.15186092199505        9.10298787947643        6.16835537333976
H           34.15422341468993        9.51307337023493        6.12276112615291
H           32.34089052677817        9.70680701622277        5.76592596099245
C           30.11862246093247        6.55796825518426       11.10902995317591
H           30.07142797404581        6.89018020845136       10.06724759118081
H           30.22726683988064        7.44524684437293       11.74831281359002
H           29.16811852999158        6.06418144585984       11.34622287225814
C           30.66190366586489        4.47367676796287       13.61287264288673
H           30.96832613496958        3.67282887970716       14.28808016290935
C           29.58581833211064        5.21153754274048       13.92936915743535
H           29.26933068701132        6.02105538503734       13.29028450125287
H           29.00131710559655        5.03062622280714       14.82731976483023
C           34.46092315990782        1.20068551183658       15.00599261803332
H           33.57598312373649        0.64231625821878       14.67550936578685
H           34.13055514746972        2.01531386025498       15.66112169008443
H           35.10279933171303        0.51943398807906       15.57430717486670
C           37.53461416430765        0.75417042664549       14.13829727076276
H           37.49109206202347       -0.30828784484192       13.86992441573047
H           37.36758741476007        0.84457737635212       15.21753760961717
H           38.53274027939045        1.13541748593415       13.90144713501613
O           35.73915731047446        5.75652113845673       11.64568795097016
H           34.94012925160369        6.16853243820313       11.96935361092988
H           36.59737269565317        6.01206736086420       11.92759628969695
C           32.24405723871068        0.05414601564617        7.55806136884999
H           32.13171525056691       -0.76994734065106        8.27385064429971
H           32.37427295304759       -0.36718361545660        6.55478115356416
H           31.32629791759249        0.65179941505037        7.58022534889250
N           34.71942873376486        0.75036987154301        7.71112050955246
H           35.09421088994559       -0.03367097490335        7.20447660094279
C           33.40309552274867        0.92767026870390        7.95236247500156
C           35.45707070503094        1.73082418075846        8.26296159848988
H           36.52234414740541        1.85229803825124        8.15908054133367
N           34.60261204840732        2.52836948037339        8.90831598222562
C           33.35046795488613        2.07786711969896        8.73283415042211
H           32.50757967318530        2.59636594274745        9.15173415940136
78
 energy: -116.039449441468 gnorm: 0.033289798741 xtb: 6.7.1 (edcfbbe)
Fe          35.19408630128677        4.14478964191957       10.24022691230669
N           37.10214278632835        3.89295110443320        9.68502063243636
N           34.92538062118062        5.49547344250018        8.75245526646654
N           33.30148014073840        4.53506559791504       10.97043045818315
N           35.48633187579639        2.89844677922178       11.81496333838395
C           38.01674196950120        3.05549733234252       10.25435096392271
C           39.25649415703793        3.07326119798204        9.49456666092074
C           39.05746589545903        3.93178143654877        8.45102564153271
C           37.70383649647864        4.42988489721359        8.58228307171182
C           35.81617183773094        5.81599343468400        7.77373817843751
C           35.23743193129147        6.77406465936191        6.84462202172307
C           33.96477220536524        7.02603816714084        7.29822811260551
C           33.79361744890748        6.20848670431243        8.49631776518367
C           32.43750901797001        5.46749891278002       10.46637213378156
C           31.27860536461877        5.60084553309415       11.32659922917595
C           31.46077149886971        4.72012629261874       12.37710098641944
C           32.72743710395203        4.05383936570318       12.10569555886723
C           34.58969367685329        2.60769803683518       12.80022017185035
C           35.18937958327017        1.73732471090801       13.79292735568933
C           36.47655464521129        1.52973153455339       13.39277919043943
C           36.63999060710045        2.25030747800749       12.13987998470783
C           37.80860884484805        2.27726745317280       11.38659201205209
H           38.62141847796767        1.63624378452567       11.70443783579161
C           37.09977437916465        5.29434606174532        7.67787893066468
H           37.67877068014857        5.58181146252386        6.81067880078603
C           32.66142733267397        6.19370441411838        9.30068266091554
H           31.85673125001372        6.84230613704855        8.98553698519430
C           33.29331977258761        3.08259854881464       12.91828771926242
H           32.68780652390245        2.68086754912202       13.71913137108872
C           39.99365143628471        4.27453623190972        7.33622494102059
H           39.62796659131651        3.86272709755583        6.39457181077939
H           40.98450301249607        3.86296654710883        7.51381442797438
H           40.09071714377006        5.35156218044952        7.21236087160032
C           40.47307104453583        2.25031662130646        9.77938683748276
H           40.35650016198495        1.24587794061026        9.36739601881299
H           40.65730266204643        2.15325917218059       10.84620805019602
H           41.35978727789795        2.68900301602164        9.32520855772407
C           35.90093943397690        7.29360373536777        5.60799852980692
H           36.43717751590405        6.49948222231866        5.08913165993388
H           36.62179689370210        8.08255282253001        5.82934873712296
H           35.16052813176491        7.70216182051472        4.92217213830770
C           32.94709142729242        7.89695400105003        6.72857516256649
H           31.92307292248920        7.53783970395264        6.76535670057118
C           33.16641977578274        9.08661193018913        6.17647130860025
H           34.15028454122212        9.51646286315104        6.12751388825233
H           32.36328798883707        9.68375384953510        5.77163323161869
C           30.13996721325806        6.54279762042903       11.09947069159863
H           30.09485492567581        6.88151107917409       10.06920566993538
H           30.23439179060724        7.42516496973644       11.73685020934972
H           29.19072362517628        6.05986637343417       11.32731618112917
C           30.66233747006363        4.49775485327485       13.56936521685314
H           30.98026566302368        3.69570044854847       14.22951668248056
C           29.59740059746916        5.20872270603322       13.92396280892494
H           29.25461408252671        6.02680777309422       13.32480919349870
H           29.02724847592989        5.01566162887968       14.81793016834547
C           34.47286773796873        1.20651062006284       14.98808321051305
H           33.58980210838421        0.64942270314560       14.67519607504683
H           34.14258384195055        2.01020316897950       15.64561003755139
H           35.10531301460549        0.53396801538795       15.56074993958756
C           37.52592719603748        0.76154466550230       14.12448349871160
H           37.49096494534204       -0.29564978109363       13.86236365460194
H           37.36864320836073        0.84389329720088       15.19836018396563
H           38.52007786852587        1.13572104748717       13.89923189888562
O           35.73738996324175        5.77142137136036       11.61366921210818
H           34.96346833546276        6.18900214288512       11.99793708587711
H           36.59928781416394        6.02543579431492       11.94793231769153
C           32.25978194793643        0.05945129590976        7.56289884931235
H           32.14129510918983       -0.76648905947262        8.26392421985429
H           32.39239490055768       -0.35439079935417        6.56638487257745
H           31.34311308496698        0.64231279525177        7.57878388598903
N           34.70749627936909        0.73989144722866        7.69695375767048
H           35.08831979105726       -0.04034973801744        7.18357724561708
C           33.38677116528819        0.93895794661922        7.97465416055596
C           35.42323505790930        1.73359188371393        8.27638920946164
H           36.48400266802089        1.84568717750164        8.17722201939186
N           34.62037416934907        2.55180122443556        8.92516217705696
C           33.36392798763503        2.07997230097709        8.73905412754323
H           32.52030757338714        2.59117960047004        9.15454871544181
78
 energy: -116.045063285207 gnorm: 0.028107768278 xtb: 6.7.1 (edcfbbe)
Fe          35.19378002859687        4.14848932829217       10.24748331464290
N           37.10027340415664        3.88308276390776        9.67770168833109
N           34.92018391603550        5.48296476779504        8.75146681297747
N           33.29907949792476        4.54235505541554       10.95905329047308
N           35.48521558259100        2.89861823215543       11.80843215336808
C           38.01096575224771        3.05182582061593       10.24627667886534
C           39.24472838791729        3.06363933780506        9.48702348982770
C           39.04481150325849        3.92049057330237        8.44325174170308
C           37.69222333467776        4.41752347889442        8.57657091149060
C           35.80592215779096        5.79944281862288        7.77269854992599
C           35.23333582682483        6.75742843425734        6.85242897630300
C           33.96334244945145        7.01454819937262        7.30652750763245
C           33.78979091049946        6.19366210254069        8.49883131941284
C           32.43756881683461        5.46913703680735       10.45369684919806
C           31.28118474268053        5.60238587834086       11.30849136869899
C           31.46311243858110        4.72062114847532       12.35639700236164
C           32.72852333470439        4.05529771966669       12.08929935444505
C           34.58695802218531        2.59433326691978       12.78418763173312
C           35.18506374008757        1.72936211291899       13.77596147332360
C           36.47569209572977        1.52801698938986       13.38303670787613
C           36.63620095135796        2.25256432337052       12.13565198777805
C           37.80095979593220        2.28808020487339       11.38566557181619
H           38.61913107785887        1.66252942077522       11.71512343877644
C           37.09526450516736        5.28847160067717        7.67887103131627
H           37.68905062486141        5.60427410451350        6.83075528173360
C           32.65321063215200        6.19774099384064        9.29131286543242
H           31.85693087340217        6.85922174227751        8.97957516602104
C           33.30000646320943        3.08802170619695       12.90140812260588
H           32.70895714842335        2.71517989789547       13.72802623766801
C           39.98186335213566        4.27336175906635        7.34061295629434
H           39.62266990513741        3.86730494312696        6.39384445644450
H           40.97177904194847        3.86421595856641        7.52618077218103
H           40.07357728802384        5.35234171262455        7.22881595237036
C           40.45984803510004        2.25297605094700        9.78212452362900
H           40.35013023017505        1.24426360125000        9.37842907085682
H           40.63746067702323        2.16908239842888       10.85126612035314
H           41.34191266558474        2.69868574818372        9.32729963085599
C           35.89364670464956        7.28082683297136        5.62567517046258
H           36.43267110075170        6.48828378249390        5.10785880578095
H           36.60961976662955        8.06935508083611        5.86221178406364
H           35.15115015634522        7.69370319824319        4.94525900682500
C           32.95702603432633        7.88510076897966        6.74311033156160
H           31.93553686238683        7.52358846709710        6.79697271638927
C           33.17682027826356        9.07080078329400        6.18208935947323
H           34.15732621324886        9.51081886081635        6.13728676215416
H           32.37487918359794        9.66246359189231        5.77230139395198
C           30.14896383490408        6.53782423240902       11.07292749631388
H           30.12530142577387        6.88456051555266       10.04438571627139
H           30.23389265205262        7.41283965513611       11.72194195969267
H           29.19843282124798        6.04831331350896       11.27912283709205
C           30.66284227508478        4.50142835130243       13.53518380135848
H           30.99164886043762        3.69026765349402       14.17560315384135
C           29.60171003518199        5.20580501058053       13.93250816108684
H           29.23822701889392        6.05605079488524       13.38289143198828
H           29.05852947026210        4.97960814542839       14.83498162817870
C           34.47808847915203        1.20489363783567       14.97658270351562
H           33.59157911054735        0.64512793839850       14.67679279182190
H           34.15470455737223        2.01552959009987       15.62977360273248
H           35.11887681351911        0.54021735192930       15.54947361977814
C           37.52574834274406        0.76100913598612       14.10966991960690
H           37.49542147864270       -0.29644353707915       13.84443547493041
H           37.36989268572891        0.83913236038270       15.18444657510263
H           38.51905171390605        1.13978941945931       13.88598446890738
O           35.75050661831176        5.83509876380566       11.55863150046809
H           34.99351839530267        6.20027689869232       12.05096256478541
H           36.60400175357433        6.02691220627012       11.98045372764771
C           32.26564102523832        0.06610985793241        7.56690284839547
H           32.15404775154636       -0.77038350256715        8.25708104766097
H           32.42200467210434       -0.33499273964231        6.56825284953848
H           31.33990450205385        0.63419004035169        7.57660407779171
N           34.69771519319665        0.74489545204586        7.69929032710869
H           35.07548906106398       -0.02843771801644        7.17332698894723
C           33.37665868191190        0.95424480178703        7.99305865437569
C           35.40980369659805        1.73309496632777        8.29315905857984
H           36.47124962427425        1.83249803364569        8.20226129987070
N           34.62392944542248        2.55654206785453        8.94524176617401
C           33.36125698460985        2.08687275364124        8.75996187638669
H           32.51897550887060        2.59564194982720        9.17956073066488
78
 energy: -116.047652028579 gnorm: 0.036607080512 xtb: 6.7.1 (edcfbbe)
Fe          35.19190613036804        4.15413009273430       10.25169300811202
N           37.09026949038165        3.87538232229560        9.67180135397689
N           34.91105695926809        5.45997250398117        8.74866098287330
N           33.30358056358248        4.54770010719911       10.94643250134939
N           35.48673921669281        2.91033111436891       11.80475407436522
C           38.00365651828119        3.04773997098498       10.24040909851285
C           39.23280396723209        3.05586466102144        9.47946962831239
C           39.03141191968040        3.90864789297445        8.43656400871919
C           37.68078987033469        4.40729701790789        8.57104454190243
C           35.79886072468096        5.78049125059951        7.77461255531382
C           35.22996691095835        6.73949876843110        6.86200058458291
C           33.96466314751357        6.99923606816663        7.31560853177730
C           33.78683330430538        6.17613816068369        8.49975465449852
C           32.43904573517226        5.46818848507838       10.43943676900073
C           31.28523711468711        5.60150603498126       11.28822952961081
C           31.46645815471931        4.72410550804451       12.33453774252635
C           32.73313853568784        4.06099716630106       12.07528925544654
C           34.58597911727090        2.59376694435402       12.77257326322719
C           35.18204998619686        1.72160255250505       13.75648418889199
C           36.47221952701359        1.52648982854627       13.36840783283672
C           36.63530372555795        2.25893410398445       12.13011860701390
C           37.79942054107712        2.29684446385383       11.38619168105279
H           38.62326873794466        1.68707548723691       11.72760298203520
C           37.09091833992090        5.28461703244388        7.68089614633866
H           37.69556155799162        5.62535772813025        6.85018306823978
C           32.64818838585775        6.19930518599620        9.28057466539265
H           31.86177966613181        6.87412162562064        8.97201112112113
C           33.30637622240160        3.10122902473928       12.89195211497009
H           32.72826448288067        2.74786551323436       13.73437703829093
C           39.97110855559443        4.27346599312276        7.34068392861269
H           39.61910212504601        3.87564632846107        6.38717706811415
H           40.96139020497033        3.86707595257352        7.53257594705999
H           40.05534554035697        5.35550343545469        7.24447797599705
C           40.44981636519250        2.25343244658818        9.78705293140936
H           40.34705937406253        1.23862329704744        9.39586271455895
H           40.61844965853800        2.18662343954459       10.85988625983842
H           41.32922725743922        2.70314384000191        9.33083917117540
C           35.89169453997721        7.27017599214083        5.64057770800720
H           36.43366180214593        6.47970851726632        5.12250851099769
H           36.60309721723360        8.05843800356070        5.89275867273133
H           35.14645543368235        7.68607186100323        4.96501521404778
C           32.96043098419938        7.87585952508922        6.75828126673765
H           31.94035178621251        7.51313445468628        6.82360702863092
C           33.18575017228633        9.05695507780277        6.19155697327180
H           34.16811239835079        9.49422215832869        6.14022721131709
H           32.38483950350997        9.64542629051376        5.77622274514148
C           30.15121562556762        6.53269674560235       11.05075332165143
H           30.14361521465156        6.88783321826776       10.02310328748885
H           30.22703961590673        7.40226681393495       11.70749114280133
H           29.20274198654315        6.03525728825279       11.24813332945294
C           30.66425108665183        4.50468353522953       13.50857591157605
H           30.98153914916177        3.67069085486715       14.12346706601740
C           29.61513627700888        5.21106252844562       13.93452566064854
H           29.22708537079979        6.06885111050974       13.41167901919039
H           29.09157787602284        4.94518537843825       14.84017089204738
C           34.48188086950213        1.20052337947082       14.96486463070267
H           33.59247925294803        0.63814287432488       14.67753981329107
H           34.16683806518703        2.01938185611176       15.61371566037632
H           35.13295112631742        0.54243339450697       15.53510605876031
C           37.52701729715996        0.75725721988904       14.08984357565309
H           37.50056126248858       -0.29893946262000       13.81545677899004
H           37.37223980888663        0.82802201047390       15.16607516439963
H           38.51866295422951        1.14351177476407       13.86592317896593
O           35.76956823304899        5.89872595297205       11.51758616602331
H           35.03222772621251        6.21263300737869       12.08047077353729
H           36.60346799334156        6.02406754830773       12.02562437810517
C           32.26841196838809        0.07481455262906        7.56866617697985