78
 energy: -116.057981821091 gnorm: 0.000072187373 xtb: 6.7.1 (edcfbbe)
Fe           9.72618763236561        2.22005684060479       26.44062670288841
N            8.90652093767555        2.34624270247645       28.27639262126503
N            9.81029671123133        4.23111453003125       26.35448001198482
N           10.48238968523017        2.10379223223786       24.60065565155662
N            9.58065484561349        0.23382850925982       26.52145651694260
C            8.51634723499423        1.31362650290329       29.07161541810078
C            8.02322143172034        1.80191190905631       30.33895619159782
C            8.13483517672275        3.15740606235379       30.29626686359627
C            8.69006300243344        3.47910898153204       29.00113992077301
C            9.46812302246089        5.11061967175013       27.33762212648685
C            9.72270277093406        6.46563338754541       26.92390508729943
C           10.24124045967970        6.39157834758376       25.65728832635556
C           10.28124103082300        4.98174371656037       25.32391699162722
C           10.84743869037428        3.14093134923466       23.79862575434886
C           11.37322557397788        2.66096297046183       22.54482877414806
C           11.32638929742829        1.29441949930640       22.60840792247323
C           10.75520709024018        0.97422182020127       23.90358571579495
C            9.98298329598722       -0.64756113525733       25.57061592699140
C            9.73383151993131       -2.00881083747749       25.99437793049552
C            9.16579154588511       -1.92656334217541       27.22644301958470
C            9.08336374270807       -0.51633879445975       27.54029690218286
C            8.58233008260814       -0.02553494443158       28.73158674110966
H            8.22651507797742       -0.74133752214660       29.45693407751830
C            8.94756104747632        4.76651045428817       28.57379700538324
H            8.73531788512496        5.56810578764112       29.26432187469426
C           10.76431459428788        4.48223170814597       24.12947005072978
H           11.12352968709171        5.19462844416953       23.40253899041029
C           10.54339306294160       -0.31488146589875       24.35324840245917
H           10.82555127217049       -1.12591469368899       23.69955315654462
C            7.77529638723638        4.16706965554623       31.33184286450725
H            7.38434490928116        3.68407862077758       32.22401142679734
H            7.01654101056814        4.85264127206489       30.95325298405215
H            8.64945238331948        4.75412385232425       31.61434192133186
C            7.50809093146256        0.93011220643065       31.43267719161532
H            8.28253088602601        0.24227799136561       31.77358229414273
H            6.66143520531224        0.33806977526019       31.08441326587863
H            7.18244877998355        1.52601239106095       32.28171491097141
C            9.39960763356957        7.68147191321303       27.72039067849182
H           10.18815305314907        7.89348599516389       28.44437938365651
H            8.46739332160622        7.54882246041391       28.26763346022908
H            9.29745867670777        8.54214137556556       27.06237272463728
C           10.65121937330403        7.45929225287989       24.77253641303500
H           10.49116327915282        7.27881970120051       23.71571539153286
C           11.20159275605853        8.60803544176135       25.15211542938074
H           11.42828037614700        8.82249230799493       26.18186200924442
H           11.47028102448182        9.36718987820467       24.43634978535394
C           11.79921464364555        3.52252756372451       21.40759899355955
H           12.81445984348744        3.89404880521128       21.55772373610882
H           11.13754701369908        4.38151934128158       21.30613336508517
H           11.77519486964387        2.95398923531615       20.48024757550400
C           11.71452370992968        0.31909066108248       21.61374149305761
H           11.11707985056609       -0.58471315217577       21.58684714307482
C           12.72643810434896        0.44720848358765       20.76157230160447
H           13.38200487675192        1.30045875804664       20.77429906039960
H           12.95104784922299       -0.31583647354114       20.03472892654132
C           10.05534352768247       -3.21496083844876       25.18074338587809
H           11.11911457910654       -3.24556385773854       24.94411239512597
H            9.50073708161533       -3.20086304598770       24.24235472722540
H            9.79680775855282       -4.12476382660408       25.71713578262196
C            8.69776550965690       -3.01795310018459       28.12750477967849
H            8.85817045512783       -3.99129063110962       27.67064081144929
H            7.63372771740818       -2.91000710860766       28.33877645478642
H            9.23469180538407       -2.99219727770110       29.07644909852191
O            7.58700441010094        2.40808921177987       25.63188534487124
H            7.09494478240295        2.25346610500255       26.44553649414228
H            7.55294043495606        3.35448352412575       25.45500734774696
C           15.11183091699245        3.00656364136258       27.64468860625324
H           15.79514694041774        2.17408129081696       27.47693537634633
H           15.36449880255753        3.46795229987983       28.59924137745192
H           15.25466828789379        3.73802382476124       26.85557165983745
N           13.22452391828126        1.62792282539290       28.54434327808420
H           13.75801314363649        1.19285001194932       29.27897316469569
C           13.70218867473538        2.54038096656565       27.64046910377824
C           11.91745113277012        1.42160201211120       28.26662028738304
H           11.28478875628483        0.75426996726031       28.81461638465309
N           11.53902885254543        2.14733975949864       27.24254666194497
C           12.63825515732083        2.84877128295875       26.84216392952383
H           12.59098919782897        3.52463995737059       26.01364414288951
