78
 energy: -115.981749180920 gnorm: 0.233756261643 xtb: 6.7.1 (edcfbbe)
Fe           9.91700000000000        2.19900000000000       26.58300000000000
N            9.06700000000000        2.33400000000000       28.36100000000000
N           10.04200000000000        4.30600000000000       26.45799999999999
N           10.72100000000000        2.08900000000000       24.70900000000000
N            9.74000000000000        0.28800000000000       26.68700000000000
C            8.62800000000000        1.30200000000000       29.12200000000000
C            8.00600000000000        1.76400000000000       30.31500000000000
C            8.11000000000000        3.11000000000000       30.25800000000000
C            8.75700000000000        3.47100000000000       29.03600000000000
C            9.53700000000000        5.14000000000000       27.37300000000000
C            9.69600000000000        6.49600000000000       26.93600000000000
C           10.29200000000000        6.44700000000000       25.70300000000000
C           10.47400000000000        5.00300000000000       25.42000000000000
C           11.07500000000000        3.12900000000000       23.93800000000000
C           11.60900000000000        2.64400000000000       22.75800000000000
C           11.47800000000000        1.25700000000000       22.75400000000000
C           10.90000000000000        0.91700000000000       24.03000000000000
C            9.95200000000000       -0.60600000000000       25.67599999999999
C            9.51600000000000       -1.95300000000000       26.02400000000000
C            8.97800000000000       -1.84100000000000       27.23700000000000
C            9.11300000000000       -0.40800000000000       27.60400000000000
C            8.65000000000000       -0.00900000000000       28.81800000000000
H            8.29900000000000       -0.74500000000000       29.54000000000000
C            8.96400000000000        4.76900000000000       28.60600000000000
H            8.65900000000000        5.57200000000000       29.27700000000000
C           11.04700000000000        4.50100000000000       24.26900000000000
H           11.50500000000000        5.20500000000000       23.57500000000000
C           10.56400000000000       -0.34100000000000       24.43800000000000
H           10.78000000000000       -1.17800000000000       23.77400000000000
C            7.59400000000000        4.00900000000000       31.30300000000000
H            7.63000000000000        3.49400000000000       32.28700000000000
H            6.54100000000000        4.28100000000000       31.07700000000000
H            8.22100000000000        4.92500000000000       31.35300000000000
C            7.38400000000000        0.93600000000000       31.44800000000000
H            8.15800000000000        0.71300000000000       32.21300000000000
H            6.99300000000000       -0.02100000000000       31.04200000000000
H            6.56200000000000        1.51100000000000       31.92500000000000
C            9.27100000000000        7.74000000000000       27.69000000000000
H           10.15400000000000        8.18700000000000       28.19600000000000
H            8.51300000000000        7.47300000000000       28.45700000000000
H            8.84800000000000        8.48300000000000       26.98000000000000
C           10.71900000000000        7.51800000000000       24.76300000000000
H           11.10700000000000        7.23000000000000       23.77500000000000
C           10.66800000000000        8.81700000000000       25.02700000000000
H           10.29100000000000        9.17500000000000       25.99600000000000
H           11.00200000000000        9.55200000000000       24.28000000000000
C           12.17100000000000        3.55700000000000       21.68700000000000
H           13.25300000000000        3.72600000000000       21.87400000000000
H           11.64400000000000        4.53400000000000       21.71200000000000
H           12.04800000000000        3.08500000000000       20.68900000000000
C           11.92800000000000        0.31000000000000       21.74299999999999
H           11.57500000000000       -0.72900000000000       21.80900000000000
C           12.76200000000000        0.59900000000000       20.70400000000000
H           13.15700000000000        1.61700000000000       20.57200000000000
H           13.05000000000000       -0.18200000000000       19.98500000000000
C            9.62400000000000       -3.22100000000000       25.20900000000000
H           10.68900000000000       -3.53100000000000       25.14399999999999
H            9.23800000000000       -3.04200000000000       24.18300000000000
H            9.04200000000000       -4.03200000000000       25.69700000000000
C            8.34600000000000       -2.93400000000000       28.08700000000000
H            8.69600000000000       -3.92800000000000       27.73400000000000
H            7.24000000000000       -2.88800000000000       27.99500000000000
H            8.64500000000000       -2.80400000000000       29.14900000000000
O            7.43400000000000        2.33900000000000       26.01900000000000
H            6.97600000000000        2.40600000000000       26.85700000000000
H            7.05700000000000        2.32800000000000       25.21400000000000
C           15.37000000000000        2.90400000000000       27.13600000000000
H           16.00700000000000        2.00300000000000       27.00900000000000
H           15.71400000000000        3.46500000000000       28.03100000000000
H           15.46200000000000        3.54100000000000       26.23000000000000
N           13.49800000000000        1.67000000000000       28.36000000000000
H           14.09500000000000        1.30200000000000       29.07200000000000
C           13.91800000000000        2.47800000000000       27.32100000000000
C           12.18500000000000        1.46900000000000       28.25200000000000
H           11.59900000000000        0.86800000000000       28.94600000000000
N           11.73100000000000        2.11300000000000       27.17800000000000
C           12.81300000000000        2.74600000000000       26.58800000000000
H           12.68700000000000        3.33500000000000       25.68800000000000
78
 energy: -116.026670523370 gnorm: 0.089934153464 xtb: 6.7.1 (edcfbbe)
Fe           9.89316874214562        2.20069190930011       26.57004156604870
N            9.07319331357006        2.33346152544946       28.36774508986677
N           10.00943066173554        4.28419035045461       26.45648782975423
N           10.66664869159621        2.08699761025778       24.70979947219908
N            9.70745535742121        0.26658023512260       26.64668404675066
C            8.62806529126345        1.30592424804029       29.13865925439171
C            8.00847696326998        1.77661628277446       30.33812162811615
C            8.10518834082571        3.12776567112894       30.27813561094086
C            8.75736535271780        3.47525078205949       29.04150086087594
C            9.53664758621476        5.14173412361646       27.38309883915457
C            9.69920621945842        6.50333534523329       26.93096487966647
C           10.30193216546235        6.44540657200097       25.69755394818977
C           10.47780610215416        5.00603782290353       25.42653924259404
C           11.08158614592748        3.12690740452781       23.94701101398771
C           11.61799052170992        2.64538229829406       22.73034410663734
C           11.50267075461178        1.26640805577729       22.73664055970210
C           10.89777673626457        0.93683637707667       24.01328994753479
C            9.96976296200983       -0.62604196064442       25.64734123046957
C            9.52295211060254       -1.96272080756436       26.00946239080647
C            8.98300754807332       -1.85919224095387       27.24095532189405
C            9.11661638153496       -0.45192288126026       27.60896139420989
C            8.65943040705630       -0.02411542286855       28.82753275621535
H            8.28934211899725       -0.74492857352358       29.53867602157862
C            8.97058053004987        4.77105584259635       28.60491387057998
H            8.66048614790482        5.56823127035267       29.26860404341690
C           11.04553918829630        4.48999777394411       24.28060619543783
H           11.48738582334102        5.18871570628389       23.58217246775857
C           10.57362932125956       -0.33619125891144       24.43201476014217
H           10.77956306433835       -1.16711902531025       23.77150701711566
C            7.58988346164333        4.03725717375485       31.31912174432043
H            7.62336313880929        3.52606445350492       32.28640952542857
H            6.54980819522660        4.30349806520231       31.09696149674841
H            8.20139177782848        4.94064260948031       31.36992556790122
C            7.39283599949099        0.94596033493210       31.43732020203930
H            8.14573753105032        0.71585873595498       32.20097927678428
H            6.99822657093128        0.00175701408151       31.04948021063909
H            6.57612333500351        1.49682771840228       31.91286233258994
C            9.27055099963064        7.72654416200632       27.68898619163088
H           10.13530643673179        8.18212605518581       28.18948336128464
H            8.52368908435532        7.47864951476069       28.44826025180598
H            8.83403105000205        8.46173138167429       27.00606252291265
C           10.71190703631569        7.50802317248153       24.77702696250521
H           11.09321589578889        7.20680240526643       23.80195878547962
C           10.67017450720808        8.81483670154796       25.02780193534419
H           10.31987723611428        9.19589849015136       25.97423351627885
H           10.99605644830763        9.54037613621286       24.29081088916525
C           12.16901884623906        3.55471706609978       21.67613070933031
H           13.23799493436594        3.72656056338161       21.85805775482989
H           11.65380488732042        4.51849703235295       21.69885014458631
H           12.03639506731039        3.11484029082646       20.68688162265617
C           11.93605093905703        0.31958458912406       21.73263900576695
H           11.57603815365956       -0.70593000870689       21.81990725210382
C           12.75773744418395        0.58910790571086       20.70935568824365
H           13.18011191070993        1.57298377996107       20.57053482576498
H           13.04021699470854       -0.17653430493390       19.99790904316222
C            9.63229567373320       -3.21246438005714       25.19663381455929
H           10.67909133410852       -3.52987081343287       25.13194857704105
H            9.24543259437473       -3.05112311997650       24.18670220388205
H            9.05668608003702       -4.01295193419788       25.67237371240349
C            8.35200063388900       -2.92829302826622       28.08531578584160
H            8.68710333971608       -3.91311601622301       27.74690968949526
H            7.25924070730217       -2.88748650000019       28.00453132174927
H            8.63608318982362       -2.81294457867433       29.13554809100935
O            7.48250660941539        2.33348175549899       26.03633613663730
H            6.98846852643379        2.40654327612277       26.85103908668826
H            7.05689630987553        2.32875014797561       25.19743231689793
C           15.35757086214859        2.89450109730241       27.14176977827318
H           15.99926736140844        2.01591421563616       27.01187412062822
H           15.70931997260064        3.45572371899930       28.01456337851509
H           15.45023382900160        3.52566865036295       26.25381035357247
N           13.51325976225044        1.67287890385476       28.36145958702721
H           14.11036405288268        1.29909954364163       29.07723337290034
C           13.92669499723255        2.47595625201950       27.32598745207677
C           12.18659371162545        1.47983808396782       28.24540754251166
H           11.60413291597539        0.88267776871799       28.92756483546058
N           11.72058810995066        2.12354722417252       27.18985095133287
C           12.80467629184486        2.74291315693657       26.60510030829305
H           12.68504070256346        3.32778050104444       25.71229139786500
78
 energy: -116.040350945788 gnorm: 0.030990548618 xtb: 6.7.1 (edcfbbe)
Fe           9.87168818707405        2.20952792776210       26.55640067596065
N            9.07704060401296        2.33595703597943       28.37563324581150
N            9.97333001297194        4.26331871686063       26.45364052362345
N           10.61256624165917        2.08635762029255       24.70343455795848
N            9.67840639878007        0.24976112341033       26.61652571331189
C            8.63106583282086        1.31093042092740       29.15148635684657
C            8.01619406138331        1.79086337704355       30.35720371127428
C            8.10518307231812        3.14628772939409       30.29801991141864
C            8.75887077005999        3.47932936260046       29.05074579382346
C            9.52687276153257        5.13932495930036       27.38991618893806
C            9.70156270261548        6.50242284325558       26.93558975718293
C           10.31113689007909        6.43515683358135       25.70434475708150
C           10.46644887547281        5.00453056582823       25.43167795560914
C           11.06950486918779        3.12613272963850       23.94869673250592
C           11.62419422671280        2.65051261333673       22.71451868198185
C           11.52057171425302        1.27855360458366       22.73023938844829
C           10.88098934159303        0.95430320727102       23.99665471184819
C            9.96758079706596       -0.63975996905275       25.62355883501155
C            9.53501632654466       -1.97315427514768       25.99673635642122
C            9.00057762788625       -1.87484210457675       27.24129338921751
C            9.11769877801840       -0.48580981855368       27.60963019084992
C            8.66798947852010       -0.02743312707588       28.82754293320108
H            8.28263518042536       -0.73912458583586       29.53401942537942
C            8.97153717700404        4.77242148072022       28.60696460018187
H            8.66045664706462        5.56676174794801       29.26790030337467
C           11.02473118978480        4.47731155832538       24.28551943839776
H           11.46276092635176        5.17193801055072       23.58640599665793
C           10.56609286539190       -0.32793274976326       24.42025027859668
H           10.78455094003749       -1.15473541850817       23.76348936288017
C            7.58743255040308        4.07307451094932       31.33510134734338
H            7.61506374977064        3.57250968414069       32.29866232678505
H            6.55443880016491        4.34143962501021       31.11694401442434
H            8.18589062613115        4.97396410767576       31.38764708081280
C            7.40255826217916        0.95900571290407       31.43250035180120
H            8.14269755348073        0.71792222081988       32.19636347751714
H            7.00725404513770        0.02505278308297       31.04304202403541
H            6.58595307151839        1.49534671024981       31.90820483220351
C            9.26769443391224        7.71269661771485       27.69119799100175
H           10.12236360121851        8.17811206213489       28.18482715298069
H            8.53109206947474        7.46584959521736       28.44921738677204
H            8.81998005405142        8.44106874112905       27.01987250212923
C           10.70979331889887        7.49014545675107       24.79998777192401
H           11.07284786451723        7.17292754295640       23.82953780102319
C           10.67997211871236        8.80368704665458       25.03353264341258
H           10.34904235119945        9.21616899248617       25.96449250999468
H           10.99192882610844        9.51661208475766       24.28971894407234
C           12.16539070039783        3.55619048767825       21.66506904401830
H           13.22945481436265        3.72952432720532       21.83302107493770
H           11.65791838107653        4.51572196038977       21.68848173307876
H           12.02590651450534        3.13243809171020       20.67814845740877
C           11.94439184463472        0.32567138870880       21.73458776509277
H           11.56078263879888       -0.68381485442196       21.83693783724465
C           12.76679515055554        0.57350473008090       20.71844471639599
H           13.21392469852142        1.53504436339324       20.56425320680756
H           13.02836059521806       -0.18592468186941       20.00408970173969
C            9.64396611320296       -3.20941073813490       25.17731973223323
H           10.68204460130717       -3.52881983546651       25.10531164019718
H            9.25584661100786       -3.05321921157836       24.17539638641115
H            9.07254293597617       -4.00765263281247       25.64363984691754
C            8.36561807443341       -2.93031921871564       28.07918261164509
H            8.68261919837047       -3.91629314922967       27.75256675262474
H            7.27861857176541       -2.88099533418764       28.00719370403089
H            8.63891921154800       -2.81848444141463       29.12472825425613
O            7.55017867870923        2.32004717099873       26.03379991704086
H            7.01465050161006        2.40861270479415       26.82385191641636
H            7.07764774018428        2.33441671703681       25.19950880950410
C           15.34584177790258        2.88608613109798       27.14693323940553
H           15.98974469667884        2.01827036832511       27.01531442778461
H           15.70191092838523        3.44733826518651       28.00907130033876
H           15.43245593500767        3.51489796046710       26.26758705691051
N           13.52310476823687        1.67000149313917       28.36719602659741
H           14.11896503840787        1.29048415220281       29.08436335195470
C           13.93113607757397        2.47213860635213       27.33433333310025
C           12.18707865509990        1.48826336481855       28.24738555508448
H           11.60417567380333        0.89427731294868       28.92027550050962
N           11.71715954117246        2.12981889411477       27.20312403483600
C           12.79810569722373        2.74454529682368       26.62550003416333
H           12.68748584082013        3.33214539562726       25.73949309928580
78
 energy: -116.044849351214 gnorm: 0.020661743408 xtb: 6.7.1 (edcfbbe)
Fe           9.85764998364711        2.21771665393333       26.55043228482375
N            9.07599114860410        2.34398714662190       28.38489198185657
N            9.95030107314881        4.25116070000842       26.45592806052689
N           10.58395694182681        2.08912380366194       24.69487386974348
N            9.66441066753109        0.24195993471419       26.60312240423888
C            8.63359708891312        1.31763719690660       29.15987910818906
C            8.02548753806645        1.80386230954403       30.37114524314784
C            8.11037835933767        3.16121810832262       30.31592717841634
C            8.76025047811191        3.48524991466007       29.06423364810322
C            9.51397640198258        5.13370557844305       27.39575483566306
C            9.69708065594417        6.49444517069623       26.94722245249313
C           10.30634032939192        6.42348171138629       25.71643827751181
C           10.44603763623329        4.99951425940676       25.43642694294836
C           11.04600288827147        3.12971038417121       23.94302594517099
C           11.61982270163077        2.65955898632651       22.70761704502344
C           11.52234759581149        1.28964057389549       22.72802963579193
C           10.86526803014296        0.96414864729585       23.98624489160407
C            9.95884943158799       -0.64361851452722       25.60998228980672
C            9.54489381329407       -1.97996841035637       25.98513188203149
C            9.01691931894892       -1.88545821503949       27.23606757302538
C            9.11501118175787       -0.49809846856270       27.60602933237442
C            8.67026823545010       -0.02131274200159       28.82218388836211
H            8.27861595872184       -0.73163536780378       29.52899146798711
C            8.96793181728813        4.77518642358087       28.61598470434934
H            8.65957316285202        5.57049662074953       29.27676016007165
C           10.99506315522416        4.47301756543023       24.28481100863677
H           11.43064318462755        5.16849535657118       23.58535641603123
C           10.55629122914320       -0.32063155630941       24.40763532983942
H           10.78878663543907       -1.14388981912161       23.74964178176193
C            7.59008164053833        4.10466904048991       31.34577881133677
H            7.61039271518868        3.62021562964885       32.31825138879461
H            6.55857191874172        4.37996318099466       31.12564200692188
H            8.18490379309002        5.00969917610297       31.39536756109043
C            7.40910762757616        0.96838914351681       31.43805879387448
H            8.14507103959354        0.71612692208334       32.20269930065886
H            7.01222626210986        0.04041548819959       31.03579300049433
H            6.59200241210989        1.50246965036419       31.91605345238023
C            9.25893852125224        7.70040690969439       27.70135321994082
H           10.11162669348628        8.18159636659021       28.18329070233162
H            8.53423943626892        7.44444255387505       28.46795180407278
H            8.79059833614777        8.41896805971573       27.03217194817134
C           10.70312067309014        7.47371171237805       24.81391445013137
H           11.05203069141315        7.14043291600653       23.84397899642923
C           10.69272661126316        8.79057993964645       25.03238939057144
H           10.39985184464316        9.23280247950225       25.96621605716470
H           11.00010098211391        9.48727097762015       24.27131467120261
C           12.15615181893257        3.56367193136260       21.65408601642612
H           13.22423328132064        3.73222281195814       21.80262066994033
H           11.65543990075077        4.52716663324304       21.68311249422786
H           12.00075278829015        3.14560500993783       20.66497953773470
C           11.94048448556278        0.32888577094510       21.73756868770332
H           11.53419122971375       -0.66941995337767       21.85101618018784
C           12.77503632081106        0.54961123722385       20.72308186153228
H           13.27479058572137        1.48987391084138       20.57038225365369
H           13.01844196143156       -0.22199827143401       20.01419064912575
C            9.65827914532929       -3.20861470406122       25.15290103198177
H           10.69699136173566       -3.52533052502690       25.07029632579921
H            9.26773296053053       -3.04477289206244       24.15227068244758
H            9.09084171341009       -4.01502366181593       25.60991412478714
C            8.38223294447773       -2.94032907877677       28.07407013279960
H            8.68566061153661       -3.93155451463042       27.75001511565895
H            7.29498432396730       -2.87778066427477       28.00610191376509
H            8.65589640014766       -2.82858304969736       29.12017244116470
O            7.61032698642888        2.29795373251054       26.01265638070928
H            7.04948496824472        2.41859835857662       26.78445030754683
H            7.11375364868135        2.34655132350587       25.18798752864162
C           15.34002378751837        2.88050492493158       27.15390616072079
H           15.98460957455675        2.01364001523716       27.01874219788715
H           15.70095783074519        3.44273492082732       28.01365176227515
H           15.41816203590158        3.50955366789638       26.27397832069416
N           13.52230497293499        1.66274195139765       28.37722786264565
H           14.11741096266763        1.27739876569340       29.09245045235775
C           13.92878439248660        2.46856582725593       27.34695112030511
C           12.18354234337304        1.48902565748698       28.25691512836835
H           11.59718153330213        0.89494572427493       28.92520833529557
N           11.71568170134367        2.13574554677168       27.21745863095740
C           12.79410361924415        2.74991737699337       26.64350947675282
H           12.69019196734386        3.34662811725234       25.76313102080938
78
 energy: -116.047109295864 gnorm: 0.016643161111 xtb: 6.7.1 (edcfbbe)
Fe           9.84684886513473        2.22621754734443       26.54899050511990
N            9.06756868582550        2.35335356211876       28.39407958004979
N            9.92887030685876        4.24239015673307       26.45970782787012
N           10.56713303942235        2.09355888603337       24.68712903964477
N            9.65771734047552        0.23736592945403       26.59713709967129
C            8.63191745083298        1.32343380573312       29.16703555705300
C            8.03304342685770        1.81337144733099       30.38514639162367
C            8.11690069547898        3.17163696514631       30.33477752695125
C            8.75843245327239        3.49106929023965       29.07955475578378
C            9.49925166430678        5.12779605598614       27.40193726711039
C            9.68964090293459        6.48549297114181       26.96005332467998
C           10.29552303136758        6.41223444966761       25.72846185569641
C           10.42209111615179        4.99313823902477       25.44074293861441
C           11.02176361886080        3.13468544197276       23.93485199702954
C           11.61018768829367        2.66733403480237       22.70251318360275
C           11.51831156317033        1.29795689803818       22.72842254577909
C           10.85238990920728        0.97038463156090       23.98093456772186
C            9.95188735464742       -0.64333811899097       25.60235063543851
C            9.55344372283858       -1.98376619227966       25.97542046785879
C            9.03082927142136       -1.89366446177042       27.22952468712539
C            9.11263187626608       -0.50311855682235       27.60218150217231
C            8.66919918938689       -0.01362409265942       28.81523735611386
H            8.27707215155879       -0.72546289639679       29.52369867685438
C            8.96201724642442        4.77864940219688       28.62834063204506
H            8.66081818711340        5.57598885724302       29.29028720595435
C           10.96325566544502        4.47304946221346       24.28182995278909
H           11.39077792638540        5.17264400413717       23.58070490786325
C           10.54850235744441       -0.31458385103593       24.39893695983984
H           10.78903385132837       -1.13406297071792       23.73767122657954
C            7.59831854151027        4.13233697161656       31.35417290161046
H            7.60985201226297        3.66772765038918       32.33847157184508
H            6.56873699232600        4.41681758781689       31.12715365820113
H            8.19684247477739        5.03863136010869       31.39488287498817
C            7.41474293624027        0.97496782535099       31.45004012284266
H            8.14995305162877        0.71126921500562       32.21253217710416
H            7.01236552687167        0.05303684209352       31.03644374618584
H            6.60133605077823        1.51225513618434       31.93283527338368
C            9.25181279712627        7.69339125290846       27.71008277967629
H           10.10373022054059        8.18909960147676       28.17923427408983
H            8.53886943551831        7.43311572590908       28.48855999019736
H            8.77103799892068        8.40195361385505       27.03688934544200
C           10.69739364511521        7.45923732200520       24.82578888071613
H           11.01751516746183        7.11621842653329       23.84810069272643
C           10.71381894916729        8.77528963094155       25.03999760726377
H           10.43593744474062        9.23491471492890       25.97080752756345
H           11.01256491957810        9.45795674432222       24.26033109239136
C           12.14650143592690        3.56145095034199       21.63888596687690
H           13.21822896742752        3.72487882039028       21.77104190932764
H           11.65358902111263        4.53120194369041       21.66524579040407
H           11.98282457571421        3.12949166398838       20.65449960170793
C           11.93816310988983        0.33046064828533       21.74542023607361
H           11.49488127013273       -0.65365607763905       21.84973843741296
C           12.79308159376021        0.52757592305267       20.74223416741469
H           13.30024133247426        1.45954219989127       20.57519968085217
H           13.01172630774725       -0.25460242872701       20.03266073036025
C            9.67493629072756       -3.20359753884479       25.12700956374656
H           10.71678721684537       -3.51229933088449       25.03283176430769
H            9.28194771607606       -3.02568178691171       24.12751650832111
H            9.11459663254975       -4.02383393982509       25.57093788171323
C            8.40166094656900       -2.95299438620698       28.06892166896268
H            8.69549788598602       -3.94599252177672       27.73923165201238
H            7.31329655552231       -2.88099276497473       28.00838064276891
H            8.68443642823844       -2.84435107032536       29.11440134299865
O            7.65780180834256        2.26376367175086       25.97400843460883
H            7.08040198705255        2.44144933350327       26.72798623745068
H            7.15055159627996        2.37264845051291       25.15861625265163
C           15.33735806764739        2.87498298458398       27.16450081463253