78
 energy: -115.981507371293 gnorm: 0.247861665536 xtb: 6.7.1 (edcfbbe)
Fe         -24.36500000000000      106.48399999999999       -9.74900000000000
N          -23.61200000000000      108.29600000000001       -9.15900000000000
N          -23.28100000000000      105.57700000000000       -8.25800000000000
N          -25.02700000000000      104.66500000000001      -10.33200000000000
N          -25.34400000000000      107.35599999999999      -11.29500000000000
C          -23.90600000000000      109.49799999999999       -9.72700000000000
C          -23.29400000000000      110.55700000000000       -8.95400000000000
C          -22.59700000000000      109.96700000000000       -7.95200000000000
C          -22.78700000000000      108.55799999999999       -8.08900000000000
C          -22.49700000000000      106.22799999999999       -7.32700000000000
C          -22.03500000000000      105.23099999999999       -6.40000000000000
C          -22.47500000000000      104.02199999999999       -6.78000000000000
C          -23.27000000000000      104.22400000000000       -7.97800000000000
C          -24.67100000000000      103.45899999999999       -9.83000000000000
C          -25.10400000000000      102.41699999999999      -10.74700000000000
C          -25.73200000000000      102.99700000000000      -11.79200000000000
C          -25.70799999999999      104.41400000000000      -11.51200000000000
C          -26.04500000000000      106.70000000000000      -12.28500000000000
C          -26.46800000000000      107.64600000000000      -13.27000000000000
C          -25.96800000000000      108.96799999999999      -12.81000000000000
C          -25.26899999999999      108.69499999999999      -11.58400000000000
C          -24.66700000000000      109.66199999999999      -10.83600000000000
H          -24.81500000000000      110.68899999999998      -11.16900000000000
C          -22.28700000000000      107.59800000000000       -7.26000000000000
H          -21.64700000000000      107.94799999999999       -6.45000000000000
C          -23.91300000000000      103.24299999999999       -8.69100000000000
H          -23.82000000000000      102.21700000000000       -8.33400000000000
C          -26.25400000000000      105.35800000000000      -12.34000000000000
H          -26.92300000000000      104.99700000000000      -13.12100000000000
C          -21.78500000000000      110.63299999999998       -6.85200000000000
H          -21.83200000000000      111.73600000000000       -6.97300000000000
H          -20.72500000000000      110.30800000000001       -6.91900000000000
H          -22.20300000000000      110.36100000000000       -5.85900000000000
C          -23.41600000000000      112.05100000000000       -9.24200000000000
H          -24.39500000000000      112.25699999999999       -9.72600000000000
H          -22.60100000000000      112.36900000000000       -9.92700000000000
H          -23.35700000000000      112.62300000000000       -8.29100000000000
C          -21.16800000000000      105.54700000000000       -5.17200000000000
H          -21.40000000000000      106.57100000000000       -4.80800000000000
H          -20.09300000000000      105.49800000000000       -5.44900000000000
H          -21.38500000000000      104.81800000000000       -4.36200000000000
C          -22.21400000000000      102.64199999999998       -6.16300000000000
H          -23.01800000000000      101.89099999999999       -6.15500000000000
C          -21.04400000000000      102.29699999999998       -5.62600000000000
H          -20.20600000000000      103.01000000000001       -5.60800000000000
H          -20.90200000000000      101.29499999999999       -5.19400000000000
C          -24.79700000000000      100.93700000000000      -10.51200000000000
H          -25.51600000000000      100.52200000000001       -9.77300000000000
H          -23.76600000000000      100.82599999999998      -10.11300000000000
H          -24.89700000000000      100.37700000000000      -11.46600000000000
C          -26.38100000000000      102.43400000000000      -13.06600000000000
H          -26.76400000000000      103.15300000000001      -13.80400000000000
C          -26.53300000000000      101.15200000000000      -13.38000000000000
H          -26.17800000000000      100.36499999999999      -12.69900000000000
H          -27.01500000000000      100.86199999999999      -14.32500000000000
C          -27.29100000000000      107.34199999999998      -14.53700000000000
H          -28.26899999999999      106.90299999999999      -14.24700000000000
H          -26.74400000000000      106.61499999999999      -15.17400000000000
H          -27.47100000000000      108.28199999999998      -15.10200000000000
C          -26.12200000000000      110.23800000000000      -13.60900000000000
H          -27.14900000000000      110.63900000000000      -13.47400000000000
H          -25.95700000000000      110.02600000000000      -14.68700000000000
H          -25.39100000000000      110.99500000000000      -13.25500000000000
O          -22.70700000000000      106.21800000000000      -11.12400000000000
H          -22.76200000000000      105.31300000000000      -11.43100000000000
H          -22.09600000000000      106.81800000000000      -11.36200000000000
C          -29.32900000000000      106.11100000000000       -6.92700000000000
H          -30.10900000000000      106.75900000000000       -7.38200000000000
H          -29.36900000000000      106.22000000000000       -5.82200000000000
H          -29.52600000000000      105.05499999999999       -7.21200000000000
N          -27.49700000000000      107.79300000000001       -7.21600000000000
H          -27.97000000000000      108.50700000000001       -6.70000000000000
C          -27.98400000000000      106.52499999999999       -7.42600000000000
C          -26.31700000000000      107.90299999999999       -7.80300000000000
H          -25.69000000000000      108.79300000000001       -7.76600000000000
N          -26.05099999999999      106.76800000000000       -8.42300000000000
C          -27.07100000000000      105.88700000000000       -8.19300000000000
H          -27.05200000000000      104.88300000000000       -8.59800000000000
78
 energy: -116.029026002997 gnorm: 0.096784525125 xtb: 6.7.1 (edcfbbe)
Fe         -24.37222343895777      106.48194485121631       -9.73184727359324
N          -23.60928059937824      108.28987100479863       -9.16447382362371
N          -23.28747892991361      105.57436857214573       -8.26033415379935
N          -25.00857458276517      104.66609848684638      -10.36514620177735
N          -25.33092403590203      107.35603221458507      -11.28989014173705
C          -23.90931243664069      109.49703442107439       -9.72012857254817
C          -23.29317349844885      110.56314486478929       -8.95478385257270
C          -22.59659883799978      109.96703459603644       -7.95002113842110
C          -22.79890897146514      108.54630769910199       -8.09152438549557
C          -22.51646934844676      106.20718563143905       -7.32018902757925
C          -22.01820522524961      105.22418720065259       -6.38659215959849
C          -22.47285208429721      104.00358233028412       -6.77597958379381
C          -23.28273287292953      104.23517683528286       -7.96492460749280
C          -24.66168402199344      103.45599230859557       -9.85558154563804
C          -25.10639743982392      102.39827692476410      -10.74769121105046
C          -25.75316608109007      102.98821648111416      -11.79730601144151
C          -25.70807868379616      104.41342208512840      -11.52029580478445
C          -26.04647928877809      106.73146655842162      -12.27636708814560
C          -26.47177254071957      107.67894873265581      -13.26394848280738
C          -25.98411275714342      108.92953506457768      -12.83936909323185
C          -25.28869723328435      108.68267279432817      -11.60262285258255
C          -24.67947371098490      109.66857297787378      -10.84642631196118
H          -24.81547544973971      110.69001349503273      -11.18274362948925
C          -22.29154546742962      107.57730989138612       -7.25325857847315
H          -21.64993996141091      107.93105019751206       -6.45175098968463
C          -23.91892099718384      103.25030697152999       -8.69527229925168
H          -23.81513390943831      102.22928847486601       -8.34408063957866
C          -26.26207783612554      105.37054974967830      -12.34169228579362
H          -26.90874107765885      105.01263242164771      -13.13396074261772
C          -21.79180226298949      110.62642232961294       -6.86296863504950
H          -21.82763360512833      111.71512931236828       -6.96994374533713
H          -20.74392868206964      110.31085377205196       -6.91411171317239
H          -22.19060345811120      110.36235096056625       -5.87631564174446
C          -23.41828841788154      112.03678389380158       -9.24196437100821
H          -24.37919841070367      112.25694020058350       -9.71802149628854
H          -22.61647598549395      112.36564979127944       -9.91384551159565
H          -23.35548495573900      112.61342699389590       -8.31315199604654
C          -21.17265421825281      105.54637866676677       -5.17855585767427
H          -21.39520455060028      106.55318673317237       -4.81097464490220
H          -20.10917461442260      105.50135540189761       -5.43928264926591
H          -21.37510637554108      104.82757004254852       -4.37847296392302
C          -22.21282812050914      102.66754114804371       -6.16828623511730
H          -23.01851750217720      101.93317570068274       -6.17607739741224
C          -21.05167090839335      102.31137062601863       -5.62897602267137
H          -20.21037060135025      102.99277981533665       -5.60916094726938
H          -20.90485246297007      101.32155834856241       -5.20531219605326
C          -24.79710479454361      100.94454308683481      -10.50685642608935
H          -25.50329034189127      100.52427589741008       -9.78088985822949
H          -23.78162488654708      100.82635191152154      -10.11721338372744
H          -24.87684679500424      100.38091125815517      -11.43720975434983
C          -26.37095318486315      102.43554114996945      -13.03720355551736
H          -26.73956150032799      103.16191261164124      -13.76133168589655
C          -26.52931145451739      101.15762784585574      -13.36700758090034
H          -26.20275489111488      100.35843377506382      -12.71795325500059
H          -27.00159926725643      100.87205013901517      -14.30200492898182
C          -27.27467125581201      107.35780958078568      -14.50861357798135
H          -28.24428919630586      106.91679228735073      -14.24348957009559
H          -26.74838697044526      106.63787569491554      -15.14923669808136
H          -27.46373388718753      108.26570751693069      -15.08882064409897
C          -26.12496513157853      110.21617587549692      -13.59914661577957
H          -27.13371176501287      110.63237055891557      -13.47732227627948
H          -25.95978351806968      110.03579669661281      -14.66694850339849
H          -25.40568779539693      110.97151858868361      -13.26155925896913
O          -22.71633285345025      106.20012634062836      -11.11401286856990
H          -22.74226301814857      105.30573835798816      -11.45003323564684
H          -22.06860793719169      106.82766593008770      -11.37904741832089
C          -29.33172551169996      106.11264885235002       -6.92568245653173
H          -30.10925057948469      106.74536715518957       -7.36926450728056
H          -29.37944298619454      106.21227292781573       -5.83546184568796
H          -29.52454467861771      105.07338314312157       -7.20250741179201
N          -27.50701960303660      107.78977712886652       -7.20638448927112
H          -27.97904149234269      108.50862188026522       -6.68630290676923
C          -27.99677487468036      106.52969214483430       -7.42987073574862
C          -26.31687052396778      107.89227427264650       -7.81359208932876
H          -25.69766808029471      108.77231326452473       -7.77833790567406
N          -26.02900341430369      106.76517202881818       -8.42616180830899
C          -27.06238207063103      105.90170481142081       -8.19721499274464
H          -27.04456928875230      104.90384971172952       -8.59469324185224
78
 energy: -116.041383860768 gnorm: 0.031435461374 xtb: 6.7.1 (edcfbbe)
Fe         -24.37541540058412      106.48048164715625       -9.72506367149051
N          -23.62205783019866      108.28250937473288       -9.16438334677528
N          -23.31739928330583      105.57796093542596       -8.25024797759107
N          -24.99807162790213      104.66780615292258      -10.38876823149375
N          -25.32962577160221      107.36172776234808      -11.27876485827943
C          -23.91796344817222      109.49102956198975       -9.71749939191765
C          -23.29829786483285      110.55912325674745       -8.95688028908140
C          -22.60222670112667      109.95860591607119       -7.95019587652291
C          -22.81719912361960      108.53203783134904       -8.09455859636950
C          -22.54365741083201      106.19541424356227       -7.31543097109783
C          -22.01253276212482      105.22431253428303       -6.38220253336042
C          -22.47881941716719      103.99825748769989       -6.77933324045998
C          -23.30175584764313      104.24914045626356       -7.95719124015962
C          -24.64974017158164      103.45599925980778       -9.87706899932041
C          -25.10244053749239      102.38897002038726      -10.74573946594533
C          -25.76731878091071      102.98389490263006      -11.79452536181751
C          -25.70306300272895      104.41551663843397      -11.52657367088157
C          -26.04493797548383      106.74948662327833      -12.26164072626347
C          -26.47431740312770      107.70291884572210      -13.25281172449713
C          -25.99972290833177      108.90429488612726      -12.85621806102982
C          -25.30062591526091      108.67958226201789      -11.60978296486798
C          -24.68649184920881      109.67373681909268      -10.85580174439417
H          -24.81025077541685      110.69115764651993      -11.19711336288891
C          -22.30179896101711      107.56209975832907       -7.24954057037262
H          -21.65661243231878      107.91605282837827       -6.45615520453867
C          -23.92004744759485      103.25995655570937       -8.70506055333249
H          -23.80469733463012      102.24214226670212       -8.36025135524048
C          -26.26059673003074      105.38172017665887      -12.34422805178964
H          -26.88796876498129      105.03427563207617      -13.15177587589176
C          -21.79811405623289      110.61222899867163       -6.87439766646056
H          -21.82852987784283      111.69383385602457       -6.97675480855201
H          -20.75630657660353      110.29947414361446       -6.91904664345625
H          -22.18557036937461      110.35206078893101       -5.88973957108299
C          -23.42031510257857      112.01966016252800       -9.24327285157479
H          -24.37255674423779      112.24759977295530       -9.71433439456510
H          -22.62465546064115      112.35315381260473       -9.90982842561250
H          -23.35143612649294      112.59870098103039       -8.32499086651260
C          -21.17618154051346      105.54412393705121       -5.19019180738097
H          -21.39786270838447      106.54007013396675       -4.81634423692827
H          -20.11594298732600      105.50661528995117       -5.43826615384260
H          -21.36589242277620      104.82552907935482       -4.39645111186638
C          -22.21618319832056      102.69825411212780       -6.18880769428285
H          -23.02777100591996      101.97938351502003       -6.21074012554212
C          -21.06259094386570      102.33081604366794       -5.63881374536458
H          -20.21195064598997      102.98692179751644       -5.61259169672738
H          -20.92042064388996      101.35121219022322       -5.21169925529119
C          -24.79494802943498      100.95172803126896      -10.50143991059352
H          -25.49601289169408      100.52696457630474       -9.78327733059023
H          -23.78908736391204      100.83598100602050      -10.10666089611544
H          -24.85783546790213      100.38174417075389      -11.41979189413346
C          -26.36569390783055      102.43810348603915      -12.99524469743250
H          -26.71155488675094      103.17528644734051      -13.71101179194586
C          -26.53353990234730      101.16307251507401      -13.34220287058822
H          -26.23312942029075      100.34257815942752      -12.72052198549196
H          -26.98440793037475      100.89161969725130      -14.28290979612911
C          -27.26143861823194      107.37163625440341      -14.48031694068066
H          -28.22340573806323      106.92803377909614      -14.21988214731476
H          -26.73343837570878      106.65598607657884      -15.11270236134353
H          -27.45253126609060      108.26503492071848      -15.06813178205168
C          -26.12942073782012      110.20079568650617      -13.59098450135019
H          -27.12864086297273      110.62168572738271      -13.46884751479706
H          -25.96411499468372      110.03963504051930      -14.65521979119198
H          -25.40975924189464      110.94117474663085      -13.25013972753867
O          -22.69793322579493      106.18076313118586      -11.09206991024801
H          -22.69797753338667      105.30813318877593      -11.49294079657950
H          -22.05469338229470      106.81950275934672      -11.40005331231426
C          -29.33076963660725      106.11010502109970       -6.92801659969699
H          -30.11230005620389      106.73343231806706       -7.36027686589598
H          -29.37992376666317      106.20531989424461       -5.84491632053081
H          -29.52070957240662      105.07848155022714       -7.19852681367961
N          -27.50947609402108      107.78791146291840       -7.20336060930422
H          -27.97766797897840      108.50893280514052       -6.67814204141213
C          -28.00192000272346      106.53241129511254       -7.43804330711770
C          -26.31360707744939      107.88448268452291       -7.82351566580272
H          -25.70090659394731      108.75998117073104       -7.79141086892611
N          -26.01609120995810      106.76731612872709       -8.44063782667313
C          -27.05385519471309      105.91291084115772       -8.20463382848175
H          -27.04127514863058      104.91840452976319       -8.59809032133368
78
 energy: -116.044877142579 gnorm: 0.025902469025 xtb: 6.7.1 (edcfbbe)
Fe         -24.37351435299064      106.48178103605504       -9.72721728767086
N          -23.63494962328640      108.27795174019886       -9.16370080077109
N          -23.34282515500485      105.58686660473219       -8.24268825450560
N          -24.98952352442288      104.67078445380312      -10.39615792141459
N          -25.32414239065655      107.36743912647330      -11.27467791010944
C          -23.92515046623584      109.48697231429134       -9.71605577154067
C          -23.30345362002475      110.55193975603503       -8.95730703939069
C          -22.61016146690831      109.94973920261835       -7.95050030400326
C          -22.83456773907508      108.52534968050352       -8.09290009929676
C          -22.56702083499417      106.19933021312205       -7.31022968932611
C          -22.01761698031371      105.23175860341172       -6.38660929414260
C          -22.48529820986911      104.00700858028439       -6.78815536271938
C          -23.31721351008529      104.26061226807430       -7.95574034481033
C          -24.64112068738152      103.45952911367698       -9.88191598366547
C          -25.09711559312422      102.38937224228791      -10.73633291748404
C          -25.76885468804142      102.98248171908698      -11.78305129958253
C          -25.69799202720380      104.41639036713066      -11.52565234095758
C          -26.04204746412103      106.74956945810565      -12.24936369530593
C          -26.48185531391558      107.70238566603254      -13.24116847652158
C          -26.00061378923974      108.90927377761008      -12.85291744173565
C          -25.29907664583913      108.68565904306944      -11.60603254841401
C          -24.68660420036530      109.67915132604439      -10.85753542366615
H          -24.79874418585929      110.69558087999465      -11.20553208267631
C          -22.31887991583366      107.56133260968639       -7.24295453260627
H          -21.66702858029646      107.91186475529734       -6.45549536880421
C          -23.91824561992065      103.26753480513378       -8.70952496750288
H          -23.78713153877752      102.24938442677079       -8.37352554575666
C          -26.25408220235845      105.38427596364839      -12.34386192489125
H          -26.86686125310015      105.04670327211515      -13.16683762383983
C          -21.79975944213382      110.59601235646551       -6.87926985216729
H          -21.82536913602625      111.67749130553536       -6.98193660325269
H          -20.76018723239306      110.27666594371543       -6.92857891875424
H          -22.18366639442588      110.33545539396229       -5.89337944673019
C          -23.42123252180475      112.00959684381910       -9.24642031012311
H          -24.37443468746404      112.24022867716670       -9.71422794628364
H          -22.62657190088089      112.33900503914472       -9.91621028076796
H          -23.34561491621611      112.58960811338183       -8.32931549246360
C          -21.17693319662501      105.54554146976059       -5.19960609697161
H          -21.40467428112162      106.53559786508282       -4.81278535654043
H          -20.11633463058593      105.51905005887154       -5.44971028248566
H          -21.35489863174400      104.81474387551130       -4.41306880617895
C          -22.22504607690987      102.71305873606769       -6.20436743507060
H          -23.03947246322685      101.99873702792989       -6.24563185453380
C          -21.07770019943204      102.34298936027511       -5.64251070756418
H          -20.21848802200238      102.98892513690522       -5.61764128542322
H          -20.94209864381952      101.36368318992804       -5.21633901939338
C          -24.78540226723454      100.95550013073380      -10.48735083357867
H          -25.49335926451308      100.52484275302494       -9.77881996824537
H          -23.78450203733372      100.84774227637251      -10.07624680531878
H          -24.82718850134837      100.38049217212065      -11.40497795850102
C          -26.36235019485339      102.43606063570638      -12.97456135723262
H          -26.69356373947533      103.18227929843793      -13.68664910138851
C          -26.54512752031402      101.16390787428021      -13.32765922794968
H          -26.28717703805284      100.32647387908918      -12.70505382638985
H          -26.98663068691766      100.90992329927941      -14.27661379952335
C          -27.26301805502906      107.36931320678477      -14.46473473739408
H          -28.22211127117790      106.92498246219769      -14.20107951825330
H          -26.72354333609831      106.65665577669722      -15.08859307277550
H          -27.45124321023499      108.26331714634628      -15.05222257575066
C          -26.13137451832577      110.20556571950678      -13.58177103345485
H          -27.12924937177197      110.62500980470813      -13.45221742010652
H          -25.96989335116220      110.05023708640064      -14.64736748689909
H          -25.40588686364289      110.93466469412490      -13.23476701208559
O          -22.63817873107180      106.15201798861177      -11.04483898240436
H          -22.66939136421028      105.32179054635824      -11.55404820197593
H          -22.05178885227905      106.81877481932095      -11.43459544583617
C          -29.32516534655611      106.10301841234909       -6.93122008700363
H          -30.11549270823215      106.72175343265570       -7.35516684567804
H          -29.36955128063287      106.19499227822514       -5.84742843032459
H          -29.51205455505105      105.07061839826790       -7.20134654200931
N          -27.50722759826936      107.78682326483836       -7.20830545571167
H          -27.97042577956163      108.50547046579349       -6.67495431100659
C          -28.00075009824636      106.53211743862921       -7.44895313828308
C          -26.31339887365248      107.88471197544037       -7.83581685808401
H          -25.70295407614848      108.76128479775772       -7.80645334854038
N          -26.01569608455631      106.77141991610696       -8.45829917827698
C          -27.05366639411038      105.91818569951680       -8.22166298739089
H          -27.04446307387926      104.92463895149838       -8.61658250481040
78
 energy: -116.046257618396 gnorm: 0.047651299133 xtb: 6.7.1 (edcfbbe)
Fe         -24.36762919578490      106.48550557603943       -9.72616879416906
N          -23.64747013847976      108.27313496076619       -9.16378928885741
N          -23.37472358868903      105.60125519754830       -8.23085989016653
N          -24.97812257885972      104.67746457506314      -10.40103166435516
N          -25.30205578078390      107.37132669310787      -11.27389760420569
C          -23.92959071557120      109.48294866409337       -9.71645802327236
C          -23.30831854734343      110.54430427998115       -8.95789805798090
C          -22.62028253021142      109.94083171595823       -7.94986340020084
C          -22.85247136716147      108.52067775422101       -8.09064250097891
C          -22.59274326332909      106.20913453136806       -7.30243658311422
C          -22.02735866538387      105.24276854819287       -6.39212052204195
C          -22.49359488795490      104.02031786990453       -6.79891095747655
C          -23.33472769887068      104.27531447657915       -7.95442108559065
C          -24.63043532702391      103.46645507641136       -9.88395234511355
C          -25.09163987372300      102.39430609232359      -10.72427063971821
C          -25.76973317430029      102.98337640109173      -11.76796579708754
C          -25.68956754282530      104.41906713891676      -11.52457352978767
C          -26.02835537619708      106.74828877399237      -12.23766916445280
C          -26.48368466383859      107.70028702617947      -13.22657877985423
C          -26.00120887005049      108.91579477401582      -12.84187769702097
C          -25.28817395222922      108.69185815191072      -11.60196043615714
C          -24.68043860898812      109.68545442479881      -10.86098613786089
H          -24.78422666213739      110.70101523262797      -11.21344493759947
C          -22.33870303651442      107.56634314947567       -7.23324692678919
H          -21.68250292514160      107.91302142871068       -6.44960630022371
C          -23.91328510123368      103.27725386904703       -8.71375717195901
H          -23.76240496307419      102.25869314009137       -8.38806891097016
C          -26.23893211106950      105.38775564758879      -12.34641206355610
H          -26.84301989602100      105.06562565749825      -13.18120987797482
C          -21.80000460059827      110.57624636775121       -6.88163064687974
H          -21.81735394355434      111.65888639421050       -6.98254703490415
H          -20.76315597273911      110.24564443857022       -6.94073430140761
H          -22.18008574970421      110.31372848424837       -5.89381571141327
C          -23.42121479518296      112.00111522146460       -9.25121669613304
H          -24.37824264058781      112.23385097447462       -9.71282727043935
H          -22.62899060743055      112.32320711334410       -9.92910703321392
H          -23.33552912981790      112.58299949822212       -8.33495427430106
C          -21.17719359941653      105.54889303192920       -5.21031763658629
H          -21.41514290064604      106.53034449687274       -4.80302547052295
H          -20.11732719819163      105.54065046305975       -5.47163054472178
H          -21.33708542379246      104.79892241321561       -4.43481714145736
C          -22.23483821574749      102.72232518646383       -6.22622562881347
H          -23.05338670277365      102.01344093684524       -6.28309495904153
C          -21.09411182648502      102.35010236767019       -5.65284538533633
H          -20.23430637996779      102.99578693897153       -5.61051999060592
H          -20.96967147232836      101.37163168448325       -5.22097831423375
C          -24.77702356836982      100.96068455855487      -10.47386851828951
H          -25.49770332166344      100.52076810240742       -9.78134221988037
H          -23.78335370354958      100.86103262511627      -10.03747150641151
H          -24.79392936990394      100.38811277905575      -11.39704797818680
C          -26.36616104830512      102.43028527498676      -12.95364173145087
H          -26.66391848524167      103.17905935275506      -13.67895965731057
C          -26.57492432055885      101.15944002878132      -13.29569459594821
H          -26.34430431006882      100.31409319120924      -12.67199470363707
H          -26.99530997485939      100.91938486470924      -14.25915909689897
C          -27.26688978182021      107.36544585570422      -14.44636471722606
H          -28.22334896874012      106.91794788657577      -14.17997615633573
H          -26.71976027600633      106.65574556043200      -15.06680401691493
H          -27.45695676710929      108.26058089436592      -15.03320744459522
C          -26.13877092588899      110.21163895409515      -13.56572280898496
H          -27.13485450834838      110.63223780323199      -13.42439203152195
H          -25.98525848350544      110.06423247448586      -14.63460113040034
H          -25.40606988089407      110.93191507539561      -13.21584238694501
O          -22.55996905922041      106.11998864986309      -10.99072768663107
H          -22.63829093509474      105.34522179666243      -11.59433780575077
H          -22.06024233609735      106.81218372777876      -11.50285953063867
C          -29.31514010079512      106.08934231272043       -6.93589093315135