72
 energy: -105.887897423825 gnorm: 0.243995072024 xtb: 6.7.1 (edcfbbe)
Fe           8.52900000000000      -18.19300000000000        9.97700000000000
N            9.51500000000000      -17.22200000000000        8.44100000000000
N            8.29700000000000      -16.39100000000000       10.88900000000000
N            8.04900000000000      -19.15500000000000       11.71800000000000
N            9.28000000000000      -19.96200000000000        9.27400000000000
C           10.08000000000000      -17.81600000000000        7.32200000000000
C           10.44300000000000      -16.79100000000000        6.38200000000000
C           10.10200000000000      -15.62000000000000        6.94300000000000
C            9.51000000000000      -15.85300000000000        8.23500000000000
C            8.46700000000000      -15.12300000000000       10.34900000000000
C            7.93200000000000      -14.13200000000000       11.26400000000000
C            7.47700000000000      -14.78200000000000       12.35300000000000
C            7.68800000000000      -16.20200000000000       12.13700000000000
C            7.48000000000000      -18.55900000000000       12.82900000000000
C            7.10700000000000      -19.57900000000000       13.78800000000000
C            7.46800000000000      -20.75600000000000       13.25100000000000
C            8.06500000000000      -20.51800000000000       11.95600000000000
C            9.20200000000000      -21.20800000000000        9.90000000000000
C            9.92300000000000      -22.17200000000000        9.09300000000000
C           10.40500000000000      -21.55300000000000        8.01800000000000
C           10.01200000000000      -20.14800000000000        8.11000000000000
C           10.29100000000000      -19.17100000000000        7.17500000000000
H           10.71900000000000      -19.50300000000000        6.22900000000000
C            9.03300000000000      -14.89300000000000        9.11500000000000
H            9.11400000000000      -13.85300000000000        8.79800000000000
C            7.31900000000000      -17.20200000000000       13.01900000000000
H            6.85600000000000      -16.88700000000000       13.95400000000000
C            8.55500000000000      -21.45700000000000       11.08400000000000
H            8.41700000000000      -22.50300000000000       11.35900000000000
C           10.28400000000000      -14.23100000000000        6.33100000000000
H            9.29100000000000      -13.81000000000000        6.06500000000000
H           10.90200000000000      -14.30400000000000        5.41100000000000
H           10.77500000000000      -13.55800000000000        7.06600000000000
C           11.05600000000000      -16.98600000000000        4.97200000000000
H           10.85700000000000      -18.02100000000000        4.62100000000000
H           12.15400000000000      -16.82400000000000        5.01500000000000
H           10.59400000000000      -16.26900000000000        4.26000000000000
C            7.94000000000000      -12.61300000000000       10.96800000000000
H            6.93700000000000      -12.30000000000000       10.60600000000000
H            8.69300000000000      -12.38800000000000       10.18200000000000
H            8.18000000000000      -12.05100000000000       11.89600000000000
C            6.79700000000000      -14.20600000000000       13.61900000000000
H            6.72600000000000      -14.83900000000000       14.51500000000000
C            6.28000000000000      -12.97500000000000       13.70900000000000
H            6.31800000000000      -12.28900000000000       12.85000000000000
H            5.81100000000000      -12.63300000000000       14.64400000000000
C            6.42700000000000      -19.32700000000000       15.16200000000000
H            5.33800000000000      -19.16700000000000       15.01300000000000
H            6.86300000000000      -18.42200000000000       15.63600000000000
H            6.57400000000000      -20.20900000000000       15.82100000000000
C            7.25300000000000      -22.12800000000000       13.92400000000000
H            6.33300000000000      -22.34300000000000       14.48700000000000
C            8.19200000000000      -23.08000000000000       13.83000000000000
H            9.12300000000000      -22.89300000000000       13.27400000000000
H            8.04400000000000      -24.06000000000000       14.30800000000000
C           10.06600000000000      -23.66000000000000        9.46500000000000
H            9.08300000000000      -24.16600000000000        9.35700000000000
H           10.40400000000000      -23.75300000000000       10.51900000000000
H           10.79800000000000      -24.14800000000000        8.78700000000000
C           11.25600000000000      -22.18800000000000        6.89200000000000
H           10.59200000000000      -22.73300000000000        6.18800000000000
H           11.98300000000000      -22.90500000000000        7.33000000000000
H           11.79600000000000      -21.39200000000000        6.33600000000000
O           11.40600000000000      -18.61000000000000       10.93800000000000
H           11.55700000000000      -17.94800000000000       11.61300000000000
H           11.99100000000000      -19.21700000000000       10.65700000000000
C            6.45300000000000      -17.62900000000000        7.37200000000000
H            5.47800000000000      -17.21500000000000        7.03800000000000
H            6.73200000000000      -18.45200000000000        6.68000000000000
H            7.21200000000000      -16.82100000000000        7.29900000000000
S            6.35800000000000      -18.24600000000000        9.06900000000000
H            6.24600000000000      -17.04700000000000        9.62200000000000
72
 energy: -105.939064740967 gnorm: 0.102342102742 xtb: 6.7.1 (edcfbbe)
Fe           8.67861499259315      -18.20113578397050       10.04402255109629
N            9.49727571501113      -17.22625670376971        8.43357136348862
N            8.26780754764708      -16.38836360231635       10.89862560479005
N            8.03704679210297      -19.15852639773162       11.72805617045594
N            9.28889944853031      -19.97353286610477        9.27013000515750
C           10.06595731993358      -17.81080927486591        7.32638203939250
C           10.43590874334271      -16.78957993724363        6.37295730291605
C           10.10128608993291      -15.60177989574729        6.93780311185328
C            9.51056721739225      -15.86701137075051        8.23028001273142
C            8.45024508178344      -15.13431247111521       10.35562188994702
C            7.93539881509656      -14.12294828235858       11.26287974398055
C            7.46365960704334      -14.77421337138536       12.36707986776604
C            7.67910174889157      -16.19472426319689       12.13457483878818
C            7.47637606313899      -18.56670617737722       12.83037934754423
C            7.09689872688565      -19.58010064942833       13.79647309003566
C            7.45161197489363      -20.77826161741345       13.25818852938987
C            8.04359273209053      -20.51154788600615       11.95916323900116
C            9.19937505201398      -21.20219936227575        9.88542085444321
C            9.91317039400640      -22.18599192634683        9.09482249852249
C           10.40753247468202      -21.55464624932690        8.00668627260731
C            9.99948641558486      -20.15872434061039        8.11079164478693
C           10.28181699500029      -19.17197482981625        7.18042086455102
H           10.72810345005309      -19.49683839686407        6.24546096938140
C            9.03021974503121      -14.90749170894314        9.11537558279857
H            9.11485486696492      -13.87243368436976        8.79681870755010
C            7.31772307717303      -17.20208418593082       13.01406472480151
H            6.85824746440201      -16.89039697358158       13.94447525903081
C            8.54650645651276      -21.45240860575652       11.07830707342295
H            8.42650132719279      -22.49379913458765       11.35707383454835
C           10.28106401711050      -14.23335826467973        6.33649741248287
H            9.30567126473802      -13.80906966863346        6.07041132371708
H           10.89255705575050      -14.29640036181943        5.43203704810174
H           10.76961411055655      -13.56429180989826        7.05170722088503
C           11.04577294517166      -16.99128080703342        4.99628534498229
H           10.85896371902704      -18.00540425608279        4.63097392196135
H           12.12980930126287      -16.82742873412496        5.02084910888021
H           10.60456220688055      -16.28628135939922        4.28292549909363
C            7.94465087529283      -12.63500170296368       10.97001844050466
H            6.95881002632246      -12.31158587157257       10.61088521042260
H            8.68246470783882      -12.39383046727304       10.19958412535519
H            8.18506273406887      -12.06801491945153       11.87559005299657
C            6.81185032638129      -14.20809473971951       13.59128494243549
H            6.74642494236053      -14.84937900299131       14.47016516693269
C            6.29157650065029      -12.98703524618223       13.69657595671164
H            6.30121250206981      -12.29478423636185       12.86651102689110
H            5.82688448428348      -12.64832325277148       14.61897591688728
C            6.43687176909076      -19.32798676492222       15.14002284092513
H            5.35998912890159      -19.16725130341527       15.00815623553991
H            6.85980424131373      -18.44186099858746       15.62394834312375
H            6.57700303240533      -20.18981953994237       15.79992765387776
C            7.27054444945036      -22.11729090017365       13.89984301842330
H            6.35615580342042      -22.30498170347463       14.46301724995570
C            8.19062963430380      -23.07349402428838       13.82572395981874
H            9.12132520981853      -22.90570725927435       13.29853147332754
H            8.04650718322363      -24.04012942126886       14.29919157907558
C           10.06007911360032      -23.64501081749809        9.46416044385796
H            9.09679925918451      -24.15677265348321        9.36059247185528
H           10.39769948710921      -23.74996847497846       10.50048196883717
H           10.78170597770680      -24.13546830734344        8.80358989353441
C           11.24364002593201      -22.17271539040286        6.90250597772666
H           10.60089674833955      -22.71916332388032        6.20192297342083
H           11.96562454653681      -22.88213310299261        7.32226608092800
H           11.78916749917403      -21.40498322013161        6.34735758538500
O           11.35003135323850      -18.58600973479178       10.93202920882156
H           11.55455808455253      -17.94793570131958       11.61152010206184
H           11.98419497424596      -19.22148183127321       10.64908624610510
C            6.45663784505937      -17.61826459267606        7.36264270492326
H            5.48128418470157      -17.22565912974219        7.05227247563641
H            6.73286635620690      -18.44343487597944        6.69959798673619
H            7.20958136483810      -16.82916202216680        7.29193997438072
S            6.40527057570653      -18.23706063241493        9.07132023548231
H            6.21839409724602      -17.03788962342836        9.62016660221988
72
 energy: -105.957598006291 gnorm: 0.028626629016 xtb: 6.7.1 (edcfbbe)
Fe           8.78558676337205      -18.20661868699107       10.08315044589853
N            9.50849678587914      -17.23427809203562        8.44862636457969
N            8.28632576448259      -16.39122359088970       10.92443353118599
N            8.05330808635260      -19.15593677035629       11.73377219094627
N            9.31131564766098      -19.97120961489240        9.27961808193116
C           10.05783316331885      -17.80942128947692        7.34138419611162
C           10.42388966289413      -16.79212498814244        6.37475209603969
C           10.09679664836125      -15.59391892653372        6.94232272139193
C            9.51435622983090      -15.88622017634833        8.23748419491503
C            8.45060374593288      -15.15330284452651       10.36569304886024
C            7.94033368928404      -14.12614349818237       11.25370193525906
C            7.45473924162174      -14.77413728612718       12.36906784416406
C            7.68436933408626      -16.19438059905923       12.13205571955159
C            7.48444813416749      -18.57206063428716       12.82439268166701
C            7.09168393171480      -19.57886245578822       13.79039354662613
C            7.44386405277091      -20.79056938000082       13.25291275424645
C            8.04196700031791      -20.49882520531571       11.95667765637825
C            9.20343106641764      -21.18719509000731        9.87765364177102
C            9.89821189886525      -22.19066150592635        9.09516863550863
C           10.40120083416392      -21.55142357720793        7.99950161658539
C            9.99832931769648      -20.16085831324101        8.12109595579504
C           10.28020753519369      -19.17109380807903        7.19075708499917
H           10.73966640853949      -19.48927178830355        6.26427466287770
C            9.02883982102311      -14.92704686200497        9.11909391025678
H            9.11245338244169      -13.89697735751833        8.79726876428681
C            7.31843379417135      -17.20527342360252       13.00665934651430
H            6.85507008876132      -16.89867303440718       13.93264941397985
C            8.54668623271917      -21.44273456425874       11.07348619110529
H            8.43468820868220      -22.48037045389272       11.35184043278290
C           10.27626819015164      -14.23869370726096        6.34915036614344
H            9.31309708997144      -13.80613978228973        6.08151624751294
H           10.88469718824840      -14.29514747315330        5.45242328403017
H           10.76557575330986      -13.56877542236976        7.05065536461211
C           11.03081638864283      -16.99824614400617        5.02452533093699
H           10.85337533972643      -18.00214589057576        4.65300272627708
H           12.10816645826863      -16.83263074817524        5.04385654989972
H           10.60525899463806      -16.29811349452912        4.30791007009307
C            7.95404589058798      -12.66217894720723       10.96950275041844
H            6.97729723081631      -12.33026785935479       10.61385893770605
H            8.68509140958528      -12.41141998308629       10.20802420887069
H            8.19387280137102      -12.09557791566802       11.86622650331684
C            6.82846525458926      -14.22009632599228       13.55191003576736
H            6.77745911241425      -14.87039955427843       14.41787097275133
C            6.30106396818873      -13.00411351741243       13.67766144656246
H            6.28298161396152      -12.29619899680192       12.87331741014688
H            5.85081488085176      -12.67236450033412       14.59929437931902
C            6.44763766884614      -19.32945400838921       15.11222203204058
H            5.37659394617853      -19.16420665425726       14.99292723301061
H            6.86530869241621      -18.45431149732720       15.60308592938541
H            6.58317117926117      -20.18120693259340       15.77306897514882
C            7.28626253306013      -22.09566278610220       13.87012729740925
H            6.37167029706466      -22.25700141084296       14.43138026873730
C            8.19224551372137      -23.06421641587400       13.82293520860893
H            9.12969186429621      -22.92226524178720       13.31796618603327
H            8.04056145658626      -24.02060724727113       14.29343996105154
C           10.04762558724167      -23.62781389366443        9.46181292731774
H            9.09633900827695      -24.14737268757026        9.36482098733707
H           10.38737456422237      -23.73847999127999       10.48876445486167
H           10.76511944498534      -24.11843666141141        8.81050001683233
C           11.22561415831993      -22.15641178541510        6.91234596089947
H           10.59686122691846      -22.70324878462118        6.21011022071410
H           11.94467511154832      -22.86224185119353        7.32421460985106
H           11.77682260301310      -21.40347687997982        6.35973403235627
O           11.24187839018219      -18.54399149510281       10.90995757133871
H           11.54193530499274      -17.94814724205352       11.60567541477455
H           11.89488084363245      -19.19393713261522       10.63281493282581
C            6.46884181885910      -17.60898722627501        7.35639371759806
H            5.48736713846625      -17.23518201887942        7.07816652508495
H            6.73750904094908      -18.43985736421005        6.71512738876819
H            7.21422799338829      -16.82874579943085        7.28186147948229
S            6.43161097131240      -18.23849458199727        9.07214924563966
H            6.20068960621391      -17.04291832995576        9.62680217231417
72
 energy: -105.964377378191 gnorm: 0.029808907962 xtb: 6.7.1 (edcfbbe)
Fe           8.85339388403453      -18.21026087919946       10.10631259186191
N            9.52698547435598      -17.24250424104974        8.46533695350637
N            8.31765260334885      -16.39859796428759       10.93856683546608
N            8.08631739188762      -19.15096368161814       11.73656536467084
N            9.33094085727931      -19.96466745672545        9.28681248512980
C           10.06520485722981      -17.81269679678832        7.35493119138358
C           10.41552751694103      -16.79592055418711        6.38386603852361
C           10.09170583242509      -15.59764661110995        6.95161932156890
C            9.52585913378055      -15.89793665566065        8.25080766159845
C            8.47258767610107      -15.16739975368528       10.37263931844885
C            7.94928182357046      -14.13876320034675       11.24123917472503
C            7.45875678623542      -14.78232110053179       12.35749985665307
C            7.70526437204925      -16.20029888605220       12.13399159619674
C            7.50327851880764      -18.57082274678794       12.81945731322863
C            7.09522150059971      -19.57598001382735       13.77469421384451
C            7.45181496853411      -20.78744941455159       13.23884869848866
C            8.06159966470825      -20.49020539717938       11.95177121538274
C            9.20976449634077      -21.17888799385302        9.87654636250122
C            9.88544879184477      -22.18853911258530        9.09021352828684
C           10.39158590966532      -21.54868201075130        7.99521413111068
C           10.00797699795762      -20.15807107501728        8.12601863680491
C           10.29357081469163      -19.17038120358079        7.19716767151030
H           10.75678378704877      -19.48460918715216        6.27338741296657
C            9.04239413655185      -14.93853893684618        9.12601754823041
H            9.10950916019850      -13.91193177646165        8.79552134766814
C            7.32946201635641      -17.20768913095305       13.00618702822501
H            6.84446873233937      -16.90599610359397       13.92253209666672
C            8.55645134935581      -21.43808228511226       11.07159884082946
H            8.43996951142948      -22.47418714457924       11.34750921908654
C           10.27073215280411      -14.24098302486017        6.36477036309705
H            9.30947611882182      -13.80109928345157        6.09893833106063
H           10.87929120162687      -14.29593181271657        5.46709075665208
H           10.76425646879309      -13.57243499780934        7.06628072746711
C           11.02174494013502      -17.00824530150030        5.04039749758698
H           10.84453272782321      -18.01395384176131        4.67320739373572
H           12.09934523694526      -16.84264825774903        5.06882198308662
H           10.60026876589345      -16.30759511781404        4.32167993114437
C            7.96861955743951      -12.67909514041956       10.96199456864982
H            6.99261582279275      -12.34224319161133       10.60831427985306
H            8.70328580335663      -12.42760795782672       10.20326861741381
H            8.20927669972158      -12.12190111378961       11.86502916619707
C            6.83991672616515      -14.23123875391794       13.53285311785731
H            6.80140654144739      -14.89005653006292       14.39221292531428
C            6.30805249955977      -13.01743438617694       13.67080044521574
H            6.25662882403552      -12.30404121319945       12.86972396985077
H            5.86933223507308      -12.69741282174299       14.60057800058366
C            6.45176733130240      -19.32720241446318       15.09270606415388
H            5.38116383848151      -19.15514595079844       14.97357283359257
H            6.87626090207727      -18.45539716603415       15.58500605095598
H            6.58562337931529      -20.18265915711919       15.74960977443156
C            7.29300323689546      -22.08684995362192       13.84945293264532
H            6.37380400103231      -22.23226988178675       14.40690513315363
C            8.19129036726941      -23.06515242275358       13.81959472549403
H            9.14541961121445      -22.93705618774566       13.33761902946694
H            8.02632339884651      -24.01325354587096       14.30041900999313
C           10.03031864928728      -23.62154687707951        9.45999133690201
H            9.07914937930191      -24.14361605939037        9.36847325921972
H           10.37328368683022      -23.72762804660133       10.48726325913798
H           10.74804605995872      -24.11151867711827        8.80795177027435
C           11.21257742159977      -22.14801133111978        6.90851990960231
H           10.58425694617372      -22.69110484578422        6.20269371484626
H           11.92916650387953      -22.85514096847453        7.32329398706602
H           11.76714320823289      -21.39233077335117        6.36169583417013
O           11.10667837061385      -18.46839596390301       10.88551825054085
H           11.48539908953517      -17.92477904228615       11.60203088894420
H           11.73609203270244      -19.14503444603505       10.60567192385870
C            6.48318291571556      -17.60421923548873        7.36096359036612
H            5.49255079582805      -17.24213277671262        7.10176141244927
H            6.74975354570367      -18.43982813227338        6.72555038295242
H            7.22319144883474      -16.81979709505715        7.27515561159982
S            6.46020891154619      -18.23708560003601        9.08007819795931
H            6.18478407971969      -17.04888938860800        9.63866538689801
72
 energy: -105.968326758480 gnorm: 0.017321815505 xtb: 6.7.1 (edcfbbe)
Fe           8.85319755412033      -18.21401300852454       10.09872586872393
N            9.54574716010844      -17.25335662066795        8.48506677582846
N            8.35683835225185      -16.41103454935404       10.94913040285833
N            8.12336534049310      -19.14396113109078       11.73311531261067
N            9.34732272963134      -19.95324878942677        9.29440218827633
C           10.07828255974525      -17.81735343177102        7.37009371624377
C           10.41216452495807      -16.80088734843996        6.39625499268073
C           10.09040570042264      -15.60528564223889        6.96395072854943
C            9.54092613158306      -15.90990347134669        8.26664678954912
C            8.50278424722457      -15.18228804687396       10.38030164201216
C            7.96591862219353      -14.15424889075220       11.23237417962275
C            7.47177615639024      -14.79367301384477       12.34602508958376
C            7.73227075158325      -16.20875392770594       12.13590101434990
C            7.52809982430693      -18.56832631870634       12.81258698761465
C            7.10519039719837      -19.57280025366604       13.75643210923860
C            7.46846522588139      -20.78079822965800       13.22361755942415
C            8.09092015439153      -20.48149259826954       11.94691699057987
C            9.21754150420232      -21.17098787004868        9.87654908439879
C            9.87310950087445      -22.18423663606276        9.08289892064351
C           10.38234761874416      -21.54547827228380        7.99128539546856
C           10.01974601974558      -20.15333747761052        8.13077821362377
C           10.31150265177891      -19.16997123912025        7.20338606709331
H           10.77756702191398      -19.48105461944489        6.28134852712832
C            9.06038723357404      -14.94909545483228        9.13372363396515
H            9.11122477359693      -13.92536190640361        8.79480316301804
C            7.34332392702268      -17.21072534094138       13.00502522016705
H            6.83436707978992      -16.91460822130743       13.91056663378174
C            8.57168025323923      -21.43472682466298       11.07093488707470
H            8.44822016312642      -22.46982755964735       11.34480288510725
C           10.26545139022133      -14.24414874345934        6.38383867065193
H            9.30372824606945      -13.79934222768199        6.12376966307530
H           10.87218918944906      -14.29477393598149        5.48326721948280
H           10.76291345155030      -13.58005009501726        7.08891946032132
C           11.01593318089258      -17.02053249516859        5.05348762809022
H           10.83409481193598      -18.02838216525344        4.69257520269885
H           12.09466222544980      -16.85950768319900        5.08882753341331
H           10.59801559644813      -16.32009135882657        4.33228911302082
C            7.98778832364285      -12.69440717521543       10.95518258257271
H            7.01338193096576      -12.35319245568564       10.60059144730204
H            8.72741156161800      -12.44356740365556       10.19972535218080
H            8.22754209222009      -12.14582813651160       11.86479795450813
C            6.84890586076384      -14.24457753165991       13.52006992201679
H            6.83271485909053      -14.90563305139068       14.37841914772354
C            6.30572983056118      -13.03660248178165       13.66219890179884
H            6.23842882788436      -12.31814691519256       12.86580544914678
H            5.88792729000121      -12.72348590596184       14.60441700517627
C            6.45563593985646      -19.32365214147669       15.07228267579199
H            5.38655804579952      -19.14221685634767       14.94855006397199
H            6.88847455641607      -18.45607930237699       15.56667998854850
H            6.58295925605166      -20.18401956768563       15.72500247234221
C            7.30110335083848      -22.07999047051818       13.83474058717824
H            6.37069896718082      -22.21613846495902       14.37545990364628
C            8.19448527742083      -23.06377607671431       13.82616007969339
H            9.15557412336965      -22.95531185094192       13.35093231811263
H            8.00595174857201      -24.00915984936670       14.30527583346499
C           10.00814397589211      -23.61782179439554        9.45563986557966
H            9.05398481383804      -24.13682870274703        9.36984641530445
H           10.35342109454397      -23.71886672377687       10.48388875601389
H           10.72343585538804      -24.11193775561053        8.80280547743468
C           11.19892387696309      -22.14200755788610        6.89916262871355
H           10.56810749508009      -22.67704385895715        6.18890663797050
H           11.91269504688655      -22.85374820896765        7.31244311292232
H           11.75641990510344      -21.38198677328715        6.35933256714193
O           10.98655788331406      -18.37727159905991       10.87224003902423
H           11.37708823776504      -17.86875937851055       11.59094364128404
H           11.61155812296142      -19.07176158403730       10.62245787973903
C            6.49301227624292      -17.60072315284929        7.36763344372499
H            5.50270108957398      -17.23971228196243        7.11264356224696
H            6.76185914231137      -18.43841424605568        6.73479151299434
H            7.23423435481227      -16.81555068170661        7.28066588275918
S            6.44984684981288      -18.24127278157339        9.08304500028851
H            6.17305686515069      -17.06284188187935        9.65164242172002
72
 energy: -105.969793399360 gnorm: 0.029218476900 xtb: 6.7.1 (edcfbbe)
Fe           8.83441009660771      -18.21335011308453       10.08831258041181
N            9.54439060192024      -17.26169576831218        8.48806719288231
N            8.36882298712821      -16.41950798517750       10.94597798579054
N            8.13880008621447      -19.14177958717400       11.72452091681213
N            9.34719468529491      -19.94857099757688        9.29183169157477
C           10.08458383246363      -17.82248141096695        7.37375471691167
C           10.41583220701610      -16.80558358189135        6.40259260034637
C           10.09355222742551      -15.61306740962146        6.97041573103363
C            9.54567160507643      -15.91680436497259        8.27147658851945
C            8.51952910968176      -15.18950102110052       10.38141061841234
C            7.98173379238889      -14.16334796928542       11.23120335461734
C            7.48632586704784      -14.80141499986380       12.34137005595915
C            7.74318992851420      -16.21498054173812       12.13374399418126
C            7.54093893970910      -18.56787569666159       12.80537624753869
C            7.11757898238301      -19.57274473731477       13.74558100202551
C            7.48522182070719      -20.77729662487779       13.21479200070750
C            8.11091750589052      -20.47961861583256       11.94246428849161
C            9.21873221714212      -21.17028203961225        9.87259843123737
C            9.86509825237554      -22.18278397806480        9.07371240923307