72
 energy: -105.980207292124 gnorm: 0.000163152914 xtb: 6.7.1 (edcfbbe)
Fe           8.86772809221029      -18.20048432128990       10.05076564738541
N            9.65318890544774      -17.25222311776141        8.48671107456944
N            8.25102279495033      -16.45606389918671       10.81213580934791
N            8.16481655565774      -19.15660145226122       11.67637566601353
N            9.52440405889337      -19.94761193080149        9.32195113033348
C           10.27070301797541      -17.81319176204470        7.41607479905371
C           10.71384595328095      -16.79428520900201        6.48860718016295
C           10.35649918666415      -15.60185296051259        7.03355446053792
C            9.69050612027698      -15.90981906204475        8.28100833493283
C            8.46877084177609      -15.21816158901694       10.29208418873709
C            7.86117810923666      -14.20256712464324       11.11348282468613
C            7.25606727955027      -14.85840772879559       12.15216045781503
C            7.53398956851966      -16.26715540929298       11.95056848733456
C            7.44249054665373      -18.60569200572070       12.69196646666565
C            7.08937990915007      -19.60443849162647       13.66370325093041
C            7.64587742597611      -20.77932412152798       13.23219565814469
C            8.28233563262239      -20.47964233173754       11.96691890433548
C            9.37133810475851      -21.17738304911432        9.88271758259933
C            9.87828107176274      -22.20592529308380        9.00185159674350
C           10.33436344916610      -21.56715466603343        7.89143940362329
C           10.10410794879405      -20.15683636261426        8.11064284921496
C           10.46198184663447      -19.16709320760494        7.21640178948619
H           10.93821912462554      -19.47370901447800        6.29826686393188
C            9.14881264922019      -14.95425057455681        9.11585580663160
H            9.24962264960000      -13.92164203735118        8.82007281792229
C            7.11983488992123      -17.26512412966089       12.81079935324960
H            6.52609565723728      -16.97632728839571       13.66392371442365
C            8.81949690049995      -21.43338151633296       11.12249674010325
H            8.76280838893616      -22.46183711369353       11.44072291650835
C           10.56825084819664      -14.22214019128929        6.51326361001568
H            9.61354363653858      -13.71862350188123        6.35822735938118
H           11.10131317562169      -14.24387844711585        5.56611327097421
H           11.15075249834426      -13.63281925476791        7.22137793336740
C           11.42401933177838      -17.07530329700989        5.20958258127168
H           10.81288376584417      -17.70389885057646        4.56146661419507
H           12.36215359940263      -17.59695798665910        5.39955792230374
H           11.64669734120253      -16.15225693668279        4.68027505104602
C            7.95830093721829      -12.73699238774871       10.87379552614379
H            7.22581141754490      -12.41241428977921       10.13250011626502
H            8.94901217478676      -12.47290309077467       10.50738976941636
H            7.77303595396867      -12.19545881767651       11.79906420894243
C            6.51640600844139      -14.31504420096024       13.27009052374600
H            6.62154714014838      -14.84998703016625       14.20666251815818
C            5.73414486997365      -13.24181848351241       13.22525925971871
H            5.55624980146904      -12.69952502285053       12.31297589962405
H            5.22184211237978      -12.88169375839258       14.10179694993798
C            6.32350617802016      -19.34650930487978       14.91422251778676
H            5.37241349592052      -18.86346510920844       14.68953031227081
H            6.88533806918636      -18.69095029963512       15.58077837621547
H            6.12664259898872      -20.27700099202487       15.44041059230164
C            7.60598167360223      -22.06009000901356       13.90722991205106
H            6.67770570537993      -22.28280928765157       14.42178121322350
C            8.60600847390060      -22.93125949706626       13.97459370039600
H            9.56635017612993      -22.73709708730794       13.52738053901088
H            8.50523047851964      -23.86463274890394       14.50281653355236
C            9.86511989564086      -23.66119285588596        9.31866488323953
H            8.84421047202766      -24.00611304346340        9.48201423179339
H           10.43804360205157      -23.86317484808270       10.22403373738669
H           10.29665270345143      -24.23799255238548        8.50456394883325
C           10.95762205545297      -22.13411678742068        6.66304286079932
H           10.37047859846617      -21.87377845853534        5.78239086215265
H           11.01918673367459      -23.21758050484104        6.72586493617476
H           11.96507046054578      -21.74008933241120        6.52666513145632
O           10.81228087117558      -18.06183745908375       11.16534539536079
H           10.52311430191641      -18.30287149336062       12.05304723926084
H           11.27818290681692      -18.82417146745865       10.80275803169329
C            6.44614664463981      -17.08883430375249        7.94241531453008
H            5.39183486391657      -17.08228906696621        7.68348155671895
H            7.05091732692231      -17.21057523682324        7.04984018574245
H            6.73290441917449      -16.17910407005927        8.45889672655585
S            6.79247388132925      -18.53298537808794        9.00699439717365
H            6.01085212031005      -18.12957648764751       10.01538197443580
