82
 energy: -121.535231329768 gnorm: 0.345308806963 xtb: 6.7.1 (edcfbbe)
Fe          58.28100000000000       15.05700000000000       17.01100000000000
N           57.77900000000000       13.89200000000000       15.41900000000000
N           56.77800000000000       14.26800000000000       18.08500000000000
N           58.66500000000000       16.33600000000000       18.52500000000000
N           59.70900000000000       15.91200000000000       15.95600000000000
C           58.30000000000000       13.99600000000000       14.15900000000000
C           57.76900000000000       12.90700000000000       13.34200000000000
C           56.81999999999999       12.29000000000000       14.07100000000000
C           56.75000000000000       12.96400000000000       15.35900000000000
C           55.88700000000000       13.28900000000000       17.64400000000000
C           55.09499999999999       12.84000000000000       18.75800000000000
C           55.34200000000000       13.71400000000000       19.77900000000000
C           56.29800000000000       14.66900000000000       19.30400000000000
C           57.96200000000000       16.46900000000000       19.69400000000000
C           58.72100000000000       17.31300000000000       20.62800000000000
C           59.85799999999999       17.63800000000000       19.99800000000000
C           59.69600000000000       17.24000000000000       18.62700000000000
C           60.57000000000000       16.93900000000000       16.36000000000000
C           61.46900000000000       17.28000000000000       15.27100000000000
C           61.16900000000000       16.47500000000000       14.23400000000000
C           60.06800000000000       15.62900000000000       14.65000000000000
C           59.30799999999999       14.84700000000000       13.80000000000000
H           59.53500000000000       14.91600000000000       12.73600000000000
C           55.84300000000000       12.75000000000000       16.37500000000000
H           55.00600000000000       12.08800000000000       16.15300000000000
C           56.85700000000000       15.70800000000000       20.05099999999999
H           56.38199999999999       15.94300000000000       21.00300000000000
C           60.55300000000000       17.51400000000000       17.60200000000000
H           61.30900000000000       18.27600000000000       17.79300000000000
C           55.83400000000000       11.21400000000000       13.60900000000000
H           56.21700000000000       10.73300000000000       12.68300000000000
H           54.84699999999999       11.67700000000000       13.39300000000000
H           55.72600000000000       10.44000000000000       14.39900000000000
C           58.33100000000000       12.51900000000000       11.96100000000000
H           59.41700000000000       12.75200000000000       11.92400000000000
H           57.81100000000000       13.09700000000000       11.16800000000000
H           58.19000000000000       11.43000000000000       11.79100000000000
C           54.24999999999999       11.56600000000000       18.75700000000000
H           54.60999999999999       10.88300000000000       17.95800000000000
H           53.18699999999999       11.82100000000000       18.56100000000000
H           54.34300000000000       11.05300000000000       19.73800000000000
C           55.01799999999999       13.58600000000000       21.26400000000000
H           55.73599999999999       13.78800000000000       22.06900000000000
C           53.58400000000000       13.14400000000000       21.54900000000000
H           52.88499999999999       12.94800000000000       20.72200000000000
H           53.23400000000000       13.01700000000000       22.58400000000000
C           58.36000000000000       17.48400000000000       22.12100000000000
H           58.88400000000000       16.70900000000000       22.72000000000000
H           57.26400000000000       17.36500000000000       22.25800000000000
H           58.68000000000000       18.48800000000000       22.47200000000000
C           61.04100000000000       18.49700000000000       20.47000000000000
H           61.58400000000000       19.19400000000000       19.81800000000000
C           61.42299999999999       18.31200000000000       21.94700000000000
H           60.86700000000000       17.60800000000000       22.58400000000000
H           62.25699999999999       18.88100000000000       22.38400000000000
C           62.64500000000000       18.26300000000000       15.37300000000000
H           63.44599999999999       17.81900000000000       16.00200000000000
H           62.30299999999999       19.21100000000000       15.84100000000000
H           63.05399999999999       18.46600000000000       14.36000000000000
C           61.88500000000000       16.43100000000000       12.88100000000000
H           62.97999999999999       16.53300000000000       13.03700000000000
H           61.53200000000000       17.26900000000000       12.24200000000000
H           61.68200000000000       15.46000000000000       12.38000000000000
O           56.36800000000000       17.20000000000000       16.24300000000000
H           56.33800000000000       17.80500000000000       16.98400000000000
H           55.91099999999999       17.27500000000000       15.48400000000000
C           60.72199999999999        8.55300000000000       16.15300000000000
H           59.94700000000000        8.26800000000000       15.40900000000000
H           60.65100000000000        7.89400000000000       17.04400000000000
H           61.73000000000000        8.49200000000000       15.69100000000000
C           60.45199999999999        9.97200000000000       16.56500000000000
C           59.61800000000000       10.25100000000000       17.64600000000000
H           59.15499999999999        9.43800000000000       18.18500000000000
C           59.37499999999999       11.55400000000000       18.03900000000000
H           58.73299999999999       11.75600000000000       18.88300000000000
C           59.95900000000000       12.59800000000000       17.34500000000000
O           59.73399999999999       13.86700000000000       17.77700000000000
H           60.20499999999999       14.46700000000000       17.19400000000000
C           61.02700000000000       11.04300000000000       15.87500000000000
H           61.66700000000000       10.84600000000000       15.02800000000000
C           60.78900000000000       12.35700000000000       16.26000000000000
H           61.24300000000000       13.17700000000000       15.72300000000000
82
 energy: -121.642963116628 gnorm: 0.157408776604 xtb: 6.7.1 (edcfbbe)
Fe          58.22638685529238       15.11889434518848       16.99445879074709
N           57.76488780900105       13.90670938223988       15.42032510247791
N           56.74999673514216       14.29308484772704       18.06602059724201
N           58.65344108400078       16.35845028691826       18.52807976248639
N           59.71845602532778       15.92189742602052       15.94885469650476
C           58.31867451611615       13.96619314038454       14.17363240706877
C           57.76920382616556       12.90972800832259       13.33409103241722
C           56.80064726639581       12.30093088846781       14.06455746466550
C           56.76066169660065       12.96753560590692       15.35808175133172
C           55.90272674826977       13.28003844603861       17.65623040773389
C           55.08798130983848       12.84071721964006       18.76605039394687
C           55.34638699186581       13.69868920790684       19.80819016509371
C           56.32881167433878       14.64578842407053       19.31994520343839
C           57.97788059840327       16.45281316861297       19.71156523868962
C           58.72144941528511       17.29707132648892       20.64880668455874
C           59.86101865710950       17.68646987056074       20.00742654194513
C           59.72054539925459       17.21377949056260       18.64077951759545
C           60.57330910966060       16.93581258302216       16.35021377333286
C           61.48244596845752       17.27748857700053       15.27689878504684
C           61.17210941084685       16.47561336398556       14.22631639495133
C           60.05364673164697       15.65525145426508       14.64073745576919
C           59.31901192302647       14.83823580313611       13.79830877749907
H           59.54518323554531       14.90198966656832       12.73957282449011
C           55.85715808690001       12.73884477705367       16.37996599144961
H           55.01991881610651       12.08327035103600       16.15680902345992
C           56.86465611608325       15.69951708946582       20.05522183191113
H           56.38426072588622       15.93414571993844       20.99907323251375
C           60.57146143270796       17.50916012876678       17.60215662632542
H           61.31421158300216       18.27541178288225       17.78897953195456
C           55.84450268646921       11.21973448399104       13.61501317251624
H           56.21121962608669       10.74083646628312       12.69803744158378
H           54.86371185090125       11.66707398347656       13.39952428133433
H           55.72544819262643       10.45135628052905       14.38928912767415
C           58.32326587706751       12.52653957490947       11.97422597577080
H           59.39776112203629       12.74784486735962       11.92627847166783
H           57.81761998584733       13.08838743590811       11.17771198109667
H           58.18752470348173       11.45194960999503       11.79424723945201
C           54.25565236400973       11.57965167807133       18.75582188787513
H           54.60501910168691       10.89549870547043       17.97131383754470
H           53.20014823155853       11.81499715782029       18.56462312732837
H           54.33739556575114       11.06744949739953       19.72410017605316
C           54.93809373067585       13.57254464298221       21.23837969177037
H           55.67665666858347       13.77775789320144       22.02611051957494
C           53.64191276581311       13.15834545437946       21.54221109579066
H           52.92697505930038       12.96436263627773       20.74348584936260
H           53.27203635884755       13.02619729992377       22.55938979753044
C           58.35827465786421       17.48114760509418       22.10824375562846
H           58.87134656152344       16.71919490209022       22.71105813759043
H           57.27850043020915       17.36913997906468       22.25645936667581
H           58.67347031514705       18.47216109630732       22.46169014429816
C           61.02241347629460       18.46807559598941       20.54150993907510
H           61.56142128253724       19.15019380381807       19.86992339254869
C           61.40616618126651       18.32542865907526       21.88129319458476
H           60.88441521624131       17.63032973774434       22.53743105430598
H           62.23196620993120       18.87407885945945       22.33788764332915
C           62.63310575039144       18.25613651989902       15.37490344580317
H           63.43287794355660       17.82629962287450       15.99459231080704
H           62.30775887154226       19.19832098068675       15.83299438168223
H           63.04294757619459       18.46461779455037       14.37869428245023
C           61.87785069060192       16.42792898169946       12.89043252722311
H           62.96172624530988       16.52992069093889       13.03435435790404
H           61.53656120422782       17.25370457429478       12.25035078012247
H           61.68365769760879       15.47534773148573       12.38413539600401
O           56.40171209736030       17.17106693622776       16.26659237347177
H           56.33958715149302       17.80023783256050       16.98138600251461
H           55.90634333652849       17.27419700713605       15.47500587801645
C           60.72007397931841        8.55970434093615       16.15266935024139
H           59.96152896719288        8.26059206482603       15.41665879600652
H           60.65438346075646        7.89695191158610       17.02378463517706
H           61.71360336966656        8.48284508713579       15.69594442606090
C           60.45377745196278        9.97609585625888       16.56654041117393
C           59.61892820249926       10.25039065425514       17.64454100118300
H           59.15724138349103        9.43660886010037       18.18402289756876
C           59.37190319013152       11.55041307607496       18.03827834807545
H           58.73107548295410       11.75875376305535       18.88038106667661
C           59.95686087809315       12.59777806796037       17.34499615609670
O           59.72334100986203       13.87487221235993       17.77204006603310
H           60.22193315312348       14.47442104950530       17.19517425877103
C           61.02591479261190       11.04144838652643       15.87656719633673
H           61.66707334864391       10.84482587374122       15.02951478847210
C           60.78830217298209       12.35001716591517       16.26083620236734
H           61.24048262185990       13.17269266860983       15.72299835515028
82
 energy: -121.672444391210 gnorm: 0.115516728553 xtb: 6.7.1 (edcfbbe)
Fe          58.16204421645546       15.18513711984277       16.97898061465595
N           57.74876175565849       13.92840806145769       15.41867755323016
N           56.72108984365603       14.31366759265446       18.05359763800451
N           58.64945504894034       16.37871752606904       18.53559026376554
N           59.71170151801374       15.95135961612374       15.93599098311278
C           58.33446132640552       13.94694605358427       14.18790620702671
C           57.77757073737227       12.91046205077052       13.33858705045330
C           56.78746453315235       12.31526038823667       14.06549178774675
C           56.76482157465727       12.98407193824233       15.35674687247734
C           55.91272302213979       13.28205930791851       17.66326121196089
C           55.08888781731716       12.84189975689217       18.76939322638425
C           55.35587665284612       13.68396442584855       19.82576852119022
C           56.35051767515802       14.62938541040966       19.32996755769240
C           57.99416536329340       16.43842654752994       19.72765786096864
C           58.72772413309051       17.27188166762233       20.66456862352250
C           59.86383539394561       17.70721103350508       20.01716816803834
C           59.73690720476434       17.19719582237159       18.65367594058932
C           60.57422256091610       16.93538563575136       16.34573505831234
C           61.49234979230206       17.27442980726624       15.28429617109543
C           61.16832174052426       16.48190063305931       14.22050475564468
C           60.03375449369329       15.68613862121176       14.63208195822680
C           59.33128686292886       14.82850895644439       13.79828328606718
H           59.56908142121617       14.87175858436118       12.74516923510394
C           55.86891140483020       12.73404789365291       16.38440838923298
H           55.04587271782165       12.06465169993996       16.16672445682491
C           56.87238878255511       15.68864854696411       20.06049687484788
H           56.39428759763778       15.91267624598717       21.00408785319069
C           60.58860765461743       17.50624743428140       17.60769724488336
H           61.32801948036477       18.26983999353159       17.79158826023234
C           55.85336313077502       11.23269423708393       13.62368190714029
H           56.21380778854115       10.75400186569774       12.71435119522926
H           54.87191932615202       11.66020958415697       13.40655601885174
H           55.73019596708625       10.46763760189457       14.38847724689847
C           58.31380506423834       12.53534505281247       11.99063185102215
H           59.38073761278550       12.74828001867020       11.93315231093409
H           57.81652372808441       13.08616962294858       11.19051652991023
H           58.17778268451787       11.47039631983428       11.80280391972945
C           54.26126623205926       11.59517164948782       18.75594865619513
H           54.60549405036814       10.91073884367094       17.98189985777725
H           53.20972577207485       11.81610986518394       18.56664897997638
H           54.33218453055893       11.08523740691408       19.71748121677237
C           54.88476754197875       13.55571777952617       21.21072344372362
H           55.63003154043372       13.77984772588504       21.98280473459414
C           53.68985281028903       13.17941802100476       21.52097813717455
H           52.95194639211349       12.97604446713642       20.75502502768238
H           53.32027579944115       13.03865552567403       22.53041423154619
C           58.35724751374975       17.47662100555689       22.09506794503427
H           58.85573835831395       16.72413022052864       22.70976178608376
H           57.28603935184000       17.37560948525100       22.24964362021100
H           58.67141256977992       18.45977502972768       22.44651265747612
C           60.99526180449751       18.44714757578047       20.58933779829277
H           61.53311978912594       19.11130020937908       19.90363081897021
C           61.37707521393280       18.32926349355296       21.81728608262735
H           60.89358097317207       17.64455407010984       22.50277674802510
H           62.20365871830123       18.86577810342790       22.27307772276444
C           62.62312348021725       18.24708945771073       15.37870412949183
H           63.42438596452322       17.83152487172561       15.99342884500380
H           62.30455131785239       19.18551061542744       15.82880787230487
H           63.02953851654414       18.46060330891229       14.39189613145349
C           61.86832554779478       16.42659603899038       12.89982173910355
H           62.94525965319359       16.52777625554177       13.03648336447707
H           61.53579249292231       17.24280948496046       12.25571079081692
H           61.67952971532343       15.48536362938030       12.39018320974547
O           56.45421928334391       17.11820301565871       16.28550912905747
H           56.34587488046761       17.78081406638449       16.97023159084069
H           55.92648213597861       17.25950762634694       15.49690753525977
C           60.71839611243409        8.56236307774746       16.15070753803467
H           59.97147249285204        8.25272354869840       15.41966234643804
H           60.65665216810428        7.89691297321276       17.00860634347448
H           61.70258186838545        8.47493375599943       15.69730113479642
C           60.45440258937217        9.97708357517477       16.56673765879463
C           59.61946281606268       10.24953243831450       17.64316208168658
H           59.16009454422515        9.43477287202115       18.18344575446850
C           59.36765179006624       11.54837650391474       18.03644469599658
H           58.72618319509935       11.76413344213343       18.87563046557175
C           59.95231270357784       12.59878869517896       17.34305635447980
O           59.71342318085166       13.88227331283222       17.76458202272345
H           60.24320357052258       14.48086475423703       17.20080718210314
C           61.02552762030114       11.03911310700807       15.87792938642029
H           61.66803353428420       10.84320341324117       15.03137704812463
C           60.78583716662944       12.34430423196650       16.26148556489050
H           61.23575506858539       13.16867877485323       15.72308601531575
82
 energy: -121.685780027612 gnorm: 0.028437233111 xtb: 6.7.1 (edcfbbe)
Fe          58.11925787206582       15.23756502446246       16.95898882787229
N           57.73065857498531       13.96048471211103       15.41265781692452
N           56.70158173246745       14.33945434184402       18.03397261538482
N           58.63736406719004       16.39189031002541       18.53180164364192
N           59.68935106778745       15.98658889146695       15.92203659297667
C           58.34392113962979       13.94850327448133       14.19422100121675
C           57.78104245556995       12.91788671093774       13.34747561931128
C           56.78318731739652       12.33297522094032       14.06938825279629
C           56.76267267868941       13.00302622039208       15.35573724000229
C           55.91894440351987       13.28575799169666       17.65784967552195
C           55.09828666918441       12.84226715531238       18.76162413927225
C           55.36908017338854       13.68111028126346       19.81218675451814
C           56.36181926681628       14.62489467675720       19.32548369524481
C           57.99921246074474       16.42413675529476       19.73484242981878
C           58.72475947697729       17.25317418951576       20.66893443087426
C           59.84730581250821       17.70166891552395       20.01267880048581
C           59.73666531681368       17.18979639751877       18.65405165673719
C           60.57129994775051       16.94307591911806       16.34508181986085
C           61.49455396995633       17.27456006757121       15.28826336375301
C           61.16177947118837       16.49275148576518       14.21948082414828
C           60.01786792940845       15.71159157451716       14.62496409483735
C           59.34368488284472       14.82242671023879       13.79928393857218
H           59.61403908782419       14.82265570706782       12.75136414608522
C           55.88069296250455       12.72797473672432       16.38635694897357
H           55.08303876657668       12.02562378620413       16.18035087550002
C           56.88502905422293       15.66840814756948       20.06913024780611
H           56.41660078624233       15.87243898224328       21.02169351629930
C           60.59836041701239       17.49922179237031       17.61417834472780
H           61.34914231111657       18.25111925238571       17.80292434978504
C           55.85857063379901       11.24500704531759       13.63453299516576
H           56.22326855451976       10.76693296389622       12.72849595640552
H           54.87327744469598       11.65916298150137       13.41601893087782
H           55.74025792830765       10.48300519899002       14.40120270089784
C           58.30540163981157       12.54388449668080       12.00088975550039
H           59.37162154734880       12.74992249812948       11.93926548850155
H           57.80761246943562       13.09597638574121       11.20384256586303
H           58.15982977952600       11.48220878745704       11.81276430231336
C           54.26319855496390       11.60628643821646       18.75465533143025
H           54.60836267395558       10.91724892688383       17.98791672113259
H           53.21375502433855       11.82740969806185       18.56164001195853
H           54.32594716776769       11.10599756596132       19.71993580682940
C           54.89382827099342       13.56976669700323       21.18123869862534
H           55.62742591282147       13.80220725208690       21.94923815886016
C           53.67420991722418       13.16593575115474       21.52165913853429
H           52.92679590834649       12.97280242123797       20.76782200702104
H           53.33939820314855       13.04510498703157       22.53943968727207
C           58.35040430231840       17.47079633697539       22.09225952438956
H           58.83642689008384       16.72184684378232       22.71965940824570
H           57.27832837760450       17.38326148668997       22.24155228210986
H           58.67071283383626       18.45445308509923       22.43052018229411
C           60.96064583134348       18.44526627162191       20.56799908609167
H           61.49801602977060       19.09760575084627       19.88418497884718
C           61.38385495976985       18.32918045830956       21.82530218819270
H           60.91478707086140       17.64725223275773       22.51673535037225
H           62.21492204858377       18.87970364352756       22.23780008065141
C           62.62017764777558       18.24454410156720       15.38553276393995
H           63.42242285640229       17.83499468396181       16.00042351822145
H           62.29660811306785       19.18107099372309       15.83264644943220
H           63.02127347491367       18.45937236829076       14.39904698894784
C           61.86039954535286       16.42809485453072       12.90306041516095
H           62.93575739783903       16.52545995030857       13.04047182344373
H           61.53152377365056       17.24026543868479       12.25453442084595
H           61.66909368939389       15.48785682303811       12.39533017221554
O           56.52265282998772       17.05282736844018       16.30784651590740
H           56.38153731268815       17.72871942012723       16.97772601664725
H           55.98143891039841       17.19613028879350       15.52691841660301
C           60.71654036166856        8.56279670618797       16.14854950336828
H           59.97494060329141        8.24502082027692       15.41712373080601
H           60.65705245663376        7.89188824342820       17.00039856244316
H           61.69850683396101        8.46847118706954       15.69471096259454
C           60.45302981771904        9.97771957671789       16.56714223201835
C           59.61682779044725       10.25313499802559       17.64194937352860
H           59.16193558759546        9.43722923873504       18.18460228043006
C           59.35686141729575       11.55377160192117       18.02873665965718
H           58.71288022478303       11.77202307059465       18.86534577283619
C           59.93768987148407       12.60622655612166       17.33291271591818
O           59.68978019612996       13.89430913071260       17.74361254841528
H           60.24449253820172       14.49191075488163       17.19911939106255
C           61.02472575373715       11.03946591514798       15.87956540000077
H           61.67039336673682       10.84270172462874       15.03567171067115
C           60.77994333041362       12.34518667423932       16.25937895714986
H           61.22945425087281       13.16755207356392       15.71906769639995
82
 energy: -121.692756637287 gnorm: 0.021991419182 xtb: 6.7.1 (edcfbbe)
Fe          58.09184987679257       15.26248870673017       16.95541066595812
N           57.70440964298290       14.00407364093177       15.40389222446877
N           56.67994747212425       14.35974725366310       18.02171655699837
N           58.62009560058578       16.40439404482666       18.52676892504575
N           59.65532009195701       16.02836169632570       15.90852090161065
C           58.33764715770118       13.96969684103226       14.19754791576360
C           57.78522213928911       12.93048608211796       13.35943255264519
C           56.77874388671560       12.35616043854204       14.07542144423638
C           56.74984327821709       13.03736651233319       15.35125944302368
C           55.91354702834206       13.29970530764334       17.64901703289575
C           55.10110651248844       12.84528823349025       18.75109584079842
C           55.37325752822248       13.68065669163956       19.80103042138871
C           56.35888319250756       14.62826347942130       19.31634495842866
C           57.99658165528328       16.41534540834296       19.73756845937964
C           58.72357019845562       17.22923774548352       20.67349937428083
C           59.83498001264309       17.68841420644670       20.00851258826340
C           59.72071270765193       17.19398662840323       18.64976443461028
C           60.55308378985139       16.96163055379907       16.34195600244564
C           61.49197788014406       17.27775659867029       15.29411159133905
C           61.15035475551604       16.50757090197319       14.22026374045405
C           59.99334356877137       15.74399630737902       14.61875689984020
C           59.34969285937336       14.82560827343901       13.80191832736689
H           59.67063777692724       14.76702119562351       12.76490527779765
C           55.88492805710241       12.73041393426968       16.38522366243179
H           55.12796994038153       11.97641234888353       16.19582838534721
C           56.89034427311808       15.65175553248663       20.07590121019729
H           56.45190205266198       15.81613513889145       21.05201566724426
C           60.59450958449203       17.50077864348249       17.61840152705397
H           61.37486633808064       18.22023391780956       17.82167354586505
C           55.86317479707966       11.26051227101008       13.64907186300578
H           56.23497193527437       10.78140053578828       12.74640661384811
H           54.87142392395367       11.65988823428907       13.42965937128078
H           55.75641007188736       10.50347246028851       14.42303272381590
C           58.29742071121896       12.55367981671251       12.01181835720644
H           59.36451167012906       12.75154149585393       11.94073726457249
H           57.79412023544783       13.11179747371265       11.22200710351027
H           58.13833247534084       11.49360857299977       11.82367242854394
C           54.26248743548712       11.61583405460402       18.75088558004644
H           54.61019829153653       10.91584687065458       17.99514032592825
H           53.21620199154525       11.84359415843656       18.54826142757653
H           54.31420372922251       11.13170687701610       19.72574705574665
C           54.89546471490461       13.57971781220869       21.15994584707228
H           55.61239238902215       13.83183966115377       21.93098847206149
C           53.67303977161153       13.17826241876988       21.50754373071638
H           52.92435224681532       12.95149858812944       20.76819993969923
H           53.37627565668160       13.06619327641376       22.53606297107966
C           58.34270063498023       17.46416579921499       22.09169315115240
H           58.80799288015476       16.71575566950572       22.73671268512739
H           57.26607369111323       17.39909300541652       22.23010761396925
H           58.67806708547226       18.44771853828368       22.41598438297982
C           60.94979604536420       18.42525609780845       20.54996563793238