82
 energy: -121.709877371863 gnorm: 0.000042663319 xtb: 6.7.1 (edcfbbe)
Fe          58.35811080813569       15.05343059794872       17.21395346302925
N           57.93626722455137       13.84183576405296       15.65717065933867
N           56.90681091210627       14.17724597431606       18.27984103507271
N           58.76727239516141       16.26628611335281       18.73489098204315
N           59.80630878779061       15.91539483679063       16.12586461285938
C           58.60210717696149       13.76681645372778       14.47310119262963
C           58.07984550358741       12.69280088408914       13.66044616087791
C           57.07398238983334       12.12451581214357       14.37726127764464
C           57.00129125622027       12.85213155434680       15.62321490344217
C           56.09043975444579       13.16101351585479       17.88192095471599
C           55.19184755445832       12.78155413201293       18.94163216749913
C           55.48611754946583       13.59356226144690       20.00501285647372
C           56.56757987352150       14.45278501771857       19.56566386206271
C           58.14822729575146       16.29054040650649       19.94603370385776
C           58.70738528843361       17.31884641596445       20.78850507608855
C           59.69188323844958       17.92235951052290       20.05467199556519
C           59.70160727635663       17.24913896105888       18.76919921573563
C           60.60848849554364       16.94427019619406       16.51151571834958
C           61.52401792488327       17.30275752646273       15.45205203521783
C           61.25450430847850       16.46543074765330       14.41401215921847
C           60.17767640225092       15.60705839248382       14.85284950068081
C           59.63323316997460       14.59863400369460       14.08032243250645
H           60.05119730824317       14.44292309493476       13.09817837685542
C           56.11876907934933       12.54966468719697       16.63970862028267
H           55.41654009309300       11.75014519806035       16.46281495772009
C           57.13048637503317       15.44433717491207       20.34443440361752
H           56.74597039406537       15.56782742568677       21.34485753434016
C           60.57310250689414       17.56576503528679       17.74471088399574
H           61.27689328860733       18.36544328835326       17.91524914159483
C           56.20429811623422       10.96616085094084       14.02993572202886
H           56.41821717460634       10.60928472043684       13.02544541902181
H           55.15160659762812       11.24513467053662       14.07704715351571
H           56.36942989342766       10.14619120310436       14.72913949448715
C           58.60999352778341       12.32284762028338       12.31868153600369
H           59.65185581719303       12.01192113624358       12.39788269261504
H           58.55975972766488       13.17071255958436       11.63545451448775
H           58.03889137178523       11.50353410098794       11.88907798541393
C           54.20926354967339       11.66523434075146       18.87379126898350
H           54.62140779135301       10.82171748615458       18.32205314648860
H           53.29297389015638       11.98123718512280       18.37218956138789
H           53.95383036539417       11.33313431054720       19.87782985454436
C           54.89887883962656       13.61911946540238       21.32677908399671
H           55.57707064206721       13.86657998218639       22.13486636049327
C           53.62310828504869       13.37447714226461       21.60654189679357
H           52.89664852689579       13.17005450803747       20.83935034035148
H           53.25429238137922       13.39717788840928       22.61843421426984
C           58.22437888537134       17.66429897050497       22.15317064161270
H           58.63871428736619       16.98124979588873       22.89641185652988
H           57.13849258039031       17.60137712967756       22.20479245508751
H           58.52739434274271       18.67707420361043       22.41034131034243
C           60.55456054576990       19.02686533303014       20.41365283276462
H           60.81339655784092       19.70074367954804       19.60533961375679
C           61.04015717988183       19.25969731575949       21.62842462949963
H           60.85385542695070       18.59769569633804       22.45599402684884
H           61.66709004421966       20.11217541498877       21.83068951179384
C           62.53590030385877       18.39153275439504       15.55024400456051
H           63.22204725839209       18.20579028924289       16.37692047299839
H           62.04756114415481       19.35009491042246       15.72559432487784
H           63.11549534884290       18.46525815175628       14.63344898705079
C           61.89390965847207       16.38942199382005       13.07032173385469
H           62.68106811853331       17.13300181866751       12.97471803224022
H           61.15782320255645       16.56620839074763       12.28596669710900
H           62.33102574341518       15.40388029976169       12.90701025200221
O           56.78477644098176       16.47429731642812       16.37668261808323
H           55.98222910117092       16.17753444733442       16.81956023213409
H           56.73420532088865       16.17304733906827       15.46295411657502
C           59.91130679399262        8.95671015155626       14.74963172998084
H           59.18288681524760        9.12816122496072       13.95653700980671
H           59.59312621652019        8.08472029199015       15.31630119823321
H           60.87197234017669        8.74550403566500       14.28618424429563
C           59.99165886991788       10.16768594537166       15.62863820303577
C           59.11471733222967       10.33011031405499       16.69490445277193
H           58.39480625933468        9.55509197888163       16.91408386412006
C           59.13911088971584       11.47006241821565       17.47243948118275
H           58.44565661396283       11.61373974582913       18.28489951766920
C           60.04662075870324       12.48063153337966       17.18361893804584
O           60.00753632374107       13.63199682116465       17.93780640790002
H           60.75317584676801       14.19623491900570       17.68357194661174
C           60.91811152477683       11.16997143959775       15.37713874021612
H           61.61713272059820       11.05825629129560       14.56084605114050
C           60.95369519622015       12.31830691265037       16.14725376706917
H           61.66491387665705       13.10253657171540       15.92531596984154
