78
 energy: -115.906770306968 gnorm: 0.403001450846 xtb: 6.7.1 (edcfbbe)
Fe          -1.50500000000000       18.26200000000000        0.17800000000000
N           -3.45000000000000       18.01900000000000        0.78900000000000
N           -1.95700000000000       20.28100000000000       -0.28700000000000
N            0.51400000000000       18.77800000000000        0.15900000000000
N           -0.98800000000000       16.53600000000000        1.11500000000000
C           -3.96800000000000       16.89800000000000        1.41800000000000
C           -5.39600000000000       17.09800000000000        1.68900000000000
C           -5.67700000000000       18.32700000000000        1.28800000000000
C           -4.52500000000000       19.00700000000000        0.73000000000000
C           -3.23100000000000       20.87400000000000       -0.33900000000000
C           -3.10800000000000       22.09300000000000       -0.97500000000000
C           -1.81900000000000       22.32400000000000       -1.27400000000000
C           -1.11300000000000       21.14400000000000       -0.86300000000000
C            0.97300000000000       19.95600000000000       -0.42000000000000
C            2.47300000000000       19.85600000000000       -0.32200000000000
C            2.80000000000000       18.66600000000000        0.18500000000000
C            1.60000000000000       17.91100000000000        0.53300000000000
C            0.35100000000000       15.95700000000000        1.15900000000000
C            0.13100000000000       14.60200000000000        1.46900000000000
C           -1.24100000000000       14.24900000000000        1.73900000000000
C           -1.87700000000000       15.53800000000000        1.51200000000000
C           -3.25400000000000       15.70200000000000        1.68800000000000
H           -3.82100000000000       14.84800000000000        2.06000000000000
C           -4.36800000000000       20.23700000000000        0.15600000000000
H           -5.28500000000000       20.81700000000000        0.07100000000000
C            0.30300000000000       21.04300000000000       -0.96700000000000
H            0.86500000000000       21.82300000000000       -1.47900000000000
C            1.51300000000000       16.66400000000000        0.95100000000000
H            2.45000000000000       16.14400000000000        1.15100000000000
C           -7.04900000000000       19.08300000000000        1.34700000000000
H           -7.77000000000000       18.49700000000000        1.95600000000000
H           -7.45700000000000       19.20000000000000        0.32000000000000
H           -6.90800000000000       20.08000000000000        1.81600000000000
C           -6.33700000000000       16.09800000000000        2.28700000000000
H           -6.33900000000000       16.20500000000000        3.39300000000000
H           -6.00800000000000       15.07000000000000        2.02500000000000
H           -7.36500000000000       16.27600000000000        1.90600000000000
C           -4.34600000000000       23.03600000000000       -1.21500000000000
H           -5.09000000000000       22.88500000000000       -0.40400000000000
H           -4.82100000000000       22.79200000000000       -2.18900000000000
H           -4.01700000000000       24.09700000000000       -1.20800000000000
C           -1.35800000000000       23.53300000000000       -2.01700000000000
H           -2.12800000000000       24.27200000000000       -2.27600000000000
C           -0.16500000000000       23.84200000000000       -2.40700000000000
H            0.60900000000000       23.06700000000000       -2.50300000000000
H            0.09100000000000       24.88400000000000       -2.64700000000000
C            3.40000000000000       20.95000000000000       -0.86500000000000
H            2.96700000000000       21.94800000000000       -0.64000000000000
H            3.50300000000000       20.84200000000000       -1.96600000000000
H            4.39700000000000       20.87200000000000       -0.38100000000000
C            4.25000000000000       18.15900000000000        0.37500000000000
H            5.00200000000000       18.34900000000000       -0.40500000000000
C            4.60700000000000       17.54000000000000        1.38100000000000
H            3.89100000000000       17.32600000000000        2.18800000000000
H            5.64600000000000       17.19400000000000        1.48400000000000
C            1.28400000000000       13.58300000000000        1.40400000000000
H            1.99900000000000       13.77900000000000        2.23100000000000
H            1.81800000000000       13.68200000000000        0.43500000000000
H            0.88100000000000       12.55300000000000        1.51300000000000
C           -1.84200000000000       12.93000000000000        2.04700000000000
H           -1.09600000000000       12.29600000000000        2.57100000000000
H           -2.14400000000000       12.42600000000000        1.10400000000000
H           -2.72600000000000       13.06500000000000        2.70600000000000
O           -1.29000000000000       19.44500000000000        2.48700000000000
H           -0.35400000000000       19.58800000000000        2.62400000000000
H           -1.94400000000000       19.67400000000000        3.04400000000000
C           -1.15100000000000       15.13000000000000       -4.61200000000000
H           -0.83700000000000       15.63100000000000       -5.55300000000000
H           -2.03300000000000       14.48800000000000       -4.82200000000000
H           -0.31000000000000       14.50800000000000       -4.23700000000000
N           -2.50900000000000       17.08000000000000       -3.78900000000000
H           -3.07400000000000       17.13500000000000       -4.61300000000000
C           -1.51300000000000       16.17300000000000       -3.58300000000000
C           -2.59700000000000       17.89300000000000       -2.68000000000000
H           -3.26700000000000       18.74600000000000       -2.58600000000000
N           -1.73100000000000       17.44500000000000       -1.77700000000000
C           -1.00300000000000       16.40900000000000       -2.36700000000000
H           -0.18000000000000       15.94100000000000       -1.84200000000000
78
 energy: -115.998553850222 gnorm: 0.169861180179 xtb: 6.7.1 (edcfbbe)
Fe          -1.50387381693698       18.29651327377795        0.25618228686972
N           -3.45293645992695       18.01828939556892        0.79741903898459
N           -1.95961553673471       20.26944270537586       -0.31090708830760
N            0.50527214618321       18.76731707006906        0.13180882087257
N           -0.99336250424515       16.52504806536582        1.10996004180529
C           -3.96796485533885       16.90125948290768        1.40018677868645
C           -5.39115149237321       17.10080111920302        1.68388221079078
C           -5.68838596317749       18.35297518599207        1.27970004126757
C           -4.50529423418304       18.97353202283859        0.72118863040367
C           -3.22506877433063       20.84868594735232       -0.34416132907697
C           -3.13605068052325       22.10742667611338       -0.97451316132679
C           -1.82728437844386       22.32610996916490       -1.31403017852369
C           -1.10668309411530       21.14754674322211       -0.86928237710732
C            0.99192977868504       19.93298071486267       -0.40751415358428
C            2.47382822725522       19.86722924300809       -0.34981221408481
C            2.81396043858102       18.67197216116822        0.17300436342677
C            1.58763931182641       17.94635128734489        0.50255079648263
C            0.30270443166536       15.94839251927629        1.15693386441390
C            0.13504618194157       14.57422570353012        1.47139771386176
C           -1.20845218882342       14.27656913616311        1.72206590927640
C           -1.87590634067807       15.54537435709978        1.49707202846315
C           -3.25177577024713       15.72417832828231        1.67228225461799
H           -3.81251966173249       14.87266414927487        2.05457836827272
C           -4.36591992682744       20.22035392337169        0.15660523627793
H           -5.28046588062352       20.80809464827098        0.08004741278477
C            0.29817447678013       21.00910311264257       -0.94399541043421
H            0.85916365286627       21.78933648964686       -1.44308979781644
C            1.48613639954585       16.66122393043070        0.94578346422690
H            2.42455801699322       16.13936540334303        1.14084432903647
C           -7.03617739589453       19.07486442173853        1.34808178417924
H           -7.75662467313985       18.50576729699987        1.94729211272786
H           -7.44669530559837       19.19978856698609        0.33732702787280
H           -6.90838143148059       20.06288319482196        1.80604451735981
C           -6.32779747765736       16.10121497893238        2.28614299221104
H           -6.33969672714347       16.19868242361251        3.38077598346531
H           -6.01754481084375       15.08159262766533        2.03037994274340
H           -7.34704898398642       16.26810049099404        1.91423325608559
C           -4.33551142482641       23.02877813536029       -1.20942006876216
H           -5.07691597401553       22.88819807622416       -0.41519173463154
H           -4.80965306742025       22.79596762610641       -2.17228518650808
H           -4.02199430721871       24.07865178686393       -1.20996084737377
C           -1.37004545654680       23.52853904751542       -2.01421302238746
H           -2.13803008038105       24.27224639729699       -2.23035216781314
C           -0.15042597710389       23.84635166593371       -2.41508687684492
H            0.62841677859272       23.10014804751414       -2.49218371168530
H            0.09277902503324       24.86870968005400       -2.68380857844059
C            3.39342890845205       20.94745308529676       -0.86196513161413
H            2.97467969433190       21.93628152272502       -0.64265335275650
H            3.50429443239526       20.84600120976497       -1.94980038553310
H            4.38105745345745       20.87204346411217       -0.39091917175969
C            4.22230297665972       18.17644343880336        0.34967947240850
H            4.96431925631131       18.37161544629841       -0.42481043406315
C            4.61076911553349       17.52211853949245        1.41156448662376
H            3.91270213316456       17.31624082579198        2.21257895598960
H            5.63797876007853       17.18355519147527        1.50748801507701
C            1.27914047808610       13.58336683196693        1.41244376264394
H            1.99451600396724       13.77355789725765        2.22234380794997
H            1.80790847655411       13.67779640002941        0.45424244684654
H            0.89315246770064       12.56369864393465        1.51070086546496
C           -1.82582500231238       12.95361345467348        2.04365176304297
H           -1.10737802244316       12.30551652081587        2.56349476970164
H           -2.14029153295995       12.43656855084937        1.12255015389956
H           -2.70758659298936       13.06548092983465        2.69127515921422
O           -1.27809404335745       19.42127061462705        2.45335267921844
H           -0.35473144032692       19.58997984989977        2.62610083583587
H           -1.95432672464559       19.67778865043056        3.05257437249235
C           -1.15313416968387       15.13826006684648       -4.60906526926224
H           -0.84075060240144       15.62187912041727       -5.54386805733575
H           -2.01772583369199       14.49554335025450       -4.82071127624057
H           -0.32709295647078       14.51922690825633       -4.24204819777185
N           -2.50686023616836       17.08518206980369       -3.78527432862878
H           -3.07641504514638       17.14327129145955       -4.61209052203416
C           -1.51331273075292       16.17098133351752       -3.58372470940790
C           -2.58808772023090       17.87401388831415       -2.67025760228706
H           -3.25574004972219       18.71887291399006       -2.58029111945910
N           -1.70803007113840       17.47290175278299       -1.76869288919922
C           -1.01373143571255       16.41867181771785       -2.34657174884235
H           -0.19549015996851       15.94895718927217       -1.83126065297181
78
 energy: -116.031775532918 gnorm: 0.047087892972 xtb: 6.7.1 (edcfbbe)
Fe          -1.49323560256494       18.34253431652696        0.33377028504111
N           -3.45035769050843       18.02513847393934        0.80192575057286
N           -1.96107616926473       20.25417143659537       -0.32817645475256
N            0.50399515465184       18.75861215490380        0.12176108919895
N           -0.99668726575753       16.52149692774804        1.10112348915149
C           -3.96388387917190       16.90916836579661        1.38333691432069
C           -5.38067927785538       17.10416604268370        1.67198440131523
C           -5.68872876167089       18.37020281343029        1.26681143788934
C           -4.47487264672862       18.94116697513267        0.71293387253597
C           -3.21235000063765       20.81674160871861       -0.35467583655596
C           -3.15265722010283       22.10883723163028       -0.97692142273718
C           -1.83377753399228       22.31910132958931       -1.34747261345551
C           -1.10307456166075       21.14106750723895       -0.88363214170176
C            1.00766558747617       19.90630341175088       -0.40407549217469
C            2.46523327039672       19.86516788431944       -0.37264170768437
C            2.81842930533141       18.66242438035644        0.16956098631636
C            1.56667757921276       17.96657825884505        0.47232699796807
C            0.25323692582891       15.95824155441519        1.14318643633448
C            0.13613252343428       14.56019431104650        1.46939278791198
C           -1.18219565782537       14.30080984467034        1.70259501874306
C           -1.87665641681199       15.55548040689415        1.47765033470621
C           -3.24806424384468       15.74570157238706        1.65336072241704
H           -3.80317880900506       14.89996346676969        2.04703358596929
C           -4.35877169861434       20.20415680770714        0.15439386447265
H           -5.27056466061191       20.79385828636627        0.09156524563443
C            0.28545265516907       20.97264153773152       -0.92809445497308
H            0.85209241062997       21.75910171312241       -1.39890506682101
C            1.44939768937804       16.66097555032237        0.92992582602990
H            2.38286102819505       16.13499167674860        1.12025238192888
C           -7.01219812741290       19.06835864474648        1.34469554988183
H           -7.72907019584277       18.50572079155355        1.93858198963969
H           -7.43342936446074       19.20115397063859        0.34720763645524
H           -6.90241147648880       20.05237035845024        1.79772608704670
C           -6.31425507200986       16.10667221206559        2.28224611924552
H           -6.33209173585853       16.19753124010268        3.36984909393322
H           -6.01824556335885       15.09120533199541        2.03248899684566
H           -7.32879077891737       16.26483505669129        1.91827213682711
C           -4.32058728944092       23.01328748069631       -1.20218744340981
H           -5.06602327869844       22.88596416160011       -0.42097924912134
H           -4.79811314845309       22.79559032703202       -2.15946379638718
H           -4.01901859747137       24.05833601078950       -1.20952648388112
C           -1.37471707941310       23.51945930889474       -2.00378736660092
H           -2.14259972135769       24.27117417131326       -2.16939420247619
C           -0.14756536535945       23.84485400321251       -2.42134628192074
H            0.64991319066145       23.13166409758579       -2.47299628950217
H            0.07880702440414       24.85069222376444       -2.73372300635726
C            3.37896116462713       20.93988567291205       -0.86086225502440
H            2.97678660849434       21.92677981152049       -0.64417939877907
H            3.50538947293536       20.85309809250927       -1.94140540302208
H            4.35994646659521       20.86325111921107       -0.39615734666279
C            4.18363366094909       18.17985830318612        0.35021222878361
H            4.91172739841135       18.39246994144148       -0.42542282846257
C            4.60069185186817       17.51463529633492        1.42429887240746
H            3.92701857926611       17.31057660491458        2.23234017434837
H            5.62153605627447       17.18428847682420        1.51184967540484
C            1.27190207072820       13.58945338247501        1.42186170390811
H            1.98944728553056       13.77449457608544        2.21991329765416
H            1.79909124574134       13.67859159142935        0.47137959769820
H            0.90284071869367       12.57243831170055        1.51354768358956
C           -1.81169870772343       12.97772534544459        2.03862851202945
H           -1.10752795328548       12.32624838586218        2.55604103784963
H           -2.13412129795409       12.45696368646663        1.13110022277835
H           -2.68810761091137       13.08551284104609        2.67869153307339
O           -1.27308272069048       19.37555479593322        2.42054359345681
H           -0.36495183505896       19.59907172622788        2.63457985875991
H           -1.94429037445970       19.67682205769898        3.03698577674872
C           -1.15492700303282       15.14763556269159       -4.60009225643574
H           -0.84527944888969       15.62032314169029       -5.53188523207145
H           -2.00813291218423       14.50405513049854       -4.81497714403635
H           -0.33853426260712       14.53023046877336       -4.23977765486887
N           -2.50314073843445       17.09343578793887       -3.77408111042273
H           -3.07633461107148       17.15534465890710       -4.60164054905322
C           -1.50958744935717       16.17220721540869       -3.57720747740142
C           -2.57552599463215       17.86357130350518       -2.66022162026996
H           -3.24755162982831       18.69537887623864       -2.56651292105525
N           -1.70035368833012       17.48381434621418       -1.75882827213791
C           -1.01893786154457       16.43445005836082       -2.32768555912896
H           -0.21085193371603       15.95496819202913       -1.81499646747795
78
 energy: -116.040143881589 gnorm: 0.032478683844 xtb: 6.7.1 (edcfbbe)
Fe          -1.48836645385290       18.36476601111478        0.36404274708494
N           -3.43752454991561       18.03395227064559        0.80850309762706
N           -1.96075598575678       20.23241874454912       -0.34219494033025
N            0.49224117712718       18.75006195473041        0.10991864478005
N           -1.00385952409684       16.53047921795971        1.09204953035922
C           -3.95702781531438       16.91341155194750        1.37368832241812
C           -5.36851278641926       17.10535220172104        1.65756100159611
C           -5.67573278363341       18.37170453641236        1.25215145613208
C           -4.45512828648386       18.93148515659978        0.70450376921877
C           -3.20345022921352       20.79085203263270       -0.36879325208905
C           -3.14986795845057       22.09030824381308       -0.98678325124392
C           -1.83262935347840       22.30280831135470       -1.35653112397085
C           -1.10334481680186       21.12334868400498       -0.89937189777289
C            1.00250294850342       19.89470234099421       -0.40995150808549
C            2.44704201437196       19.85403038771268       -0.39078093920599
C            2.79896480590222       18.65063872677948        0.16219143955523
C            1.54530391913421       17.96495105772108        0.45603093429624
C            0.23238473723625       15.96975242808015        1.12113340928928
C            0.13456745927760       14.56455349375202        1.45629889217781
C           -1.18259883624636       14.31293938389812        1.68531473466070
C           -1.88357755149057       15.56305436466799        1.45947595197219
C           -3.24776214588106       15.75181226562810        1.63769366740158
H           -3.80266220891640       14.91258261702924        2.03552522719839
C           -4.35239410557722       20.19457909883287        0.14470624337304
H           -5.26200843249152       20.78174427793151        0.09549422601026
C            0.27509249073123       20.95813548406732       -0.92286149000712
H            0.85389319028780       21.75346516975804       -1.35841586406597
C            1.42696410542655       16.65595128775329        0.90608981442768
H            2.35202087483785       16.11929809439339        1.07929215104792
C           -6.99078312925573       19.07016250998963        1.33500704878163
H           -7.69725932510816       18.49821015271960        1.93191834929496
H           -7.41958205338008       19.20749528178517        0.34103658624654
H           -6.88391838748091       20.05317607386149        1.79169819717778
C           -6.29672861632752       16.10960216523123        2.27501477169848
H           -6.30857992961475       16.20298826711092        3.36210048556399
H           -6.00401617848303       15.09281051287139        2.02749730922332
H           -7.31248543776099       16.26593061360649        1.91607287641609
C           -4.31372062523256       22.99628599381580       -1.19932393437313
H           -5.05932653861306       22.87175434495365       -0.41721305250996
H           -4.79486003580480       22.78780961617941       -2.15733041389061
H           -4.00709022332715       24.04029817332314       -1.20469844294764
C           -1.37055152346554       23.51389950279037       -1.98688280549980
H           -2.14294682182096       24.27617824698832       -2.09535770574143
C           -0.15348411040295       23.84784473726970       -2.42822493582915
H            0.67446391783050       23.16254550103192       -2.44981136252539
H            0.04302607717198       24.84191749581794       -2.81267721289680
C            3.36391525449182       20.93118054405732       -0.86497515090358
H            2.96719513907733       21.91877352140569       -0.63968250016474
H            3.50155643764523       20.86080781447216       -1.94606817800877
H            4.34062264018912       20.84302338191284       -0.39402089052243
C            4.15113069666501       18.17105534228761        0.36060226558545
H            4.86481230481250       18.40862575870152       -0.42202784375457
C            4.58469836462004       17.50635083028543        1.43254115614976
H            3.92928841681297       17.29765960577578        2.25834650391250
H            5.60814974039601       17.18374860095989        1.51728255438728
C            1.27266443869187       13.60019267935657        1.43006036140763
H            1.98572222560910       13.79154223187316        2.23072935084403
H            1.80469263045009       13.68341452988387        0.48250497382499
H            0.91023792762348       12.58021120777434        1.52583129251858
C           -1.80959292011735       12.99717033572887        2.03257142496161
H           -1.09978733889026       12.35431094235009        2.54973871091713
H           -2.13461339639420       12.47894353335972        1.12751672457030
H           -2.67879550894937       13.12140400100520        2.67474927217200
O           -1.25561799876436       19.28445722590783        2.42770676688121
H           -0.36934874021910       19.62878408013252        2.63977021675880
H           -1.93542006406734       19.68053488330280        2.99548000586767
C           -1.15457971688384       15.15979546787802       -4.58362394585424
H           -0.84622178809260       15.63193974223766       -5.51621538122424
H           -2.00779307054635       14.51681754741990       -4.79965078980525
H           -0.33978661685121       14.54026975804642       -4.22469555364566
N           -2.49794859145792       17.10463119381116       -3.75543966481936
H           -3.07145221353225       17.17068510184379       -4.58209708051927
C           -1.50467489520051       16.17989999019580       -3.55879034431653
C           -2.57213956636694       17.86675393658913       -2.64133528951577
H           -3.25664036004790       18.68441010395012       -2.53613231653147
N           -1.69018525071517       17.49550573716309       -1.74825431958724
C           -1.01846230090705       16.44321126648640       -2.30648434613631
H           -0.22155683682092       15.95284051801401       -1.78674473749371
78
 energy: -116.043736190143 gnorm: 0.028984657196 xtb: 6.7.1 (edcfbbe)
Fe          -1.48527704705749       18.37316118568081        0.36689415039251
N           -3.42083551341564       18.03817784233832        0.80495422996425
N           -1.95629278379482       20.21523007766547       -0.34262191633642
N            0.47411800656984       18.74532423609138        0.10081872198139
N           -1.01265401756978       16.53923458809833        1.06794140717606
C           -3.94714379596654       16.91703406582797        1.36497744591354
C           -5.35573401813800       17.10623441461440        1.64103022823276
C           -5.66063479053934       18.37024449752887        1.23599602251536
C           -4.43927486046802       18.92950908288290        0.69643736697260
C           -3.19602023448580       20.77186917166676       -0.37906029545606
C           -3.14261801855392       22.07324082638586       -0.99143732446125
C           -1.82825391666761       22.29358025711280       -1.34807284251762
C           -1.10220287481306       21.11325180723825       -0.90044347200633
C            0.99288302507894       19.88778030469014       -0.41947806780063
C            2.43058534206260       19.84321646951697       -0.40338704737932
C            2.77660101375784       18.64027541088355        0.15516787034973
C            1.52582997910820       17.95893333050403        0.44094448086555
C            0.22170859967505       15.97852340729859        1.09554167540150
C            0.13180797253879       14.57314649914923        1.43778097713754
C           -1.18587355108272       14.32213609611325        1.66709967847342
C           -1.88784028499504       15.56953830733195        1.44065356556940
C           -3.24610646733491       15.75349848285740        1.62486149587427
H           -3.80449846082852       14.91808594353396        2.01957595367155
C           -4.34761464803082       20.18888835109369        0.13347756714122
H           -5.25717725275936       20.77012492341224        0.08887262614189
C            0.26943964650914       20.95618262936003       -0.91806510315441
H            0.85701755692227       21.75835434322441       -1.32656718610653
C            1.41316848908405       16.64870558811046        0.87617891090983
H            2.33175098755688       16.10079444118125        1.02896622719217
C           -6.97235308424123       19.07315815537099        1.32225341151328
H           -7.67369207398223       18.49620199606776        1.92095013756030
H           -7.40399420725812       19.21615339325296        0.33006211675259
H           -6.86004143105802       20.05380996624738        1.78361930409286
C           -6.27656190828515       16.11066809701960        2.26544948991801
H           -6.27674305896032       16.20766677969510        3.35277878058299
H           -5.98393731550544       15.09308435950283        2.01825197330282
H           -7.29569247385351       16.26453142577327        1.91447683964752
C           -4.30986170357272       22.97764628293188       -1.19859901762004
H           -5.05157061405634       22.84875816247862       -0.41319481488374
H           -4.79266141717219       22.77341872348066       -2.15691181196602
H           -4.00022578209623       24.02133504583677       -1.19870667850103
C           -1.36543403625427       23.51180136328777       -1.96847579969522
H           -2.14377972329529       24.26815687731978       -2.04749466677249
C           -0.16546457038481       23.84866787566981       -2.44564797146395
H            0.68140244599621       23.18685049409968       -2.46557311384356
H            0.01245253702647       24.83230497452547       -2.85674344025998
C            3.35097461784411       20.92170849670693       -0.86858010256041
H            2.95661861346074       21.90833755688981       -0.63086769713663
H            3.49167378011279       20.86603439100941       -1.95065436409493
H            4.32492133323130       20.82156495227183       -0.39361870954536
C            4.12553386768091       18.16195672301663        0.37329284803428
H            4.82917671401677       18.41485187126655       -0.41446043669646
C            4.56434028960024       17.49942266860610        1.44100223908070
H            3.91825294033116       17.27315986142124        2.27295776213463
H            5.59018750921634       17.18187427431415        1.52731355501130
C            1.27542621684120       13.61493044778619        1.43796015418489
H            1.97616351349269       13.82194756872568        2.24694001402138
H            1.81971460000904       13.68773347247932        0.49600381551498
H            0.91838711191328       12.59287899405718        1.54460543245353
C           -1.81144901294638       13.01596032317163        2.02782504811238
H           -1.09631039612775       12.37924845234737        2.54442318020331
H           -2.14454168674978       12.49526628422277        1.12816062840313
H           -2.67286527950005       13.15643145728278        2.67589342053500
O           -1.24176439958380       19.22478845350369        2.44510069654429
H           -0.37577631237203       19.61880649783066        2.63338228226664
H           -1.91120551514250       19.70235655957481        2.97608555481906
C           -1.15279868666209       15.17296172939297       -4.56234861718438