87
 energy: -124.535618732519 gnorm: 0.254730387778 xtb: 6.7.1 (edcfbbe)
Fe          16.50700000000000       35.16200000000000       34.35099999999999
N           16.75400000000000       36.74200000000000       33.20300000000000
N           18.26600000000000       34.47300000000000       33.80500000000000
N           16.25400000000000       33.55700000000000       35.49200000000000
N           14.70300000000000       35.80600000000000       34.89300000000000
C           15.93600000000000       37.87300000000000       33.15700000000000
C           16.50100000000000       38.86000000000000       32.24800000000000
C           17.64200000000000       38.31600000000000       31.72700000000000
C           17.77500000000000       37.00099999999999       32.31900000000000
C           19.10300000000000       34.99600000000000       32.82600000000000
C           20.31500000000000       34.25100000000000       32.73600000000000
C           20.29100000000000       33.25900000000000       33.69100000000000
C           18.98500000000000       33.44600000000000       34.33800000000000
C           17.18300000000000       32.62700000000000       35.81200000000000
C           16.60700000000000       31.54100000000000       36.56099999999999
C           15.25400000000000       31.82700000000000       36.70600000000000
C           15.08000000000000       33.11500000000000       36.08500000000000
C           13.74700000000000       35.10600000000000       35.60200000000000
C           12.58600000000000       35.92400000000000       35.80899999999999
C           12.83400000000000       37.10899999999999       35.21700000000000
C           14.14700000000000       37.02400000000000       34.64200000000000
C           14.73400000000000       38.01799999999999       33.86500000000000
H           14.22300000000000       38.97900000000000       33.80200000000000
C           18.84000000000000       36.16400000000000       32.11700000000000
H           19.54400000000000       36.43699999999999       31.33100000000000
C           18.49500000000000       32.57000000000000       35.31700000000000
H           19.16600000000000       31.80800000000000       35.71299999999999
C           13.92600000000000       33.85500000000000       36.14200000000000
H           13.07600000000000       33.41200000000000       36.66100000000000
C           18.62800000000000       38.93100000000000       30.74700000000000
H           18.29300000000000       39.95600000000000       30.47800000000000
H           18.67500000000000       38.31300000000000       29.82500000000000
H           19.63400000000000       38.99200000000000       31.21500000000000
C           15.90100000000000       40.23200000000000       31.98999999999999
H           16.18100000000000       40.92000000000000       32.81600000000000
H           14.79400000000000       40.15500000000000       31.94500000000000
H           16.29300000000000       40.63900000000000       31.03400000000000
C           21.41500000000000       34.52600000000000       31.69000000000000
H           21.91700000000000       35.48900000000000       31.92400000000000
H           20.96200000000000       34.59200000000000       30.67800000000000
H           22.17000000000000       33.71100000000000       31.71600000000000
C           21.27000000000000       32.28100000000000       34.04800000000000
H           21.03300000000000       31.20700000000000       34.04700000000000
C           22.60800000000000       32.71700000000000       34.42100000000000
H           22.86500000000000       33.78700000000000       34.42899999999999
H           23.37700000000000       31.98200000000000       34.69900000000000
C           17.33100000000000       30.30200000000000       37.11099999999999
H           18.12700000000000       30.62100000000000       37.81700000000000
H           17.79600000000000       29.73700000000000       36.27500000000000
H           16.60800000000000       29.65400000000000       37.65200000000000
C           14.17800000000000       31.03600000000000       37.21899999999999
H           13.34500000000000       30.74900000000000       36.56099999999999
C           14.14100000000000       30.59000000000000       38.59500000000000
H           14.95300000000000       30.85300000000000       39.28900000000000
H           13.30100000000000       29.98300000000000       38.96300000000000
C           11.31500000000000       35.49800000000000       36.52100000000000
H           11.51900000000000       35.38400000000000       37.60700000000000
H           10.96600000000000       34.52399999999999       36.11500000000000
H           10.52900000000000       36.27100000000000       36.38100000000000
C           11.87200000000000       38.30900000000000       35.20800000000000
H           11.38600000000000       38.40200000000000       36.20300000000000
H           11.08700000000000       38.15500000000000       34.43700000000000
H           12.43700000000000       39.24099999999999       34.99399999999999
C           15.55000000000000       31.57700000000000       30.14400000000000
H           15.73100000000000       31.98200000000000       29.12500000000000
H           14.60100000000000       31.00000000000000       30.13900000000000
H           16.39600000000000       30.91300000000000       30.42400000000000
N           14.49700000000000       33.69000000000000       31.01300000000000
H           13.80600000000000       33.73600000000000       30.29200000000000
C           15.45000000000000       32.70400000000000       31.11700000000000
C           14.64300000000000       34.55300000000000       32.00700000000000
H           14.01800000000000       35.43200000000000       32.16100000000000
N           15.66000000000000       34.15600000000000       32.75200000000000
C           16.18300000000000       32.99900000000000       32.21900000000000
H           17.02700000000000       32.49700000000000       32.67500000000000
C           15.75700000000000       37.04599999999999       37.97199999999999
H           15.48800000000000       36.85300000000000       39.03300000000000
H           14.89600000000000       36.76100000000000       37.33100000000000
H           15.97000000000000       38.13000000000000       37.85100000000000
C           16.98400000000000       36.23000000000000       37.58600000000000
H           16.75500000000000       35.15199999999999       37.71899999999999
H           17.82100000000000       36.49500000000000       38.26700000000000
S           17.44700000000000       36.53400000000000       35.93800000000000
C           19.18100000000000       36.42600000000000       35.99799999999999
H           19.51100000000000       35.42300000000000       36.34400000000000
H           19.58800000000000       37.18300000000000       36.70199999999999
H           19.61100000000000       36.60000000000000       34.98900000000000
87
 energy: -124.589734390221 gnorm: 0.109061362587 xtb: 6.7.1 (edcfbbe)
Fe          16.50764671387141       35.15817825844607       34.35108185995716
N           16.73992410589465       36.75426891374241       33.18564751637207
N           18.29254136387491       34.47080281848136       33.80608458060473
N           16.25837626032973       33.54845462222768       35.51046249080643
N           14.68902443675200       35.80881649906498       34.89219969980859
C           15.94064342101112       37.88270795884655       33.16047330766742
C           16.49449880942009       38.85987295673132       32.25618901494769
C           17.63648882334797       38.31332159410991       31.72695358189051
C           17.76962466557451       37.00584611222146       32.31383636891560
C           19.10868166003598       34.99049491469284       32.81665628790797
C           20.32355915174473       34.25881782228811       32.72869622336320
C           20.29267009119650       33.27185883561215       33.69867526118852
C           18.99059749428442       33.42719076588786       34.33759845312903
C           17.18916810381918       32.60514899101968       35.81656246514349
C           16.61293223986883       31.53689407151801       36.57777171690407
C           15.25950110370089       31.82582324577176       36.71263227860906
C           15.07611227474696       33.09714516713156       36.06649976129701
C           13.74100851900621       35.11067359743789       35.60229496445888
C           12.57758669199916       35.92071551621070       35.80585908882796
C           12.83070193458945       37.12685825870062       35.21703178901627
C           14.14357222743223       37.03793503862592       34.64165267529875
C           14.74472435165562       38.02676181709634       33.86786824235025
H           14.22663560037606       38.97344616139262       33.78809116337402
C           18.83864406624704       36.15649815252180       32.10031924767929
H           19.55350547603065       36.44267343931038       31.33952844477909
C           18.50343702856274       32.57107290362272       35.32555545305379
H           19.16340830760361       31.80266992366747       35.70222675747335
C           13.91432368732143       33.84167784914037       36.13080701836638
H           13.07744742466424       33.40943481166362       36.66557583018206
C           18.61345356051780       38.92326561358484       30.75754832453081
H           18.29889630881441       39.93593030093088       30.48363026305943
H           18.67791254829064       38.32251489081656       29.84204940757856
H           19.61351174188259       38.98661891205209       31.20397092306489
C           15.90481455289358       40.21842026596502       31.99561919257228
H           16.17388028825230       40.91066610343643       32.80339238403347
H           14.81277466176376       40.15955355441577       31.94267363669813
H           16.28168270138903       40.62967941442865       31.05306389744259
C           21.40507761959125       34.52529919463494       31.70415157642684
H           21.90991116116224       35.47479496142724       31.91938893423531
H           20.97124013343947       34.58796920576171       30.69924370724365
H           22.15112999115978       33.72417004986946       31.72197326671678
C           21.30468330129618       32.31083400619261       34.06236007044472
H           21.05443248802316       31.24806408443840       34.07257018632406
C           22.56938563247633       32.70043451075114       34.39873286548801
H           22.83691739646411       33.75159695198515       34.42217261311079
H           23.33682727191730       31.98742510620139       34.68188253270652
C           17.32794202357734       30.31773982994441       37.10528098051340
H           18.11793317016709       30.61538039810971       37.80512571130672
H           17.78799329765941       29.74750897893428       36.28924401416934
H           16.61896971822417       29.67234678576610       37.63478550695315
C           14.18702626265287       31.03063440830640       37.26532049655192
H           13.35889564127633       30.76616718013342       36.60336129838496
C           14.14849052843098       30.59527590751508       38.55397883138544
H           14.93478650700088       30.85462183704013       39.25422839884357
H           13.32287796616214       30.00063300500952       38.93169462044637
C           11.32560694969882       35.49661319057746       36.51857440415557
H           11.51411633267250       35.38036033401108       37.59284677766848
H           10.96767662495943       34.53891326103659       36.12482688943412
H           10.54332219331587       36.25026889354032       36.38351208170161
C           11.88664416136700       38.30560428059277       35.20463393892206
H           11.39989387469204       38.40195608368253       36.18199058313713
H           11.10557441876171       38.16305683866641       34.44741889226801
H           12.42566509467446       39.23226854734345       34.99376672509605
C           15.54750832497763       31.57929949433125       30.14144635196502
H           15.72777031415508       31.96824371605679       29.13240082601575
H           14.61745890481075       30.99984894303736       30.13224986239604
H           16.37732429938100       30.92370139994383       30.41840196844133
N           14.49567198882904       33.68169749708299       31.00466403065042
H           13.79976891014662       33.73163977460779       30.28109703956498
C           15.44638551636188       32.69995349848276       31.11262908663749
C           14.65666718141498       34.54694859802867       32.01463288649963
H           14.04057431309106       35.41771261763571       32.17011478517654
N           15.66716435888197       34.16341230091287       32.76475651909450
C           16.17249419258649       33.01114263760163       32.22235976306062
H           17.01014211770856       32.51046433134354       32.67217173600891
C           15.75505970198621       37.04430994681032       37.97833443698643
H           15.48566313884441       36.85729697704829       39.02219597683138
H           14.90730388921603       36.77174754213092       37.34379143137564
H           15.96073074775682       38.11273949202783       37.85214885810377
C           16.97919324966089       36.22120005087186       37.60296801722227
H           16.76008957179655       35.15101177704974       37.72322473445430
H           17.81788393962699       36.48606291170257       38.26293411826755
S           17.43450900815371       36.57200632389186       35.92259627418319
C           19.19584141899183       36.41925755235197       36.00477080939950
H           19.51193477000988       35.42310695590243       36.33831618761739
H           19.59316185756734       37.17586650853771       36.69314989589932
H           19.60476612445490       36.59768124832294       35.00479892816047
87
 energy: -124.600342787675 gnorm: 0.046519446864 xtb: 6.7.1 (edcfbbe)
Fe          16.50103643037127       35.15340533019890       34.34623719100311
N           16.72680515308624       36.76378889866356       33.16473571618135
N           18.31129323705323       34.47197079299994       33.80460999000782
N           16.26371215228327       33.53977572031337       35.52085246946120
N           14.67505075256683       35.81105125828608       34.89155676454153
C           15.94237406986318       37.88813395366287       33.15747175305312
C           16.48910259329172       38.86095012159910       32.26364958144286
C           17.63114157991135       38.30882159419883       31.72453756667078
C           17.76201638544490       37.00744946661573       32.30314594554297
C           19.10993874267974       34.98916285169998       32.81158845737207
C           20.32718899403876       34.26411945864606       32.72438189998753
C           20.28325007322802       33.28331430048438       33.70333098585390
C           18.99913348807889       33.42200483662672       34.34290193630738
C           17.19745284827452       32.58903023602864       35.82159290769872
C           16.61791989036533       31.53496318979267       36.58743695732989
C           15.26679099712204       31.82998661007545       36.70608567507814
C           15.07758969471842       33.08898663166033       36.05251451927101
C           13.73452122896999       35.11355497790336       35.59754958378628
C           12.57331314803475       35.91754131168980       35.80170011134840
C           12.83073557388757       37.14004048388891       35.21874705394472
C           14.13863412545495       37.04906752724120       34.64259668129748
C           14.75077759931833       38.03268856819395       33.86925030774213
H           14.22696334049262       38.97027597755547       33.77183743835637
C           18.83352243972719       36.14918052907998       32.08450937552373
H           19.56283622959344       36.44913790387883       31.34822306351122
C           18.51358848992691       32.57770585030181       35.33679669639964
H           19.16339856320823       31.79248168165117       35.68823645579617
C           13.90536042176020       33.83022750806379       36.11484465164727
H           13.07821382277315       33.40216943521965       36.66006395349630
C           18.59957477077977       38.91608352797404       30.76412848617178
H           18.29260885266556       39.92213122358192       30.49103325914709
H           18.67287746071572       38.32053119007403       29.85398397623456
H           19.59477009956254       38.97605491653856       31.20503738741286
C           15.90699096410344       40.20969098489695       32.00134671605329
H           16.16910390513594       40.90349175403582       32.80119559374370
H           14.82220181022066       40.15838005740829       31.94153947555679
H           16.28032263170933       40.61731593948369       31.06503202017317
C           21.39966143322091       34.52208586411151       31.72025983331386
H           21.90676839965721       35.46572773238002       31.92387272114399
H           20.97557524995904       34.58198168821431       30.71813922970087
H           22.13847863433228       33.72549561000643       31.73828888019672
C           21.32112326882516       32.33397181250762       34.07345604004559
H           21.04783263008008       31.28153111041477       34.09694929103291
C           22.53871123954932       32.69477000587306       34.39500493214450
H           22.82938650702173       33.73282375374027       34.40386606320786
H           23.30958468566573       31.98956086178383       34.65911105451472
C           17.32522285866672       30.33021167707473       37.10292480889250
H           18.11470191011472       30.61399994816508       37.79910604374687
H           17.78252206418118       29.76275389756885       36.29257945835317
H           16.62238252292942       29.68398630480357       37.62273674601372
C           14.19626454234527       31.03577778680611       37.29434312787460
H           13.37082930597898       30.79747334088676       36.62579490864381
C           14.15750974871984       30.61092193120096       38.53365157066511
H           14.93804232326215       30.84600331059064       39.23786926183028
H           13.34757672272513       30.00856096379767       38.91231210899254
C           11.33433050702695       35.49475571790013       36.51545118480689
H           11.51929505416095       35.37546327641081       37.58321165894622
H           10.97250899160476       34.54375763052682       36.12928363053180
H           10.55260099854770       36.23789307316670       36.38495498169268
C           11.90211679671972       38.30634771865106       35.20040289210198
H           11.41320978771757       38.40614741414093       36.16823942809167
H           11.12388447812415       38.17041033257072       34.44774782311244
H           12.42844453139459       39.23038054534552       34.98787589461008
C           15.54550054736120       31.57919321695033       30.14066574179341
H           15.72480987123191       31.96018669988538       29.13672829064804
H           14.62556110679736       30.99739900622124       30.12770243140261
H           16.36728727909475       30.92886945494434       30.41774934980385
N           14.49358778441988       33.67828523939684       31.00058158815564
H           13.79431237573717       33.73374519726726       30.27730496011189
C           15.44241838937969       32.69681683164928       31.11078844759015
C           14.66836148419193       34.54314050505612       32.02074389420988
H           14.06142342190300       35.41051216786022       32.18066303913833
N           15.67322586956898       34.16588193134378       32.77228607389219
C           16.16450698795056       33.01770504935971       32.22417008036462
H           16.99737263720595       32.51351300999440       32.66805415391282
C           15.74844616525211       37.03929361496807       37.99274911142759
H           15.47556693243194       36.85732382327109       39.02733717330905
H           14.91157093436770       36.77382220000637       37.35577660167743
H           15.95707847308782       38.09762228597434       37.86019245365456
C           16.97136883960277       36.21510341562974       37.62086156948883
H           16.76342648863801       35.14817600769974       37.71296312950575
H           17.81611701061926       36.47698278525581       38.26007664158526
S           17.42709102418205       36.61184153692971       35.91274474919300
C           19.21404363610739       36.41370694609643       36.00827725390480
H           19.49711298558763       35.41557677752980       36.33272116461423
H           19.60542393307844       37.16435348171629       36.69182587823270
H           19.60570806925302       36.59248890614047       35.01132004402935
87
 energy: -124.602661924007 gnorm: 0.013182613948 xtb: 6.7.1 (edcfbbe)
Fe          16.49710100420776       35.15639753062513       34.34552161419826
N           16.71526697018936       36.76082771585489       33.14935693602691
N           18.31144829974863       34.47929101310452       33.80542820916661
N           16.26879736211565       33.54487435282055       35.52388681203416
N           14.67011644505823       35.81246788901736       34.88496087276865
C           15.93763133655196       37.88700519183379       33.15083730908350
C           16.48364669409838       38.86013015638038       32.26183942352449
C           17.62252212142413       38.30403553276697       31.71774003580620
C           17.75145578961628       37.00281943996070       32.29016787606454
C           19.10534666040300       34.99220790430509       32.81023288017755
C           20.32520292603595       34.26988118108045       32.72876092976690
C           20.27630790734739       33.29562729148452       33.71233819220301
C           18.99950616114387       33.43127827598241       34.34935102637412
C           17.20288196502711       32.59338743977246       35.82683779272656
C           16.62178784348021       31.54292588371872       36.59205629697286
C           15.27232421008028       31.84121292322493       36.70375826874658
C           15.08076020579368       33.09364318035256       36.04512303797308
C           13.72989079105525       35.11304530454939       35.58554361240659
C           12.57207031922944       35.91712238669557       35.79459173246355
C           12.83207579795872       37.14386764605801       35.21661085897297
C           14.13623570288440       37.05289884369919       34.63977051959656
C           14.74911582826416       38.03506443404821       33.86662394466277
H           14.22339331919951       38.97067774000493       33.75857557766231
C           18.82586170314698       36.14606616464497       32.07497351835978
H           19.56620624422966       36.45453175796987       31.35226842910904
C           18.51719552454292       32.58587985136666       35.34293464220659
H           19.16403629996167       31.78977874593058       35.67915410034057
C           13.90161440751193       33.82614181353485       36.09697439875660
H           13.07672810513297       33.39419664445352       36.64231572641856
C           18.59084953306057       38.91101855841026       30.76153844904756
H           18.28494080456765       39.91735641255845       30.49001985428960
H           18.66629086919997       38.31501552352306       29.85210150789497
H           19.58439011153214       38.96759809342215       31.20600200617305
C           15.90559560186407       40.20926611610275       32.00315492856305
H           16.16520596112560       40.90172802377479       32.80486351294115
H           14.82080693592235       40.15990891387941       31.93902868685980
H           16.28246165553832       40.61604416771789       31.06838042547337
C           21.40207912428771       34.51958110863259       31.73086998156603
H           21.91112337896704       35.46321991211007       31.93096990570468
H           20.98402076362085       34.57377656965322       30.72575240127440
H           22.13720962312561       33.71997921742889       31.76009796684961
C           21.30771814378943       32.34129771215868       34.08324323083891
H           21.01355862002513       31.29546729461956       34.13111983460864
C           22.55637667453274       32.69210590104896       34.36663130948272
H           22.85558349935116       33.72777119969381       34.37913581724645
H           23.31157601503403       31.97840762897542       34.64895827256242
C           17.32705265188775       30.33599904396958       37.10185776299281
H           18.11762943635602       30.61357239732241       37.79965070381926
H           17.78380952170505       29.77369254205115       36.28749234121538
H           16.62261468864196       29.68730960690973       37.61595489324149
C           14.20169245748580       31.05141046525498       37.29459654583292
H           13.36571359039868       30.83979400755317       36.63103670125868
C           14.17992156712105       30.59442988464030       38.53885597779518
H           14.96137998066003       30.82633627545150       39.24298386539066
H           13.35950729262300       30.00855376189671       38.91910086651570
C           11.33793708564348       35.49149922864187       36.51319733582613
H           11.52861635510410       35.36906971194694       37.57984185977656
H           10.97525417026978       34.53990040891794       36.12842858476178
H           10.55344967389860       36.23247622110411       36.38820308779298
C           11.91161779942526       38.31503032546732       35.19505068237841
H           11.42047918330723       38.42021462167255       36.16106335703024
H           11.13551588469664       38.18310004402061       34.43923723364285
H           12.44246709539795       39.23667862700862       34.98059253257968
C           15.54142446369373       31.57794362569301       30.14197883565582
H           15.72216611940934       31.95653081456762       29.13714579362229
H           14.62325882936957       30.99304132451037       30.12605650989993
H           16.36307727403729       30.92792130565872       30.42068843269728
N           14.49284903714947       33.68050838813143       31.00345915019633
H           13.79291017202904       33.74037481460365       30.28090542029939
C           15.43853076246458       32.69518970771791       31.11305062380260
C           14.67417057563489       34.54378918523546       32.02519095960719
H           14.07415794100311       35.41460213749578       32.18890738237728
N           15.67723909444241       34.16306367876007       32.77628240809458
C           16.16170827909799       33.01376963926221       32.22651978877724
H           16.99231469354994       32.50452076296950       32.66793467437638
C           15.74227129902326       37.03089574557037       38.00916695487410
H           15.46617306358391       36.84472510777474       39.04257072739861
H           14.90554669710257       36.77013556278865       37.36974870748716
H           15.95054534017956       38.08979432881437       37.88211698108786
C           16.96541172055366       36.21240738992807       37.62877977330628
H           16.76187206440697       35.14291029520500       37.69700439868181
H           17.81383806346437       36.46495178198450       38.26519931381718
S           17.42545404448866       36.63676774138846       35.91637900020472
C           19.21869893264536       36.40778665201589       36.01074173081726
H           19.47599295004034       35.39960727496961       36.32615752964314
H           19.62297665382058       37.14613747424808       36.69891924018874
H           19.60843823320265       36.58573149792447       35.01354866528936
87
 energy: -124.604072717956 gnorm: 0.017252286485 xtb: 6.7.1 (edcfbbe)
Fe          16.49007963149614       35.15914626133143       34.34118738003887
N           16.70150625677183       36.75648838401322       33.13077918003280
N           18.30865478842762       34.48847290607122       33.80501925801212
N           16.27263901987649       33.55344821159505       35.52569697472511
N           14.66482840779470       35.81321629116247       34.87419624620478
C           15.93018836416244       37.88406064569752       33.13919415206760
C           16.47681514377743       38.85936224239023       32.25589031457373
C           17.61170651712329       38.29828558013192       31.70548462564567
C           17.73860938365098       36.99727184285172       32.27345526598090
C           19.10147739395168       34.99843484586889       32.81155688029652
C           20.32663380251302       34.28091989781687       32.73866421230942
C           20.27372554368436       33.31376383631649       33.72872148528712
C           18.99805695489167       33.44279209997378       34.35566250404966
C           17.20741128329425       32.60179054718387       35.83454822736329
C           16.62567920057037       31.55688089040337       36.60331547868748
C           15.27619686909748       31.85719926013244       36.70614088178445
C           15.08396697908127       33.10243628761030       36.03807869437270
C           13.72364852302932       35.11301717965746       35.56922227724746
C           12.56915881074983       35.91710366213212       35.78409915093338
C           12.83280400063675       37.14800321268459       35.21275816920442
C           14.13243713751599       37.05607242460670       34.63382487986280
C           14.74414199511600       38.03576800429359       33.85876858595842
H           14.21938942999753       38.97106395803592       33.74288578926459
C           18.81772364158119       36.14395674873456       32.06532636321305
H           19.56566832631692       36.45763134462345       31.35330249336929
C           18.51865968721269       32.59679841979341       35.34955963507888
H           19.16486378824416       31.79523753403577       35.67469395232480
C           13.89652078218913       33.82317255372530       36.07414283961133
H           13.07182188609385       33.38337752828718       36.61279260866167
C           18.58091856805382       38.90588608696597       30.75245275441258
H           18.27528963422495       39.91278560475644       30.48101135312996