87
 energy: -124.634011698266 gnorm: 0.000042017251 xtb: 6.7.1 (edcfbbe)
Fe          16.53738309371173       35.19719184461298       34.31749526494146
N           16.81690129709677       36.87995564519849       33.20804677355482
N           18.38221155378678       34.53356178661886       33.80908945149627
N           16.29247931092840       33.56043215809841       35.53886592679108
N           14.73821793367959       35.88830411530919       34.89576913250330
C           15.90873918264223       37.86805357457759       32.97878025926326
C           16.48418899529307       38.87692102027182       32.11571536991649
C           17.75809189339974       38.47870789531671       31.84554987384031
C           17.95327746987935       37.21589930427454       32.52641305917745
C           19.29838406424778       35.19360401673344       33.03185370778724
C           20.46664223380098       34.40964185273108       32.86985870883303
C           20.24827800755403       33.21996424323035       33.57049521429284
C           18.93638582132115       33.33205768706750       34.13745491246183
C           17.13565432032816       32.48838782332275       35.62475869688360
C           16.60113362263706       31.51440337492365       36.53878425374151
C           15.41346775664647       32.02428369538170       37.01049763119019
C           15.22437254020756       33.29703292356121       36.34554384999719
C           13.88902298859900       35.31020959563202       35.80113365625961
C           12.69397854115502       36.08100473510446       35.91887381912353
C           12.82219010860739       37.14108437272991       35.04568697394479
C           14.10055027165906       37.00581866930660       34.42744214019649
C           14.64056300355851       37.92432388887634       33.52009313747412
H           14.02432191469476       38.77223444135794       33.26312905096064
C           19.09755534100699       36.45783327108516       32.45289187647796
H           19.91495530142242       36.85709266999836       31.87248317902971
C           18.35283934126632       32.37651727659237       34.97619128507591
H           18.92889144625074       31.48504752254347       35.17027656679044
C           14.12492090193995       34.11833109030395       36.49301801241951
H           13.35102965403707       33.79840568358788       37.17365147717495
C           18.79915334662423       39.15107792288750       31.01933519343136
H           18.43380672457966       40.09729432764830       30.62818802096594
H           19.08836146310406       38.51942960971886       30.17885189991605
H           19.68937013971232       39.34622500708726       31.61687209033765
C           15.76206578575453       40.09985206101734       31.66536898789230
H           15.49164877882088       40.71851329051410       32.52132482044016
H           14.84489217748596       39.83241229748103       31.14005539353435
H           16.38083858093191       40.69203643413359       30.99599941458818
C           21.64861343480421       34.76722240519288       32.03758601368349
H           22.38818746466005       35.31741844836526       32.62273409299764
H           21.35497266695893       35.39156264868907       31.19578089720848
H           22.11969217499022       33.86525836977012       31.65155568795981
C           21.11153018909915       32.07862050387736       33.71367013672554
H           20.60843100913889       31.13401620863464       33.88780890371263
C           22.44448789864668       32.08311696135376       33.66776083146206
H           23.01592191627736       32.98658989429980       33.55482591589655
H           23.00951475111996       31.17215741933859       33.77467657300500
C           17.21909753125383       30.19290673048727       36.83398593962980
H           17.98438106519682       30.28336792894818       37.60707512207588
H           17.68996424894165       29.78175435716059       35.94244570501075
H           16.46035206623237       29.49465353838662       37.18160616893527
C           14.48156984806188       31.44588934768282       37.95024542300091
H           13.44102231999677       31.70537525493040       37.79438678160164
C           14.80007727846513       30.65569591879224       38.97167411309631
H           15.81897826942466       30.40492972623849       39.20891241578754
H           14.04529348436035       30.25349432647032       39.62674371713407
C           11.55732982317449       35.75302356745217       36.82544312092043
H           11.89750265737476       35.68666043489763       37.85924939578513
H           11.11254833071742       34.79433208858551       36.55529308122289
H           10.78470777611653       36.51565121174740       36.76922130401885
C           11.86092654006825       38.24803249521275       34.77468726125841
H           10.93715882785355       38.10260116449755       35.32884165587585
H           11.61831902079897       38.29780166608455       33.71275422679642
H           12.28801637862670       39.20806711597250       35.06753808217982
C           15.15876305452700       31.38872064617451       29.90782743294003
H           15.41775468633448       31.68302272130434       28.89073370501478
H           14.16708937614029       30.93640513688597       29.88960332055132
H           15.87378442607525       30.64592478147259       30.24764508325493
N           14.39134830206382       33.66128650423888       30.62998272337426
H           13.72907800912559       33.78453555296392       29.88135301865426
C           15.18763047760793       32.56020081849466       30.81879674254008
C           14.66214184263457       34.53439801328631       31.62460286883169
H           14.18757958374966       35.48871956692189       31.73357541280046
N           15.57515540755294       34.05987836816949       32.42945566401700
C           15.91365374032218       32.83279917334179       31.94363828875079
H           16.65324946560152       32.23399295408849       32.43466474805212
C           15.75544893497451       37.81393328519163       37.63540644325789
H           14.93159688599061       37.75007861365174       38.34320290041654
H           15.34700194691187       37.86121933047522       36.62912392856741
H           16.31521391301450       38.72679824622873       37.82507769857008
C           16.65480241784901       36.60233122586637       37.77575852236222
H           16.10089379171057       35.67938693880608       37.60323886707976
H           17.12653927818489       36.57420084434584       38.75923724100142
S           18.00397459798354       36.67682238767605       36.53363951503711
C           18.97350241484456       35.25045443383996       37.10541173577351
H           18.34740221647521       34.36374982295253       37.10792075311277
H           19.36216958002320       35.45545405491775       38.09965807261165
H           19.79086376954169       35.12133971677513       36.40410366372441
