87
 energy: -124.618688083287 gnorm: 0.241377981437 xtb: 6.7.1 (edcfbbe)
Fe          58.84500000000000       44.94400000000000       46.05800000000000
N           59.44400000000000       46.94300000000000       46.28600000000000
N           57.95900000000000       45.51100000000000       44.23200000000000
N           58.33400000000000       42.92700000000000       45.62700000000000
N           59.75800000000000       44.36900000000000       47.80200000000000
C           59.88100000000000       47.43700000000000       47.49900000000000
C           59.85500000000000       48.88700000000000       47.39800000000000
C           59.40699999999999       49.21999999999999       46.17100000000000
C           59.12700000000000       47.99500000000000       45.45000000000000
C           58.11100000000000       46.73600000000000       43.59200000000000
C           57.56600000000000       46.60499999999999       42.25200000000000
C           57.11699999999999       45.33700000000000       42.12199999999999
C           57.36200000000000       44.61800000000000       43.36300000000000
C           57.49299999999999       42.49000000000000       44.63800000000000
C           57.21900000000000       41.09100000000000       44.88400000000000
C           57.91699999999999       40.72600000000000       45.98000000000000
C           58.63300000000000       41.87700000000000       46.45400000000000
C           59.92600000000000       43.04699999999999       48.20700000000000
C           60.64500000000000       43.02700000000000       49.46999999999999
C           60.89299999999999       44.50500000000000       49.79200000000000
C           60.31399999999999       45.27800000000000       48.70000000000000
C           60.29300000000000       46.66499999999999       48.58300000000000
H           60.64500000000000       47.21900000000000       49.45300000000000
C           58.66200000000000       47.87600000000000       44.15300000000000
H           58.73600000000000       48.75700000000000       43.51599999999999
C           57.02099999999999       43.29600000000000       43.62400000000000
H           56.29600000000000       42.84399999999999       42.94800000000000
C           59.46400000000000       41.92600000000000       47.55100000000000
H           59.79499999999999       40.96600000000000       47.94700000000000
C           59.20900000000000       50.65300000000000       45.59999999999999
H           60.07200000000000       50.91600000000000       44.95100000000000
H           59.14900000000000       51.38399999999999       46.43399999999999
H           58.27799999999999       50.69100000000000       44.99500000000000
C           60.27999999999999       49.87600000000000       48.51100000000000
H           60.93200000000000       49.35300000000000       49.24300000000000
H           59.38000000000000       50.25699999999999       49.03900000000000
H           60.84499999999999       50.72199999999999       48.06500000000000
C           57.55200000000000       47.76800000000000       41.21700000000000
H           58.27200000000000       47.54700000000000       40.40100000000000
H           57.85099999999999       48.71600000000000       41.71300000000000
H           56.53500000000000       47.87100000000000       40.78200000000000
C           56.44100000000000       44.64800000000000       40.91799999999999
H           56.15100000000000       43.58900000000000       40.97799999999999
C           56.19100000000000       45.30800000000000       39.78300000000000
H           56.46500000000000       46.36899999999999       39.68200000000000
H           55.70799999999999       44.79900000000000       38.93600000000000
C           56.29800000000000       40.17300000000000       44.03399999999999
H           56.91900000000000       39.55299999999999       43.35300000000000
H           55.60700000000000       40.79500000000000       43.42600000000000
H           55.71700000000000       39.50200000000000       44.70200000000000
C           57.96700000000000       39.34999999999999       46.70200000000000
H           58.05400000000000       39.31600000000000       47.79800000000000
C           57.90900000000000       38.18700000000000       46.05300000000000
H           57.82200000000000       38.16300000000000       44.95699999999999
H           57.94799999999999       37.23700000000000       46.60599999999999
C           61.04400000000000       41.77600000000000       50.28100000000000
H           61.70499999999999       41.13000000000000       49.66500000000000
H           60.13400000000000       41.20200000000000       50.55700000000000
H           61.59200000000000       42.08200000000000       51.19800000000000
C           61.60700000000000       45.05399999999999       51.03599999999999
H           62.36399999999999       44.31900000000000       51.38399999999999
H           60.86900000000000       45.22300000000000       51.84900000000000
H           62.12000000000000       46.00699999999999       50.78500000000000
C           53.50600000000000       45.51600000000000       47.60599999999999
H           53.23099999999999       46.49200000000000       48.05900000000000
H           53.07500000000000       44.69900000000000       48.22200000000000
H           53.09700000000000       45.47000000000000       46.57399999999999
N           55.77600000000000       45.41900000000000       48.70100000000000
H           55.41900000000000       45.51200000000000       49.63000000000000
C           54.99800000000000       45.38600000000000       47.56500000000000
C           57.04600000000000       45.31000000000000       48.36400000000000
H           57.87400000000000       45.29400000000000       49.07200000000000
N           57.12300000000000       45.22599999999999       47.04700000000000
C           55.85200000000000       45.27099999999999       46.52499999999999
H           55.67799999999999       45.21600000000000       45.45800000000000
C           63.45999999999999       45.48500000000000       45.01900000000000
H           64.34999999999999       45.60099999999999       45.67400000000000
H           63.20000000000000       46.47799999999999       44.59500000000000
H           63.71299999999999       44.78200000000000       44.19700000000000
C           62.28799999999999       44.94199999999999       45.82200000000000
H           62.06900000000000       45.66499999999999       46.63499999999999
H           62.60600000000000       43.98400000000000       46.28200000000000
S           60.76400000000000       44.65600000000000       44.86699999999999
C           61.14200000000000       43.07300000000000       44.12300000000000
H           61.32400000000000       42.29699999999999       44.89699999999999
H           62.05499999999999       43.15200000000000       43.49500000000000
H           60.29400000000000       42.73399999999999       43.49000000000000
87
 energy: -124.679429394279 gnorm: 0.108925225510 xtb: 6.7.1 (edcfbbe)
Fe          58.86184581057901       44.93004249752125       46.02541193302790
N           59.40237347790898       46.92685448987396       46.30773024740861
N           57.98025910435494       45.49720881760596       44.22552238574361
N           58.32154600741824       42.93865430651586       45.65056446133648
N           59.75738998679530       44.37395111145625       47.77876136588180
C           59.86944273557405       47.42720504227472       47.49640049227241
C           59.86367739985673       48.88492045880707       47.40919960559874
C           59.41625758680557       49.21988109469613       46.16847673410476
C           59.13242885035567       47.97773261218692       45.46916548687936
C           58.11582315484946       46.71013330474081       43.58922141671521
C           57.56439211377013       46.60540655401822       42.24599959324463
C           57.09515282170899       45.32707278750522       42.10868560158308
C           57.36101472425551       44.63059506119667       43.36471370623607
C           57.48540863969684       42.49431086665256       44.66628608091261
C           57.21510054389663       41.08042609738722       44.88429984173673
C           57.92544880491654       40.70550520424159       45.98982697111374
C           58.62630479011507       41.88492455483403       46.46017452796891
C           59.94311870402043       43.08173752283655       48.21326116952781
C           60.65753998228298       43.08229761307788       49.47313467499554
C           60.88408975953333       44.46581344866345       49.78387211757629
C           60.30928963794035       45.24216191389851       48.69613501124819
C           60.29059933544832       46.64412099937100       48.57661392696650
H           60.64969133775419       47.19987646381174       49.44052283649427
C           58.66165110769997       47.85430376822522       44.16396675708583
H           58.71765879767180       48.74359220751714       43.53912231352586
C           57.02218423359150       43.30237273879480       43.63315156376425
H           56.32243381902677       42.84097151984815       42.94149342869424
C           59.46939088863185       41.94273030830877       47.56184660824013
H           59.77824539357892       40.98297187238432       47.96841576945447
C           59.21474025188556       50.62428820813057       45.60766084097541
H           60.05794000227585       50.90382941138517       44.96269703018077
H           59.14940890027678       51.35929316127795       46.41773738588691
H           58.29707096691203       50.68148276614428       45.01110568127373
C           60.27803126578377       49.85712337764629       48.50071553664616
H           60.92217148811709       49.36048879429188       49.23269111332451
H           59.39689087849489       50.24769113279523       49.02574674451684
H           60.83087952625129       50.70097717192672       48.07223849052514
C           57.55561341026305       47.75029964275974       41.23903265960009
H           58.25959269800316       47.54649058741690       40.42142484321639
H           57.84713043549098       48.69341013964117       41.70984715384198
H           56.55498124957044       47.88259505884992       40.81056019131665
C           56.44985147519493       44.67324902862294       40.92978955115592
H           56.17248735096710       43.62167600493962       41.00614392993152
C           56.19392028024139       45.30367988434258       39.78633237858963
H           56.45552481945526       46.34061830814672       39.65352144107207
H           55.71467786081688       44.80075990140379       38.95241264148762
C           56.31066936200741       40.19189452819973       44.04332280073109
H           56.90903291667682       39.57270219518945       43.36289083816671
H           55.61835945221763       40.78836728872012       43.44072628474731
H           55.73319837459439       39.52156028857296       44.69108338605355
C           57.96638304399466       39.36963099600211       46.67905944438066
H           58.05566946520305       39.35482173170900       47.76675947455416
C           57.90551091179816       38.20195257795741       46.04823835920048
H           57.82855232568669       38.15260543708946       44.96980492151685
H           57.94611811378233       37.26117004237508       46.59223346996946
C           61.03783220006188       41.82958575704951       50.25991699217867
H           61.68659714229939       41.16316474828700       49.67076620916039
H           60.15335790263769       41.23853794814833       50.54301066469895
H           61.57741959550989       42.08748053558381       51.17826165742452
C           61.59012939220855       45.02931082572576       51.00559965411767
H           62.34707011558113       44.32718012785514       51.37438710845223
H           60.88076385026464       45.21630481187822       51.82510172901190
H           62.09864438875528       45.97666964861413       50.77961336542561
C           53.50722804973373       45.51755041490125       47.60924484781275
H           53.22476502066325       46.47908354584762       48.05393548783530
H           53.07176689832016       44.71190205823699       48.21136437470122
H           53.10369355469776       45.46840381556665       46.59415820968408
N           55.75907431046850       45.41995297272752       48.70322907384698
H           55.40379908816580       45.51160435233213       49.63841612487428
C           54.99092034154013       45.39204461219440       47.56763776785042
C           57.04524350259218       45.31284056447087       48.34857879714897
H           57.86287787577997       45.29665057055899       49.05003657208404
N           57.14332366233597       45.22218001016043       47.03685420830249
C           55.86817126068019       45.27152432194748       46.53343221164078
H           55.69137614464174       45.21522363112352       45.47512192604756
C           63.45954315781866       45.48380955771642       45.01394791088765
H           64.33740957043960       45.60016636846064       45.65966450151951
H           63.20543296166677       46.46158781897234       44.59325283761803
H           63.71647967309212       44.79848390949498       44.20029392448811
C           62.30260606369240       44.93487728244303       45.83155711140286
H           62.05118070476453       45.64905070077362       46.62524539864361
H           62.59072725083686       43.98163107344622       46.29108005121310
S           60.79260241640145       44.68728252090127       44.83366209568665
C           61.15186527599116       43.06580795275979       44.12811649162696
H           61.31839879162214       42.30467467448701       44.89919746949489
H           62.04474759338828       43.14681534335133       43.49846640019903
H           60.30578586734833       42.75318462019480       43.50609560272101
87
 energy: -124.700761355166 gnorm: 0.041507523878 xtb: 6.7.1 (edcfbbe)
Fe          58.86589961941023       44.92515422897043       46.00462759601639
N           59.37256381597943       46.90283643835906       46.32425883146163
N           58.00692751998603       45.47511213243399       44.22011954750464
N           58.31310715330186       42.96039224255961       45.67496835770044
N           59.76960540751435       44.37796773507152       47.74862574579069
C           59.84997635890034       47.40735032829132       47.49611217224786
C           59.86958856530729       48.86782166593889       47.41712159372216
C           59.42290287989004       49.20288362941264       46.16801977005361
C           59.12675408160320       47.95002224360280       45.48995323612134
C           58.12737997999103       46.68027668674898       43.59319652594519
C           57.56827672380079       46.60408883013903       42.25290044546502
C           57.08145876661330       45.32021682822278       42.10550574478225
C           57.36876588725920       44.63374766483230       43.36664249770700
C           57.48274615763392       42.50863702754007       44.69419868168996
C           57.21766564073310       41.08720579028940       44.88657985242025
C           57.93677391524206       40.70310428015586       45.99643663132376
C           58.61863843686489       41.90400590590819       46.47004979637904
C           59.95578157410814       43.10933586163918       48.20583249919417
C           60.66669057410904       43.13176791703767       49.46969544347012
C           60.87831295034926       44.43282974052318       49.76786737320658
C           60.30890696856012       45.21827019800464       48.68017149826986
C           60.28578382440927       46.62315702212343       48.57053219030838
H           60.66007238471194       47.17624710446535       49.42649193344196
C           58.65538504050998       47.82866240199187       44.18239225662210
H           58.68969996945426       48.72714600927423       43.57356880454212
C           57.03153937188070       43.30519113252586       43.63984899367901
H           56.35993647235895       42.83081616569498       42.93296882810631
C           59.46744058947690       41.96065315098852       47.57308963744733
H           59.74927798093682       41.00373169733246       47.99877239543487
C           59.22407175030163       50.58433177613535       45.61514876743099
H           60.05468847647675       50.87716784653836       44.97022529538109
H           59.15492976782341       51.32016204687071       46.41469970025047
H           58.31124474954949       50.65116798113390       45.02546449192858
C           60.27735374457085       49.82916528384998       48.48999720128933
H           60.91728637779271       49.35299640289645       49.22670712335679
H           59.40455554765918       50.22796661417047       49.01073335708196
H           60.82013887024183       50.67404066814181       48.06790881675686
C           57.55857508761396       47.73145539892664       41.26784327559675
H           58.24951084333777       47.53398098246931       40.44564509205268
H           57.85401837682213       48.66989362105453       41.72729470357979
H           56.56535430197690       47.87933922899973       40.84381063684381
C           56.45791748220498       44.70191699903327       40.95445887684374
H           56.19232168158684       43.65439134570712       41.04738601016227
C           56.19689884763957       45.30100187824461       39.79318705404531
H           56.44578489897330       46.32616889367909       39.62116504643249
H           55.72451012523000       44.78863009404456       38.97205953662090
C           56.32723788739371       40.21858707684450       44.05542913986235
H           56.91063035405324       39.60014721908101       43.37088070108074
H           55.63100000361256       40.80167263073772       43.45904328501782
H           55.75377039139229       39.54372980046850       44.69150079833204
C           57.97571451897505       39.40393110021586       46.65157330190797
H           58.06636953662743       39.40770925545885       47.73407251015277
C           57.90541192229899       38.22475364762632       46.04005437833313
H           57.83510684490438       38.14515055686321       44.97159433626445
H           57.93745205920261       37.29323333429841       46.58426916665584
C           61.03342648204333       41.88632541546010       50.24018120606063
H           61.67163121814205       41.21791173808293       49.65371100567722
H           60.15214123270535       41.29970066788249       50.51751633301017
H           61.56660442193524       42.12207459336691       51.15916631312653
C           61.57212535754823       45.00604067520255       50.97415456420357
H           62.32678577326406       44.31866592318136       51.35341067051094
H           60.87138873236950       45.20234411903795       51.79076886948260
H           62.07330246461321       45.94835670000305       50.74938253580424
C           53.50686472791539       45.51918256472644       47.60781317533249
H           53.21883653159679       46.47170528187665       48.04994357797041
H           53.07094126803800       44.71920898636125       48.20362955172195
H           53.10651952145756       45.46647491910579       46.60215570400649
N           55.74629142937179       45.42235780949900       48.70465323806535
H           55.39496915083472       45.51322535523735       49.64386229175176
C           54.98527439450672       45.39759500552934       47.56731555848447
C           57.04093164949519       45.31333663022845       48.33780008980784
H           57.85210983177528       45.30136704309434       49.03454237888523
N           57.15037032265755       45.21564987328604       47.03346415316395
C           55.87767351187732       45.27034583390934       46.54003656582534
H           55.69714822768662       45.21358150508039       45.48704209039492
C           63.46506970627849       45.48111533255032       45.01508909082731
H           64.33889250299644       45.60192000081716       45.65096076395979
H           63.20332855765422       46.44696607513669       44.59516322107943
H           63.71805660216928       44.80636010625701       44.20337252528073
C           62.31061575352823       44.93319433201128       45.83541730942421
H           62.03430667443595       45.63886300054650       46.61675224564861
H           62.57121245451545       43.98003948303955       46.29236957754398
S           60.80933822192518       44.71141603125464       44.80456381446768
C           61.15956599781625       43.05963024962270       44.12682765969803
H           61.30842261470525       42.32359730489612       44.91137831120987
H           62.04346502618916       43.13474793735638       43.50050050773692
H           60.30767657879399       42.77037576279142       43.51935361652220
87
 energy: -124.708324886519 gnorm: 0.021848441414 xtb: 6.7.1 (edcfbbe)
Fe          58.87128212091228       44.91946912539998       45.99584047679239
N           59.34759788789303       46.87850888914599       46.33939207082189
N           58.02218836102783       45.45615832607948       44.22427714324425
N           58.30653701722611       42.98078808649806       45.68698978803520
N           59.77714371096235       44.38345651069278       47.72926665998177
C           59.83590868312350       47.38838932422806       47.50058816479011
C           59.86841959888221       48.84271948479304       47.42114798334072
C           59.42260433938402       49.17408037384831       46.17342555002421
C           59.11449100980686       47.92368017826465       45.50485315647595
C           58.13664732342227       46.66237948978405       43.60593010398996
C           57.57397492220561       46.60176647325164       42.27283024957777
C           57.08177111241447       45.32201782323607       42.11606005879625
C           57.37565783739916       44.62825079545199       43.36923463613073
C           57.48245667779578       42.52565181202754       44.70453385906526
C           57.22439253772903       41.10829218396214       44.88643531294260
C           57.94448009962504       40.72199437469516       45.99256657089979
C           58.61287252629057       41.92343521759881       46.47528738697844
C           59.95719584621914       43.11758933631143       48.18636002326005
C           60.66857560180471       43.13725972087449       49.44839196658441
C           60.87756164400810       44.44695512792531       49.75440115001155
C           60.31010693849623       45.22249231083717       48.66184937906056
C           60.28622880808291       46.61635014683733       48.56882320465630
H           60.67634074016466       47.16299779925607       49.41933442818777
C           58.64771250645060       47.81032060102616       44.20116664289822
H           58.65629086272127       48.71755037325540       43.60751432943421
C           57.04014412339373       43.30416763099367       43.63829673867313
H           56.39767181562064       42.81409156358477       42.91543362309368
C           59.45828993028019       41.97089629466031       47.57649484149334
H           59.71133899330255       41.01825440873743       48.02952435057507
C           59.23109690912307       50.54795229341472       45.61720571797951
H           60.06157718483835       50.83726629719429       44.97096103475803
H           59.16378172980281       51.28073111929447       46.41911584522875
H           58.31628043109725       50.61113528258144       45.03084535718597
C           60.27952907415217       49.80222590480815       48.48850923531194
H           60.91994691174805       49.33156979543925       49.22864660066150
H           59.40470415837514       50.20280066016958       49.00473686408807
H           60.81926758457376       50.64502472717274       48.05893904935125
C           57.56394604884417       47.73039872910346       41.29957523778072
H           58.24013588380479       47.52294879633332       40.46718440648135
H           57.87947034811756       48.66068749995380       41.76192539784367
H           56.56469447901789       47.89297944829890       40.89481356908261
C           56.45995927448390       44.71183385867029       40.96904240268036
H           56.19466856541020       43.66742438673406       41.08358006674404
C           56.19644029860901       45.28388860138222       39.79199499952836
H           56.44394036519028       46.30468562153976       39.57629600511437
H           55.72392173831885       44.74642391088117       38.98769663108734
C           56.33635899754980       40.24506739127317       44.05765041041174
H           56.91925036401364       39.63447190330066       43.36581984534187
H           55.63282550942419       40.83123688214861       43.47283268647341
H           55.77362708092745       39.56432126498525       44.69723477459642
C           57.98682669486188       39.42873963756404       46.63844627998879
H           58.08960941853221       39.44632198130605       47.71870804770968
C           57.90457035394624       38.24523565034301       46.03558175895636
H           57.84173666734187       38.14946547848256       44.96664390198558
H           57.93006371834885       37.32031006944514       46.58808496306549
C           61.03200709807705       41.91169459907147       50.22509494100807
H           61.66888200601931       41.25287650025224       49.63245040663521
H           60.13988570730377       41.34491903235905       50.49683555751471
H           61.56022146645297       42.16240406001516       51.14112533222063
C           61.56357243816975       45.00809894155169       50.95864096709728
H           62.31105076273759       44.31192239517097       51.33379967027402
H           60.85255456165092       45.19906165697324       51.76474054274906
H           62.06292654088072       45.94547228039209       50.72379903907684
C           53.50681309626634       45.52008614095949       47.60248574767570
H           53.21208862837153       46.47112771694478       48.04449244426006
H           53.07008264965461       44.71981021333890       48.19796611241508
H           53.10642634022567       45.46452078299048       46.59694780693694
N           55.74443636764938       45.42657205289051       48.70155598098298
H           55.39320543705802       45.51736381343478       49.64121411716455
C           54.98580137464971       45.40097325315477       47.56246601915367
C           57.04003540896872       45.31408518271886       48.33348186394748
H           57.85045715569834       45.30653675142339       49.02998692455073
N           57.15241279061210       45.21206313538793       47.03093776964399
C           55.88125728865273       45.26842144079018       46.53804436877956
H           55.69956985193278       45.20899464787050       45.48602612258482
C           63.47068413147636       45.47826003790401       45.01786199806300
H           64.34529729587430       45.60256597284152       45.65136509324365
H           63.20549243939900       46.44205372880954       44.59446027481126
H           63.72464454010328       44.80478073051398       44.20478796097975
C           62.31038580574298       44.93481559067320       45.83213889379092
H           62.01952040434243       45.63822596136488       46.60966410542799
H           62.54787240236949       43.97525747200871       46.29061866359429
S           60.82170905007504       44.73656891989722       44.77427827651452
C           61.16048640563396       43.06460311976774       44.12694773731040
H           61.29156141454051       42.34755880004574       44.93313557782719
H           62.04748522091140       43.11447393818189       43.50265624466046
H           60.30206055140076       42.78372015522384       43.52667249985223
87
 energy: -124.712419904528 gnorm: 0.012986347092 xtb: 6.7.1 (edcfbbe)
Fe          58.86767782994284       44.92222042160161       45.99004105399907
N           59.33061525455637       46.84847854747876       46.35212378019126
N           58.03141971359937       45.43782504242360       44.23345846759798
N           58.31295739164638       43.00803953497408       45.69291882121593
N           59.78279699895548       44.39314397829212       47.70157183121252
C           59.82598687603913       47.36607084210884       47.50519283314613
C           59.86755948252345       48.81226488989340       47.42527656283373
C           59.41994858342316       49.13988815882429       46.18112378888730
C           59.09934226667448       47.89420493675207       45.52109590237350
C           58.13922149942248       46.64743371657192       43.62347974792199
C           57.57984022818020       46.59862173018618       42.29617667884636
C           57.08851410780051       45.32337022152715       42.12758804935187
C           57.38586326220746       44.61997833226534       43.36991918234681
C           57.49342429332732       42.54639945095313       44.70948050446385
C           57.23873932237044       41.13622136845124       44.88436444133927
C           57.95565307989987       40.74896136232780       45.98843658425613
C           58.61218529002098       41.94805858765554       46.47920357418477
C           59.95782137919924       43.13012576884511       48.16424917200028
C           60.66724164589421       43.14807867324100       49.42395156468736
C           60.88001664791081       44.45959240781085       49.72831960876053
C           60.31403991823288       45.22741129450958       48.63721345520412
C           60.29300737169450       46.61042990554570       48.56868796910368
H           60.69520871974002       47.14928030347230       49.41562036493879
C           58.63114768819165       47.79513844868175       44.22459392001546
H           58.61746330625154       48.70942059758972       43.64726516643023
C           57.05780831011604       43.29962359870155       43.62947292145525
H           56.44184214337461       42.79183605926556       42.89890637618770
C           59.44609491527766       41.98352844974239       47.58332089736629
H           59.67249111268381       41.03893993259204       48.06291460780695
C           59.23642313584107       50.50828536776342       45.61689063282478
H           60.06902793769419       50.78566489977742       44.96815711833669