87
 energy: -124.720618648115 gnorm: 0.000041538624 xtb: 6.7.1 (edcfbbe)
Fe          58.83616655172297       44.93250473632720       45.97236754086233
N           59.33121491820112       46.84430204434734       46.31636213299684
N           57.95288564701521       45.46158242053910       44.25970488222893
N           58.28928778884048       43.02740635611794       45.67620250612845
N           59.72152631253889       44.40566743521626       47.69460038266850
C           59.99684260449702       47.34125653168572       47.39216924400490
C           60.13852609971873       48.77649767358751       47.28831379837346
C           59.54049450538886       49.13411017883264       46.12050954504001
C           59.04071969256397       47.91233377584303       45.52916865741535
C           57.87344006138856       46.71229181211415       43.73606922717087
C           57.19890733007805       46.69389749027703       42.46209911238564
C           56.87236023299024       45.38727064198144       42.21892009598452
C           57.34629425033045       44.63855737775654       43.36841563575917
C           57.60855847950050       42.53436835747996       44.60657580863649
C           57.38548510369023       41.11869388120452       44.74892790448428
C           57.95149007153708       40.75905181900760       45.94360371362215
C           58.50561269408404       41.97550244648119       46.50442252847182
C           59.78100975810096       43.15908209943657       48.23308958457044
C           60.51021112694134       43.17497470899026       49.48174377409246
C           60.87254557267325       44.46855576168732       49.69532990207119
C           60.36045194140630       45.22337110877974       48.57371671989981
C           60.49136283327052       46.59391136795026       48.44578962771751
H           61.01375672762348       47.12047796220510       49.22995045683512
C           58.37087409683651       47.86134375394982       44.32372302152203
H           58.23213052845399       48.79202455458945       43.79536094723701
C           57.19003879111364       43.27448906774836       43.51387855088408
H           56.69821093012612       42.74064688583443       42.71511784834949
C           59.21448611263128       42.02169273099801       47.69033016845745
H           59.33915395789965       41.09837731343859       48.23505310610076
C           59.39320961535940       50.48561392827526       45.51045763252687
H           59.87522090899723       50.51853621563475       44.53318998294991
H           59.84585204427700       51.24703382508090       46.14111139665601
H           58.33983203924596       50.73266346977429       45.37595124388601
C           60.82383706243110       49.62939177466053       48.30083679174317
H           61.86763789818392       49.33300017247080       48.40947409461084
H           60.34307536538302       49.53303285914129       49.27487481299526
H           60.79493076843632       50.67588584968691       48.00761242588971
C           56.88118880856905       47.89533339023190       41.64246244453760
H           57.74561993488147       48.20131444948459       41.05106826099090
H           56.59512087178427       48.73158840711155       42.27879638410907
H           56.05962115306284       47.67749363892445       40.96299146061769
C           56.17109517586868       44.81370936059524       41.09180036319813
H           55.53728267722649       43.96322920716221       41.31628077469097
C           56.25317608739658       45.23844459339884       39.83507651014669
H           56.90301558718066       46.04526107891736       39.54485137276020
H           55.69018930313311       44.77063874398532       39.04436505923521
C           56.61864200101029       40.27083336235942       43.79499404830933
H           57.24384347947924       39.96742900418705       42.95342866260876
H           55.76209348097828       40.81406746015239       43.39837215794392
H           56.26013077011937       39.37461539309489       44.29731973570339
C           57.99862689903839       39.46203696121471       46.58102027128324
H           57.95343691666702       39.47135349810014       47.66412469256735
C           58.09942589268258       38.29603908710541       45.95103539413932
H           58.19590547408584       38.22917013140699       44.88141322091883
H           58.11523443068342       37.36348691002394       46.49052077838731
C           60.77031319132126       41.97041743229062       50.31978328999084
H           61.30847349784902       41.21311375120043       49.74899710241940
H           59.83219089693155       41.53151000458155       50.66091442957515
H           61.36471471553270       42.22752802127012       51.19327115893006
C           61.63838765377835       45.06115950478672       50.82855010618045
H           61.94516447310823       44.29124967936353       51.53231319922178
H           61.03026612237951       45.79114507624976       51.36405701028010
H           62.53177842914462       45.56933601285609       50.46456471690077
C           53.49546997752766       45.07139673934047       47.56001868995454
H           53.00170535185721       46.04160189491269       47.61426480745815
H           53.20953088239181       44.49376023076594       48.43905098326852
H           53.14552406870667       44.55193029775256       46.67352693241065
N           55.68943485105655       45.85880495646757       48.47581496141546
H           55.30971756622643       46.26068302729914       49.31718742809846
C           54.96985392756068       45.23288939713256       47.49158224650992
C           56.99056345400776       45.83578844992453       48.10933829629186
H           57.78564696317275       46.25487100409833       48.69057018447381
N           57.13802533159605       45.23437476672395       46.95462757194860
C           55.89048105235223       44.85365618322806       46.55740439147048
H           55.73963117919325       44.33669147124281       45.63283591032756
C           63.54035774077857       45.31066241808993       44.93419431156116
H           64.29991031541057       45.83861870979892       45.50734350344305
H           63.42965604642553       45.79938710523062       43.96968350994172
H           63.88505223563345       44.29288369999619       44.76981363127766
C           62.22207012237169       45.33139468181683       45.68538096347848
H           61.90821007278653       46.35453443255862       45.88276735806591
H           62.28322479962363       44.79281545243170       46.63006369097814
S           60.84950480828629       44.60640675192202       44.71417568794205
C           61.29832475274443       42.84950098989049       44.85602608031296
H           61.32453232444289       42.56332390668328       45.90283670899240
H           62.25856048697905       42.68122648064042       44.37787873486019
H           60.52743334148580       42.28689240285423       44.34121600465357
