72
 energy: -105.980605446259 gnorm: 0.000178082057 xtb: 6.7.1 (edcfbbe)
Fe          19.94308691017220       40.94170501650770       13.06151298421217
N           21.01516625582860       39.27031080310368       12.94280981951436
N           18.50633482879882       39.94814035715797       14.06606115458361
N           18.81827024316249       42.61561043214768       13.13345964918713
N           21.31396494384286       41.91431151509768       11.99671913328322
C           22.23976843501289       39.13047820127251       12.37766698185379
C           22.70949386226075       37.76683521873711       12.50154055963479
C           21.72701547538503       37.08242714532155       13.14364396491604
C           20.67552864208174       38.04048232245363       13.41148744280559
C           18.49717014532425       38.62192136721986       14.37979666532725
C           17.30554387875963       38.27666419037999       15.10794490078781
C           16.58440337559203       39.43479064768330       15.24074151709750
C           17.35137743505524       40.46321448750464       14.56864433303635
C           17.63829829555214       42.78000192078476       13.79713743339245
C           17.16390504040066       44.13229052629602       13.66702867884796
C           18.08526847890851       44.79102609939864       12.89568161095023
C           19.11900437797154       43.82397196389135       12.59141021290669
C           21.26584211949257       43.20601208651056       11.58043453840746
C           22.45983325080298       43.54903531938722       10.83690383090876
C           23.23650810442468       42.43456053424816       10.83034900517350
C           22.49953114443502       41.42255525630321       11.55694955689520
C           22.94989204159350       40.13133161350837       11.74351936548581
H           23.91790563237511       39.87722174946772       11.34065029143815
C           19.50611143951317       37.72491600700344       14.07250509282258
H           19.37453738784553       36.70196764468046       14.38883995962387
C           16.95586105488509       41.78398024379308       14.47342935474092
H           16.02641687825987       42.05767067552058       14.94735759213351
C           20.24506303078785       44.09945826927815       11.83865940558571
H           20.34696168939038       45.09688947276261       11.44097029968909
C           21.67139837265644       35.64441885509859       13.52909632074351
H           22.57822176958156       35.12803939231741       13.22476213157167
H           20.82198336479277       35.15384189799398       13.05355313381489
H           21.56241665296601       35.53909113740796       14.60894409959231
C           24.02147184823952       37.28145530102172       11.98985380551072
H           24.84025164992459       37.84525842111938       12.43719733520385
H           24.07771660702727       37.40398149845966       10.90816267568739
H           24.16222779848504       36.22893955931885       12.22286832687949
C           16.93980328495834       36.90289267303683       15.54832857491168
H           17.43336835519192       36.64960908902791       16.48822317515508
H           17.23765080487561       36.16764811847253       14.80243412314467
H           15.86411353987146       36.83336503910115       15.69658620103877
C           15.30163957912261       39.64522591658309       15.87506533861460
H           14.66913122182645       40.39663222816446       15.41673568400991
C           14.86316816742955       39.00481320666562       16.95359108165650
H           15.46612045830171       38.28359602241866       17.47716197958819
H           13.88838526836882       39.20209550923588       17.36744164678852
C           15.94017640279173       44.67678413960181       14.31598621098514
H           15.81435017644829       44.25921780050795       15.31392013213075
H           15.04895855039894       44.43564826445252       13.73394994487237
H           16.01353051102618       45.75914006943820       14.39807596542166
C           18.09981484800648       46.17340748693199       12.46968786549605
H           19.07997521972555       46.62903924869905       12.39438760392053
C           17.02643855006305       46.89529834277664       12.16622148051753
H           16.03363243971647       46.48024736816787       12.17877862125213
H           17.10808233935775       47.92703777935140       11.86748814535530
C           22.71873938275607       44.88694001517216       10.23534547699381
H           22.75203366561648       45.65404028536908       11.00931259695739
H           21.92947768764558       45.15031271889652        9.53101243904902
H           23.66760512056721       44.89463484820840        9.70504307958545
C           24.57629707593502       42.21820547471651       10.21657673269732
H           25.30253444767856       41.92931070713317       10.97637854109906
H           24.93024993544157       43.12441191482527        9.73159292860873
H           24.53168994543929       41.42413253166072        9.47103441746209
O           18.82554695219734       40.45563338339034       11.18006852791568
H           18.66323808460681       41.33679654378079       10.82430223521377
H           17.98943803772922       40.13446623337768       11.53694833034863
C           21.34494637434150       40.13269578199136       16.05768511148880
H           21.52249217815720       40.42263267191611       17.08874549513641
H           22.24644715071472       39.71025393007762       15.62636903412857
H           20.53218358864628       39.41862330749708       15.98202653520225
S           20.94590512279517       41.62238808736058       15.07773115501008
H           19.81608307067198       41.90001611183361       15.73747042397781
