72
 energy: -105.882834088391 gnorm: 0.278171795762 xtb: 6.7.1 (edcfbbe)
Fe          19.94100000000000       41.01300000000000       13.24900000000000
N           20.98500000000000       39.27300000000000       13.00300000000000
N           18.35700000000000       39.92200000000000       14.01400000000000
N           18.71800000000000       42.67299999999999       13.18700000000000
N           21.37000000000000       41.95800000000000       12.09800000000000
C           22.27900000000000       39.12800000000000       12.45000000000000
C           22.61800000000000       37.78499999999999       12.65100000000000
C           21.62900000000000       37.05900000000000       13.20000000000000
C           20.61400000000000       38.03299999999999       13.45800000000000
C           18.35800000000000       38.58400000000000       14.30900000000000
C           17.11300000000000       38.24800000000000       14.96900000000000
C           16.42800000000000       39.40400000000000       15.06800000000000
C           17.16100000000000       40.44900000000000       14.46800000000000
C           17.51200000000000       42.86600000000000       13.83400000000000
C           17.06500000000000       44.21300000000000       13.64500000000000
C           18.02400000000000       44.81100000000000       12.93100000000000
C           19.06600000000000       43.86199999999999       12.63500000000000
C           21.22100000000000       43.30900000000000       11.65900000000000
C           22.43000000000000       43.65600000000000       10.86700000000000
C           23.22700000000000       42.46300000000000       10.91700000000000
C           22.59600000000000       41.43200000000000       11.66500000000000
C           23.02400000000000       40.15400000000000       11.94700000000000
H           24.07300000000000       39.93900000000000       11.74600000000000
C           19.38700000000000       37.66000000000000       14.04900000000000
H           19.23100000000000       36.61500000000000       14.31400000000000
C           16.82800000000000       41.79399999999999       14.43100000000000
H           15.90100000000000       42.05800000000000       14.93900000000000
C           20.22100000000000       44.17800000000000       11.94800000000000
H           20.33800000000000       45.20799999999999       11.61100000000000
C           21.55800000000000       35.55700000000000       13.55600000000000
H           22.51700000000000       35.06600000000000       13.28500000000000
H           20.73300000000000       35.07500000000000       12.98800000000000
H           21.38800000000000       35.43800000000000       14.64700000000000
C           23.99600000000000       37.24000000000000       12.15700000000000
H           24.78800000000000       37.51799999999999       12.88500000000000
H           24.24299999999999       37.68400000000000       11.16900000000000
H           23.95400000000000       36.13300000000000       12.07600000000000
C           16.77300000000000       36.83500000000000       15.39600000000000
H           17.28900000000000       36.60200000000000       16.35200000000000
H           17.11200000000000       36.11600000000000       14.61900000000000
H           15.67600000000000       36.74200000000000       15.54700000000000
C           15.02900000000000       39.65300000000000       15.71200000000000
H           14.36700000000000       40.44499999999999       15.33200000000000
C           14.61700000000000       38.90900000000000       16.73100000000000
H           15.25600000000000       38.10900000000000       17.13300000000000
H           13.63100000000000       39.08299999999999       17.18700000000000
C           15.76900000000000       44.75500000000000       14.29700000000000
H           15.58700000000000       44.22600000000000       15.25700000000000
H           14.90600000000000       44.57900000000000       13.62000000000000
H           15.87700000000000       45.84200000000000       14.50000000000000
C           18.03800000000000       46.17400000000000       12.46400000000000
H           19.01900000000000       46.54299999999999       12.14400000000000
C           17.06200000000000       47.09800000000000       12.34300000000000
H           16.02800000000000       46.85800000000000       12.63000000000000
H           17.28900000000000       48.10200000000000       11.95600000000000
C           22.72300000000000       44.98000000000000       10.14900000000000
H           22.91300000000000       45.77499999999999       10.90100000000000
H           21.84900000000000       45.27199999999999        9.52900000000000
H           23.62300000000000       44.86800000000000        9.50700000000000
C           24.62700000000000       42.30400000000000       10.20200000000000
H           25.41500000000000       42.78800000000000       10.81800000000000
H           24.59700000000000       42.79400000000000        9.20500000000000
H           24.87000000000000       41.22600000000000       10.08800000000000
O           18.96200000000000       40.12700000000000       11.46600000000000
H           18.15700000000000       39.71700000000000       11.78300000000000
H           19.24800000000000       40.14200000000000       10.62400000000000
C           22.16900000000000       40.58100000000000       15.89800000000000
H           22.12800000000000       40.28300000000000       16.96800000000000
H           23.11700000000000       41.13499999999999       15.73200000000000
H           22.17800000000000       39.65500000000000       15.28400000000000
S           20.71700000000000       41.64200000000000       15.43700000000000
H           19.82700000000000       40.66399999999999       15.52400000000000
72
 energy: -105.943437856507 gnorm: 0.117649894366 xtb: 6.7.1 (edcfbbe)
Fe          19.91740543707339       40.99747766549037       13.18306676808502
N           20.98906491392032       39.27361283305621       13.03342488907971
N           18.37209283510350       39.93294392163302       14.04623925903425
N           18.72791744963303       42.67021988351208       13.19647990880545
N           21.35940823760739       41.97039416490558       12.10298086461118
C           22.26706840301641       39.13653766659201       12.48944184858682
C           22.64885665239693       37.76832815916197       12.63415081204781
C           21.63956013658345       37.05771075281098       13.20354966396515
C           20.60441586158651       38.03469961256454       13.45468658144580
C           18.35403377737969       38.59426932978664       14.31728360432226
C           17.10573758758036       38.24600887303754       14.96978405572855
C           16.39538832690524       39.40759168193966       15.07565327535276
C           17.17642321388741       40.45466211478220       14.48751211571530
C           17.51778340509609       42.84399317215711       13.82469326870359
C           17.05815808124774       44.20050391367699       13.66586789266055
C           18.01641606641912       44.82856226993492       12.92579869630449
C           19.06686259079112       43.86305369052732       12.64871377217110
C           21.25662397679353       43.28482193900225       11.66025677667090
C           22.44773845098401       43.62274553233227       10.87153699654805
C           23.24284541177991       42.48282966114058       10.90515821988073
C           22.57332298917115       41.46889964806969       11.67232153364441
C           23.00888154178303       40.17419737263834       11.95505928624835
H           24.04851362816543       39.94564903214784       11.72277804591847
C           19.38280947579887       37.68965932303937       14.04348146645063
H           19.23443366417372       36.64898038728194       14.31033118880264
C           16.83137000205740       41.79466170852578       14.43394785548651
H           15.90061310819338       42.05719669473174       14.92603565404257
C           20.23096077560295       44.15980252904208       11.94795121781225
H           20.34413969040973       45.18285472262514       11.60331127175066
C           21.56303786214064       35.58301812749215       13.54947796501501
H           22.49989651449309       35.07946905055405       13.28922693627644
H           20.74857243496622       35.09418456031985       12.99956335796903
H           21.39002035287507       35.44647010297800       14.62379986310243
C           23.99239318657114       37.23952060052995       12.15804828767879
H           24.77671226529933       37.51339085054548       12.87342374195197
H           24.23942245339914       37.67170702776317       11.18387495919198
H           23.96001709024372       36.15033469396430       12.07249494117162
C           16.77113292827649       36.84584186047927       15.39323287942755
H           17.27867613926802       36.60302394139208       16.33647116454523
H           17.10191424456396       36.12867351725545       14.63318497556713
H           15.69177018045327       36.73748454623701       15.53842858691293
C           15.04869790084814       39.63206742010522       15.70453937068945
H           14.41072222802406       40.42837394401405       15.32051235431394
C           14.62112285382432       38.90492196324620       16.72764005443294
H           15.23979479869397       38.12261120204129       17.14772835453986
H           13.64900622610640       39.07820170882230       17.18028273425755
C           15.78753537512496       44.74361822594616       14.29184746088816
H           15.59286379063136       44.23204873370751       15.24019250272131
H           14.92723500527787       44.58212074455144       13.62982232012100
H           15.88111848678536       45.81632020407311       14.49392549282658
C           18.04309653892650       46.19350502305798       12.46038367345183
H           19.02162702780134       46.54640755723147       12.14162423916339
C           17.06279287795657       47.09265314779423       12.34836752902847
H           16.03847357477338       46.86344341819753       12.61595603379398
H           17.27505011591704       48.08487363746215       11.96694069693889
C           22.71771959111523       44.94122652752859       10.16970323593620
H           22.90685505698904       45.74665305067378       10.89346453095232
H           21.86559924531077       45.25118485022430        9.54923015798531
H           23.60089114735080       44.86226791429408        9.52507564391166
C           24.60249603060813       42.31099862389506       10.21553234526631
H           25.39424228438714       42.78212602582898       10.81095232393895
H           24.59189244239940       42.78335311456170        9.22729399282704
H           24.85334892440133       41.25184348771636       10.09241401119285
O           18.94321783387718       40.15504389916794       11.45789994945971
H           18.15158677764110       39.70879494018443       11.75904443440961
H           19.24283188264105       40.13111854655434       10.56883896845568
C           22.17674063953726       40.56800695661116       15.90005188601151
H           22.11712770519805       40.29502808026268       16.95896924408787
H           23.09526008555864       41.13520910375066       15.72705999443785
H           22.17609883637759       39.66665095367393       15.28239775772087
S           20.74095362264153       41.62296605746036       15.43151053476713
H           19.82858974958340       40.66237380170402       15.55807372278567
72
 energy: -105.963766837702 gnorm: 0.035007249902 xtb: 6.7.1 (edcfbbe)
Fe          19.90634551930240       40.98685990715661       13.15471818438327
N           20.99025137754353       39.28201957069705       13.05063970648535
N           18.38129351481461       39.94593411487159       14.06352339962675
N           18.73905490301945       42.65987514455701       13.19013600170269
N           21.34205613292080       41.97427412721525       12.10118295813804
C           22.24884470115038       39.15094337579211       12.52481728209798
C           22.67029115716075       37.76681341185620       12.62560211897444
C           21.64732562426078       37.07042164811484       13.20401998922630
C           20.60016237439989       38.04522797431120       13.45694844872308
C           18.35361790249293       38.60851258214792       14.32487115262986
C           17.10871573673261       38.25016447304644       14.97042210054826
C           16.38068894356467       39.41255899613965       15.08775634961650
C           17.19408343094286       40.46088682973500       14.50329921576747
C           17.53488516232747       42.82228769678020       13.81423578845922
C           17.06542939243045       44.18434939282358       13.67695522290874
C           18.01675834026017       44.83655601496395       12.92407634270567
C           19.06950581145750       43.85904098331253       12.65515280647490
C           21.27239155408040       43.25831428548109       11.66228693489979
C           22.45440501498194       43.59312756621406       10.88463248678881
C           23.24830156462313       42.48815473030610       10.90503221350174
C           22.54265665071216       41.48530196366927       11.68300676993233
C           22.98594460867189       40.18712903552984       11.95895019646876
H           24.01165031102921       39.94768790666597       11.68899229820001
C           19.38482195069034       37.72099064224752       14.04360843214007
H           19.23815034967227       36.68290631926415       14.30705177285942
C           16.83620480098682       41.79718910312255       14.43644817831245
H           15.89740348720422       42.05971988193334       14.90577301386306
C           20.23418491356045       44.13795487410948       11.94606769049925
H           20.34925071659475       45.15268513038338       11.59035653068561
C           21.56746114456847       35.61575518104134       13.54007325623264
H           22.49218061208119       35.10384375899141       13.28630690105467
H           20.75604373570716       35.12525012275878       13.00110895712136
H           21.39067137565065       35.46933454200711       14.60583600157278
C           23.98522649317222       37.24648259844993       12.15997029085053
H           24.77140704895571       37.51445259908914       12.86463550323110
H           24.23911196673296       37.66610041095061       11.19089429298372
H           23.96198231638615       36.16509579622116       12.07162264936928
C           16.76910790738519       36.85881709940674       15.38539482295043
H           17.26885538692813       36.60909230655701       16.32300011108648
H           17.09666864226322       36.14159158472155       14.63549655885536
H           15.69868913341167       36.74340578794312       15.52622054853803
C           15.08184658033534       39.61408119187235       15.69758311612502
H           14.46276210486667       40.41035175465348       15.29937568584868
C           14.62932216006043       38.90213613147906       16.72482587391732
H           15.22690864198220       38.12975212101990       17.17082040308360
H           13.66236461191943       39.07791914515859       17.16523970245633
C           15.81402779319759       44.72500747331422       14.28557775071449
H           15.60183658647540       44.22645716856626       15.22875118289244
H           14.95489762805657       44.57770989522201       13.62894197520434
H           15.90445499405569       45.79036322067195       14.48385886498982
C           18.05498412245111       46.20352129332389       12.46133758938335
H           19.03315030025073       46.54388169331904       12.14506565987050
C           17.06174721213792       47.08203391998212       12.35244273811079
H           16.04221266108163       46.85993324644874       12.60397892957074
H           17.25809923563746       48.07276489342699       11.98039323400554
C           22.71101519908852       44.90231588342287       10.19435362736491
H           22.89642613921236       45.70630231502912       10.90981864128394
H           21.86536337718648       45.21082517491694        9.57727914220778
H           23.58504760656452       44.83662258416556        9.54865525501063
C           24.57436247740996       42.31420488607911       10.23480570282960
H           25.36999504390313       42.77914111996157       10.81779555901386
H           24.57445375786513       42.77984734467058        9.25089230645445
H           24.82614402543650       41.26491829361274       10.10543676298350
O           18.89866231211927       40.25339435747369       11.42749150167508
H           18.16410196540468       39.68253129685161       11.71304174385913
H           19.24289147068701       40.09626615235990       10.53337963400710
C           22.18089452332176       40.55719279264135       15.89612818800698
H           22.10686563154029       40.30285247958024       16.94829681656180
H           23.08017430452437       41.13470662594961       15.72025106058735
H           22.17913329012450       39.66935111173474       15.27853668559582
S           20.76060195975706       41.61623218502073       15.43346416523966
H           19.83017057251432       40.67227277748523       15.61105702067929
72
 energy: -105.968058266654 gnorm: 0.064488565998 xtb: 6.7.1 (edcfbbe)
Fe          19.88810102568075       40.98183202690023       13.12668223185558
N           20.98806271460278       39.29416816123055       13.05269724620327
N           18.39126261207276       39.95691359760556       14.07784366588982
N           18.75143201841580       42.65685410067063       13.19200019081522
N           21.33263241493974       41.96719071893634       12.10811735208056
C           22.24072762785064       39.16142639846754       12.53618919400758
C           22.67522561410681       37.77880402812789       12.63044274904916
C           21.65043054748251       37.08803116363854       13.20619274058697
C           20.60125640516781       38.05707728933815       13.46136235372896
C           18.36195123581161       38.61924488246198       14.33460058593356
C           17.12363013714963       38.25600713381412       14.97667480147342
C           16.39544177020335       39.41646791730388       15.10273165141336
C           17.20804078549458       40.46670367769638       14.51553233978375
C           17.54888797913781       42.81329785014275       13.81159199191742
C           17.07897449647174       44.17423930876353       13.67699197165454
C           18.02493137347025       44.83497695793807       12.92684452870039
C           19.07456171668566       43.85657710323191       12.65653778933001
C           21.26544350796700       43.24583796093482       11.66812542533168
C           22.44666882973379       43.57910168867691       10.89901402649665
C           23.24296742276498       42.47706498720345       10.91801263398623
C           22.52842371023595       41.47684444249076       11.69308907064471
C           22.97567496403359       40.18607713302170       11.95523754338110
H           23.98748640744760       39.93997111288559       11.64939398200469
C           19.39018593970404       37.73520199604713       14.04701223778926
H           19.24185312117639       36.69922364760638       14.31045951819611
C           16.84043911305013       41.79925197259725       14.43757158071983
H           15.89232427526369       42.06290526029979       14.88534348315511
C           20.23125519969535       44.12891081910767       11.94182160405684
H           20.34920256647591       45.13526540371201       11.56777975246259
C           21.56766009256626       35.63757399087585       13.53604238201984
H           22.49212791218843       35.12687896422639       13.28005188238674
H           20.75318425086103       35.15609385770694       12.99429724536872
H           21.38881601066972       35.49291000952588       14.60149917125467
C           23.98719275603076       37.25782033759889       12.16085029530699
H           24.77941574224124       37.52454441210796       12.86066844454002
H           24.24253700536194       37.67060689609158       11.18779213063257
H           23.96365832072818       36.17501628618374       12.07387736226970
C           16.76975635662832       36.86591540130558       15.37681719929517
H           17.25886751013248       36.60737761935237       16.31771408183570
H           17.09779854545709       36.15083853165674       14.62493602943083
H           15.69673030462125       36.75854414058242       15.50708592834931
C           15.09768389306390       39.60770528870800       15.70088293617464
H           14.48917805759426       40.40311088729933       15.28671866482568
C           14.62756143382972       38.90176381614848       16.72602944595070
H           15.21995294477595       38.14053114972962       17.20304224933525
H           13.65480483506484       39.08234771414524       17.14869954058610
C           15.83143970856060       44.71058538052742       14.28404157895644
H           15.61154401546463       44.21048605171882       15.22510563920863
H           14.97714871826335       44.56909966083095       13.61970087469433
H           15.93254748871421       45.77485131632359       14.48156400526267
C           18.06558399900897       46.20303705139379       12.46744785773724
H           19.04499672439329       46.54649511506562       12.15935354098850
C           17.06137198436290       47.07023302115034       12.35714472785068
H           16.03934230753032       46.83656444370539       12.58920173409584
H           17.24479439106351       48.06720825572479       11.99268972794198
C           22.70116007712047       44.88136685050847       10.21512108602782
H           22.88305094365048       45.67638349459277       10.93879346561582
H           21.85017296682344       45.17720016314316        9.60226942617031
H           23.57514943592526       44.81106643465863        9.57165910809761
C           24.56366112024714       42.30633578630782       10.25087875217701
H           25.35734136750205       42.77254958753603       10.83574672742865
H           24.55887349546844       42.77671603080089        9.26873294516566
H           24.81051659194328       41.25688011224778       10.11909240997196
O           18.83448123596564       40.36671539949938       11.35542537240236
H           18.18830254599096       39.64868844805288       11.64188868438951
H           19.24954245483324       40.06352286539430       10.49094130160299
C           22.18332496510823       40.55225372772459       15.88798704797426
H           22.10534883860569       40.30810174750378       16.94249244204084
H           23.07935024367642       41.13342794678961       15.70628602404730
H           22.18280048882317       39.66126834312734       15.27426017664179
S           20.76598270838032       41.60883431929275       15.41982003674043
H           19.82476967846524       40.68708040228260       15.70945607455838
72
 energy: -105.971058102486 gnorm: 0.041087413331 xtb: 6.7.1 (edcfbbe)
Fe          19.87190710160943       40.97787667548030       13.10782366742037
N           20.98268670610769       39.30828341062853       13.04864121056281
N           18.40203499423807       39.96838430812357       14.08524644308421
N           18.76722163178855       42.65023456144942       13.19240701404631
N           21.31753655604097       41.95392702570502       12.11551198360362
C           22.23214594327009       39.17335982318577       12.54538382296918
C           22.67935553644021       37.79566453135233       12.63846522978532
C           21.65463654951181       37.10982492864225       13.20960200552783
C           20.60325269539089       38.07000340538617       13.46519248006087
C           18.37247939901900       38.63086527106007       14.34201789783353
C           17.14366113129404       38.26304215119689       14.98287654792315
C           16.41795263099245       39.42035538079809       15.11832625855306
C           17.22433877437976       40.47237355357283       14.52546485362890
C           17.56592500177333       42.80154837565689       13.80653441840524
C           17.09638210896858       44.16040533352647       13.67328731102623
C           18.03502434047111       44.82886258537752       12.92816737427394
C           19.08065580903850       43.85116706928436       12.65541816180657
C           21.25232524027205       43.23069222322150       11.67486905851680
C           22.43436844746376       43.56301733970150       10.91631596147217
C           23.23280244483909       42.46042574907779       10.93591895424467
C           22.51089825540276       41.46215518175649       11.70453949835504
C           22.96435873092855       40.18280119644857       11.94868508387357
H           23.95925395742642       39.93165651403658       11.60354339990086
C           19.39724141517907       37.74869461656874       14.05052498265981
H           19.24652338139279       36.71587834994902       14.31698503831892
C           16.84552287403265       41.80013153091199       14.43627980505944
H           15.88755825345358       42.06593618969498       14.85980248867772
C           20.22620265448750       44.11810419393005       11.93472454718598
H           20.34868562354173       45.11415365114854       11.53808768029528
C           21.56870584617781       35.66190689754156       13.53414392579026
H           22.49398803164943       35.15318228532380       13.27494487854802
H           20.75029835628392       35.19133960371741       12.98786792155694
H           21.38753807718045       35.52016944313191       14.59999222109822
C           23.99104290672803       37.27260109807430       12.16349511190005
H           24.79025672693182       37.53925536498603       12.85833774433523
H           24.24641300831834       37.67770155422797       11.18443162055365
H           23.96596768814016       36.18695634407439       12.07937175379535
C           16.77166661120614       36.87423073468872       15.36780876390285
H           17.24733432212643       36.60511963054289       16.31373355813009
H           17.10009918092987       36.16066850729258       14.61305975585235
H           15.69410426561881       36.77893855978888       15.48530505883380
C           15.11626484582698       39.60202563846524       15.70599265970916
H           14.51774200158055       40.39330717039816       15.26990273114425
C           14.62805095096174       38.90386463710306       16.72928654763464
H           15.21150455401358       38.15045197182982       17.23776847383657
H           13.64505175304641       39.08748081377621       17.12712206974086
C           15.85106928199595       44.69313498958797       14.28095600957897
H           15.62288267176652       44.19006278314808       15.21985738823329
H           15.00207314470370       44.55810435009122       13.60711640902353
H           15.96501332765201       45.75690984445553       14.47850359821041
C           18.07759145732880       46.19862203559072       12.47329157364553
H           19.05920310618292       46.54869728709519       12.17796682372594
C           17.06062888470948       47.05330292929010       12.35955268259916
H           16.03566611862673       46.80479168813995       12.57152538002245
H           17.22879176391118       48.05936239404600       12.00592198050091
C           22.68883924503466       44.85792038494320       10.23888249245813
H           22.86669208058957       45.64276630093021       10.97274165305112
H           21.83134341816648       45.13912799319242        9.63034155260088
H           23.56386170872085       44.78167604484766        9.59818601816550
C           24.55175536066909       42.29629718453649       10.27041914355799
H           25.34262668013075       42.76478851265689       10.85887725914879
H           24.54029242238487       42.77346339818417        9.28994632881805
H           24.79374070436377       41.24611656448847       10.13547780004183
O           18.86231725468960       40.31715864948341       11.30735519480839
H           18.15950589162025       39.73787855534139       11.54761298214837
H           19.20709350306668       40.11071715274165       10.44599523313228
C           22.18518551728365       40.54932415515198       15.87884373889393
H           22.10486077774814       40.31238236338167       16.93580105800547
H           23.07907857221151       41.13491005818262       15.69193866294656
H           22.18842794919415       39.65391218248236       15.26787168517428
S           20.76865458352937       41.60399675152495       15.41103069156947
H           19.82083725824326       40.70755006465101       15.81077868450521
72
 energy: -105.973343977510 gnorm: 0.013303745857 xtb: 6.7.1 (edcfbbe)
Fe          19.88679245179148       40.98237155640053       13.14314842075450
N           20.97740794430986       39.30655925434268       13.03814224623726
N           18.39909761892374       39.96591240462774       14.06503594620539
N           18.76783948121496       42.64225857531298       13.18784422461210
N           21.30886851985812       41.94351887114013       12.11459256033897
C           22.22976553781077       39.16870621592378       12.53137165569994
C           22.67769868831693       37.79562956499485       12.63619359486315
C           21.65503807652472       37.10842886283790       13.21044035710090
C           20.60236763458422       38.06737317033885       13.45970922922130
C           18.37391883151733       38.63011893161830       14.33476815638178
C           17.14789540954913       38.26494215423915       14.98544314829667
C           16.42313593835005       39.42202335753557       15.12069637808990
C           17.22381615367553       40.47084990077865       14.51897716465014
C           17.56596154288977       42.79775495442884       13.80311820320322
C           17.09712273274378       44.15634121123215       13.67090836604845
C           18.03584307378317       44.82227090173406       12.92610838556662
C           19.07996436474939       43.84521121405200       12.65071686737138
C           21.24682163916385       43.22368670697444       11.67232279906686
C           22.43034399753290       43.55798258668080       10.91587817241093