91
 energy: -134.120560699160 gnorm: 0.000136061059 xtb: 6.7.1 (edcfbbe)
Fe          35.59516369013923        4.51458466610285       10.06805303257473
N           37.39411854024681        4.09699662446268        9.31999157488363
N           35.15610178098062        5.59784994702155        8.44950872575725
N           33.79079742578566        4.95970184582072       10.85480820348206
N           36.05166066287062        3.48839064260146       11.73037032167338
C           38.36813802742754        3.34333863093679        9.89348765275683
C           39.51948703758556        3.24439871499136        9.02293743573913
C           39.21690175011839        3.96193367500237        7.90853399439452
C           37.88343245700490        4.48574269917668        8.11339128365965
C           35.95045854101684        5.79605340843495        7.36369067378370
C           35.29653779684258        6.63879718511838        6.39485585247746
C           34.07232371071644        6.95304430226414        6.92115833200909
C           34.00467704815573        6.27659746678016        8.20317480236107
C           32.80555357968545        5.69909940730417       10.26960775521886
C           31.64125830852760        5.75821515244653       11.11238022424944
C           31.94276891622001        5.03330822886716       12.23689847580492
C           33.29061406307825        4.53875474897717       12.04586493859498
C           35.27930098008567        3.34104641674419       12.83925733421091
C           35.99405472047575        2.61886046751799       13.86815472558530
C           37.21228981563169        2.31775863370350       13.34657650792859
C           37.22684607758725        2.86469089956650       12.00870818346622
C           38.30332058665659        2.76581941646631       11.14860619657765
H           39.16754503150894        2.21751408238646       11.49148743184360
C           37.22220857494250        5.27770181518888        7.19705915874290
H           37.74390764418349        5.52084865243796        6.28408685156018
C           32.90969212200091        6.33550064436150        9.04360574090937
H           32.06419568571719        6.92313101620235        8.72002923016540
C           33.98697981449670        3.80453862491742       12.98839751465774
H           33.48784647074820        3.58803360931643       13.92028218422906
C           40.03881148633982        4.20595353485490        6.68965286154137
H           41.00116355127870        3.70540796223308        6.76460299566742
H           40.21696662744996        5.27308715944812        6.55606567243193
H           39.52696281731174        3.83508429923594        5.80124895737819
C           40.76282234581161        2.49224904417303        9.35539774333060
H           40.53909551387788        1.44167231760343        9.54316986293902
H           41.23086283280588        2.90243330881595       10.25064788379794
H           41.47884976217398        2.54893212284988        8.53922459629974
C           35.85435461729751        7.00945498054729        5.06532340712276
H           36.39349273887910        6.17120745448868        4.62645401958388
H           36.54780239635514        7.84716201522089        5.15487800658950
H           35.05113216665237        7.29895366837709        4.39069362613866
C           33.01195401086392        7.75671328015358        6.35444574947179
H           32.00310385902092        7.44208308115882        6.59674214581889
C           33.18251480574853        8.82765817250827        5.58598050373231
H           34.15865615690719        9.21490008979837        5.35205598683685
H           32.34396753621434        9.37227773364462        5.18451032974993
C           30.35876929424077        6.42630520959943       10.75739284762184
H           30.13890396908857        6.30044514585531        9.69826170101010
H           30.40401264307434        7.49652998980230       10.96697099212082
H           29.54263633974282        5.99764410516294       11.33550476601975
C           31.12268568988564        4.75802777845755       13.39562112516986
H           31.28304168860505        3.79262913344081       13.86168744039428
C           30.22193302126663        5.58398353496580       13.91827523453802
H           30.05431200142607        6.57237397449141       13.52723831497823
H           29.63528251192144        5.30616261838288       14.77824012166665
C           35.44654595647771        2.32315772745902       15.22175464948739
H           34.53199410708199        1.73413140938800       15.14883191434319
H           35.21177731034983        3.25023960443551       15.74506536348015
H           36.16537161578999        1.76533727994806       15.81721021317852
C           38.35972335729440        1.60409437579361       13.97465673176748
H           38.64425485120293        0.73254322820417       13.38456210555516
H           38.10520889369732        1.26861170853740       14.97718100165833
H           39.22420787667740        2.26483969684900       14.04145386529507
C           32.41747183553549        0.83502143598549        7.33787546664950
H           31.93983277941729        0.04621367508522        7.91892674788727
H           32.81384390374365        0.39275309261069        6.42391657838187
H           31.66761970575573        1.57279796009511        7.07037132131951
N           34.58067373025893        0.79521468743026        8.59909549600022
H           34.75112087778203       -0.18940175002500        8.47634813094889
C           33.49821433304377        1.48597412577103        8.12061511194023
C           35.36756514374595        1.67347149789493        9.26070567093270
H           36.28705563439047        1.41266776945627        9.74290612487721
N           34.84972518853680        2.87731270334090        9.22984897665767
C           33.68684682062231        2.77658545078307        8.52426513021067
H           33.06714937492863        3.63241905214146        8.35519263638256
C           38.66818268038534        5.27000468094482       16.08216020573305
H           39.74808149297348        5.39414430057822       16.05248809171488
H           38.45272846811122        4.22329084500844       16.29895178503387
H           38.26579389133968        5.87136507628169       16.89419547775669
C           38.04715191157504        5.65087539186272       14.77224065023248
C           38.76432051117524        5.54983468017706       13.58634659464320
H           39.79555341532014        5.22853966709725       13.61354339671310
C           38.17900508846138        5.84095887673386       12.37051102800462
H           38.72105098943091        5.73834876735624       11.44440948115073
C           36.84826557751560        6.23395045634834       12.32364478917200
O           36.27632590996676        6.46611379054985       11.09493291369534
H           35.37793124852308        6.80363283986127       11.22737873811448
C           36.72789265313266        6.07837546736806       14.71175523126824
H           36.15499892505025        6.17256759461764       15.62305345888939
C           36.12845939447845        6.37341164493411       13.50121003072500
H           35.09178330139875        6.68101784851867       13.46714365909315
