91
 energy: -133.960387141630 gnorm: 0.335533941826 xtb: 6.7.1 (edcfbbe)
Fe          35.50300000000000        4.43000000000000       10.33700000000000
N           37.25700000000000        3.91500000000000        9.50000000000000
N           35.06400000000000        5.55300000000000        8.65600000000000
N           33.51100000000000        4.61400000000000       10.83100000000000
N           35.76500000000000        3.03500000000000       11.68200000000000
C           38.21100000000000        3.02000000000000       10.03500000000000
C           39.41000000000000        3.02300000000000        9.17300000000000
C           39.21600000000000        3.90000000000000        8.11800000000000
C           37.87300000000000        4.43100000000000        8.37500000000000
C           35.87000000000000        5.82700000000000        7.62300000000000
C           35.27300000000000        6.73900000000000        6.67000000000000
C           34.05399999999999        7.03100000000000        7.14200000000000
C           33.95200000000000        6.28300000000000        8.36600000000000
C           32.63900000000000        5.49800000000000       10.36000000000000
C           31.56000000000000        5.67400000000000       11.26300000000000
C           31.73000000000000        4.84700000000000       12.32000000000000
C           32.98000000000000        4.16300000000000       12.02900000000000
C           34.87900000000000        2.70400000000000       12.72900000000000
C           35.51800000000000        1.78200000000000       13.74200000000000
C           36.71300000000000        1.66200000000000       13.27100000000000
C           36.90699999999999        2.33600000000000       11.98000000000000
C           38.07000000000000        2.23300000000000       11.19600000000000
H           38.86199999999999        1.54500000000000       11.48600000000000
C           37.26800000000000        5.34300000000000        7.47100000000000
H           37.85500000000000        5.70500000000000        6.62700000000000
C           32.76600000000000        6.23500000000000        9.15100000000000
H           31.90000000000000        6.79900000000000        8.80300000000000
C           33.62800000000000        3.26000000000000       12.92900000000000
H           33.09600000000000        2.98900000000000       13.84100000000000
C           40.14100000000000        4.25300000000000        6.95800000000000
H           41.08700000000000        3.67800000000000        7.05000000000000
H           40.37600000000000        5.33900000000000        6.98200000000000
H           39.65200000000000        3.99100000000000        5.99500000000000
C           40.65300000000000        2.14400000000000        9.49800000000000
H           40.40300000000000        1.07400000000000        9.33500000000000
H           40.94700000000000        2.28800000000000       10.56000000000000
H           41.49499999999999        2.42300000000000        8.82900000000000
C           35.96300000000000        7.29100000000000        5.39300000000000
H           36.55500000000000        6.48300000000000        4.91200000000000
H           36.64600000000000        8.12400000000000        5.66600000000000
H           35.19400000000000        7.65000000000000        4.67600000000000
C           33.10400000000000        8.03000000000000        6.58700000000000
H           32.04600000000000        7.73700000000000        6.56400000000000
C           33.36700000000000        9.35000000000000        6.06500000000000
H           34.39300000000000        9.74600000000000        6.04000000000000
H           32.54500000000000        9.97500000000000        5.68600000000000
C           30.40900000000000        6.66300000000000       11.03400000000000
H           29.99600000000000        6.52100000000000       10.01300000000000
H           30.78400000000000        7.70400000000000       11.12900000000000
H           29.60400000000000        6.48000000000000       11.77700000000000
C           31.05200000000000        4.66100000000000       13.63200000000000
H           31.49400000000000        3.92300000000000       14.31500000000000
C           29.88400000000000        5.32100000000000       14.13700000000000
H           29.36499999999999        6.07800000000000       13.53100000000000
H           29.49300000000000        5.07800000000000       15.13600000000000
C           34.98300000000000        1.18300000000000       14.99900000000000
H           33.87200000000000        1.20200000000000       14.97600000000000
H           35.33500000000000        1.77000000000000       15.87400000000000
H           35.32299999999999        0.12900000000000       15.08700000000000
C           37.86099999999999        0.98600000000000       13.99400000000000
H           37.87799999999999       -0.09400000000000       13.73500000000000
H           37.72700000000000        1.09100000000000       15.09200000000000
H           38.82300000000000        1.44600000000000       13.68300000000000
C           32.36800000000000        0.06000000000000        7.46800000000000
H           32.32800000000000       -0.80800000000000        8.16000000000000
H           32.50800000000000       -0.31200000000000        6.43100000000000
H           31.41500000000000        0.62500000000000        7.54400000000000
N           34.90100000000000        0.79500000000000        7.54600000000000
H           35.26900000000000        0.09200000000000        6.93800000000000
C           33.51900000000000        0.95200000000000        7.84700000000000
C           35.63900000000000        1.75100000000000        8.21600000000000
H           36.71800000000000        1.87500000000000        8.20700000000000
N           34.68900000000000        2.46800000000000        8.86400000000000
C           33.38400000000000        2.05300000000000        8.65500000000000
H           32.52800000000000        2.55700000000000        9.08100000000000
C           39.80000000000000        7.78600000000000       15.14700000000000
H           40.40100000000000        8.47500000000000       14.51500000000000
H           40.44799999999999        6.97700000000000       15.54600000000000
H           39.31799999999999        8.35300000000000       15.97100000000000
C           38.72600000000000        7.17600000000000       14.26400000000000
C           39.07600000000000        6.12100000000000       13.43900000000000
H           40.04800000000000        5.65800000000000       13.52600000000000
C           38.17000000000000        5.66900000000000       12.50600000000000
H           38.42800000000000        4.85600000000000       11.84300000000000
C           36.93200000000000        6.26400000000000       12.42700000000000
O           36.09800000000000        5.91400000000000       11.40500000000000
H           35.28600000000000        6.41700000000000       11.49900000000000
C           37.46300000000000        7.74900000000000       14.20300000000000
H           37.19600000000000        8.54900000000000       14.87700000000000
C           36.54900000000000        7.28800000000000       13.27200000000000
H           35.56100000000000        7.71800000000000       13.20700000000000
91
 energy: -134.060310557974 gnorm: 0.144331109373 xtb: 6.7.1 (edcfbbe)
Fe          35.47526491685957        4.33978604875156       10.26284504801462
N           37.29644552675463        3.92339388696780        9.50206584058764
N           35.07214219985205        5.57827876446829        8.64583267404605
N           33.52457204922118        4.62990488619038       10.87203424698863
N           35.76385224468956        3.03258920861805       11.71316111173871
C           38.22058911412024        3.02738253742849       10.02278949282225
C           39.41414635124070        3.01655090698428        9.17676302395584
C           39.20781150558088        3.89385150034719        8.13740930222810
C           37.86785380487934        4.43985154141560        8.36654389017849
C           35.90638905843317        5.83425156564264        7.61462507576460
C           35.30131218566247        6.74993032962334        6.66470018048099
C           34.05931405600349        7.06191153489094        7.14452605061317
C           33.92796838492173        6.27902741089134        8.36661730715202
C           32.63664395850697        5.51203830162775       10.36485899063343
C           31.53442999773756        5.68066804438183       11.26380973976291
C           31.72814431303649        4.85074562990074       12.34369722395230
C           32.98914234235527        4.17413160317564       12.05250515284903
C           34.87589495433161        2.71425209158431       12.73447481722511
C           35.51113945709537        1.80083826451150       13.72393625888393
C           36.75370344585679        1.65451139123586       13.25927003091502
C           36.91145460285300        2.34147310566764       11.98283343846017
C           38.05458053235370        2.25685250984718       11.18266963466371
H           38.84474852121305        1.56961327764552       11.47655259003244
C           37.24931142134845        5.33856887991624        7.48687220887219
H           37.83373735274724        5.69503297582689        6.64356147416673
C           32.77268534006365        6.22998774728287        9.15618969814616
H           31.91463336731261        6.79856630572746        8.81326781617612
C           33.62665194653721        3.26341390207595       12.91622483988749
H           33.10025156890117        2.98706751018323       13.82334195179317
C           40.12410699155894        4.24534320545839        6.98175153842475
H           41.06728221840356        3.68670051217459        7.05215375364038
H           40.36646548598172        5.31849466207368        6.98359328515292
H           39.65710276540814        3.99725455461519        6.01664695334986
C           40.63519560595868        2.15515222299595        9.49053752696572
H           40.40426887786100        1.09166289160545        9.33678169517930
H           40.94022845027707        2.28937297887274       10.53747323063077
H           41.47824976205258        2.42092636291575        8.84092984255495
C           35.96145598484628        7.28055287468526        5.40404089466065
H           36.54793844991839        6.49223311686869        4.91786290520410
H           36.63489638946949        8.10930286282348        5.66129515570323
H           35.20493500724881        7.64410260284836        4.69605862669778
C           33.11093139123862        8.04965426415020        6.58426504609157
H           32.06146188021685        7.74518746949527        6.57065960097008
C           33.36892279106558        9.29745357352895        6.08232794485211
H           34.37181505899023        9.71977110009250        6.05066298024348
H           32.56625116984294        9.93456225251026        5.70463533754761
C           30.40995463684283        6.65832975316131       11.02967329427498
H           29.99811782654552        6.52537978677115       10.02268837727274
H           30.77585124590393        7.68941431658353       11.12709204414667
H           29.61325938051264        6.48729691181381       11.75671741950154
C           31.02696577732967        4.67547658929822       13.62623904813182
H           31.47795800968920        3.94348657490106       14.29908086060050
C           29.91631322497147        5.30434531276660       14.11403610861385
H           29.38213267369407        6.05992303401653       13.54646468403611
H           29.52000955006782        5.07521039270878       15.10359004842574
C           34.97221607610528        1.19735680826866       14.98270021570623
H           33.87731493726976        1.20160692078769       14.98123922856640
H           35.32558156089240        1.76020669374520       15.86004630331668
H           35.31454696096358        0.15555945325676       15.08291483146805
C           37.87282716024350        0.97629225366283       13.98891293567509
H           37.88806862848349       -0.09134182921538       13.74084969691572
H           37.73383659016704        1.08687623378141       15.07227933859139
H           38.82171603255461        1.43353846587806       13.69480329522534
C           32.38576802540305        0.05841902338331        7.45928863605712
H           32.32997387075561       -0.79916857346331        8.14524317614721
H           32.50144100558830       -0.31491268349967        6.43597910684761
H           31.44200149845384        0.61427438869596        7.53952744014028
N           34.87535386917522        0.78917779222314        7.55562558286374
H           35.25558905734136        0.08581763205646        6.94243709317417
C           33.52293654864694        0.95475497860388        7.84624850418274
C           35.58241085845591        1.75621605068318        8.22294272122851
H           36.66075883928192        1.86881159274600        8.20515495871604
N           34.71165013651090        2.51111417692642        8.88249659300205
C           33.43450483821083        2.05427531597218        8.65840005995044
H           32.57093611443038        2.54808533150819        9.07774651126040
C           39.79527676661584        7.78439769612415       15.14939608723506
H           40.39816984014085        8.46697631050903       14.53478557076320
H           40.44350319279285        6.99581433936211       15.54729460598497
H           39.33416077345824        8.34794444658787       15.96667232396197
C           38.73449519023846        7.18391986579538       14.26591592396749
C           39.07205298068595        6.12073208924426       13.44006811923565
H           40.04621979699636        5.66203599884661       13.52337550760591
C           38.16881348905439        5.66232311774117       12.50314694686030
H           38.42428297004972        4.85398932694312       11.83829057458957
C           36.92432769391143        6.26125054073028       12.41036010003021
O           36.07647628916975        5.89587761371835       11.39248482702143
H           35.27247554388082        6.42249085029264       11.49378970639144
C           37.46660305351964        7.74556519712338       14.20315600468940
H           37.19853149018384        8.54863144690222       14.87399307265170
C           36.55121501951347        7.28386252392136       13.27348297598492
H           35.56307817448906        7.71816676761086       13.20771411012730
91
 energy: -134.091427059488 gnorm: 0.048779713697 xtb: 6.7.1 (edcfbbe)
Fe          35.43820959022811        4.26302010295114       10.19668770870583
N           37.30976825016358        3.91579370221386        9.49487800647785
N           35.07070845114649        5.57464783956957        8.62895790732419
N           33.53570168004324        4.64084288817085       10.90005387591313
N           35.75336731372894        3.01757499249266       11.72385959318637
C           38.22016176148644        3.04040625120981       10.01112300746182
C           39.41250875661670        3.01513452823237        9.17940802612360
C           39.19585633083178        3.89136204162480        8.15265175454301
C           37.85889651978031        4.44583308297712        8.36436474058141
C           35.93330142177940        5.83891733333979        7.61342764155802
C           35.32532904718610        6.76345103922850        6.67205006730067
C           34.07434599207330        7.07587481513924        7.15172817626273
C           33.92027708844513        6.27242947414761        8.37031435601335
C           32.64011718412394        5.52326783584721       10.37011789472652
C           31.52001031260332        5.68310095915240       11.26458121934695
C           31.73627827786573        4.85863764054502       12.35576542665497
C           33.00613895753121        4.19421746618920       12.07203601086605
C           34.88373364725155        2.72402143244413       12.73920432103580
C           35.51403931521428        1.82411160752008       13.70160579979070
C           36.78164741361119        1.64987046614827       13.24886695674452
C           36.90826470747736        2.34736465838855       11.98526226435148
C           38.03681532064763        2.29087932738015       11.17244592593894
H           38.82697982495205        1.60819755314880       11.46791495442922
C           37.23029725155403        5.33993134241875        7.50515375226772
H           37.81151639462146        5.68167013719837        6.65655117347423
C           32.78855044915215        6.22896072869954        9.16736693136931
H           31.93548505641754        6.80405382912910        8.83086110594158
C           33.62997937156814        3.27377097173665       12.90811726937597
H           33.10006110525983        2.98062537246846       13.80458957272533
C           40.10607174099437        4.23867260919733        7.00608508445990
H           41.04498065937133        3.68795046303457        7.06732624144903
H           40.34739596906401        5.30402551121492        6.99824468672911
H           39.64659804460591        3.99831560158674        6.04400365450665
C           40.61478137418811        2.16894520219128        9.48149840478380
H           40.39506642317012        1.10896348437558        9.33478272575378
H           40.92708317962820        2.29809112528236       10.51902127588396
H           41.45732603958510        2.42748214925515        8.84276226614974
C           35.96171459874378        7.27504691183319        5.42186483286656
H           36.54207451916453        6.49687060305607        4.92910467478704
H           36.63381268600190        8.10236588634626        5.65621715742679
H           35.20900866057826        7.63810595972758        4.72202363198659
C           33.12049185342791        8.04540069258269        6.59217839126306
H           32.07771418017982        7.73114008283231        6.59506041650905
C           33.37723029400538        9.24549388482457        6.10637503234700
H           34.36359147146568        9.68559159134591        6.06533472836773
H           32.59034508906547        9.88708088115855        5.72142727138684
C           30.41049392994912        6.64910977848151       11.02527866885209
H           30.00199549371226        6.52814446828818       10.02369489249706
H           30.77062393036090        7.67502871064990       11.12370902270187
H           29.61191000102140        6.49357295767097       11.73880811404714
C           31.02010088745043        4.68640409706948       13.61321018191072
H           31.47477128992437        3.95235423019710       14.27405352161046
C           29.94473219884292        5.29567548554614       14.08756183137315
H           29.39332652082432        6.05206140118649       13.55402408708816
H           29.54713997512907        5.06836921946184       15.06870753032501
C           34.96620082145954        1.21810986008630       14.95932080919082
H           33.88033944322584        1.21264462844387       14.97224373513847
H           35.31757327912071        1.76358857385887       15.84014498416733
H           35.30865012177722        0.18461222922636       15.06452833441399
C           37.88223039200208        0.96525408275581       13.98015365088976
H           37.90311674047521       -0.09742744970342       13.74527178299301
H           37.74019193617351        1.07869447963519       15.05409001360622
H           38.83170523387762        1.41334792457224       13.70523495510902
C           32.40243906405349        0.06359796788659        7.45451292769630
H           32.34153861326268       -0.79099281315885        8.13186919904704
H           32.51042263659722       -0.30909086619574        6.43932879856130
H           31.46373962735944        0.60988780186829        7.53278886398495
N           34.85218254740185        0.78715657611454        7.57162741498156
H           35.24079858612743        0.08478476495839        6.95898756597346
C           33.52231427903985        0.96400317372047        7.85544745330293
C           35.53955326752195        1.75991940222351        8.22404040480269
H           36.61207275368094        1.86123058060443        8.19647596076607
N           34.73001393640261        2.53937146747970        8.89330470872713
C           33.47178284829941        2.06349112411586        8.66752702938596
H           32.60607562398943        2.54460508608888        9.08495202119897
C           39.79297719167418        7.78295568045655       15.15375983698087
H           40.40154032846888        8.46399101485898       14.55651926926302
H           40.44223131960392        7.00880008002473       15.55362269555314
H           39.34624808400351        8.34413675330137       15.96863097091281
C           38.74246805326251        7.18963645446761       14.26693265111281
C           39.06518102652426        6.12269430149165       13.43642721714144
H           40.04094116128919        5.66585170107072       13.51601906398653
C           38.16392417543335        5.65959039178274       12.49811514869400
H           38.41560232167594        4.85253510502070       11.83209979605373
C           36.91611780114852        6.26077687928107       12.39461612200400
O           36.05616656448950        5.88587530673820       11.38581355622171
H           35.25817811323135        6.42691207401884       11.48734608869191
C           37.47075169584713        7.74080916042270       14.19937191815219
H           37.20026443389517        8.54637559129852       14.86719846765728
C           36.55483240006499        7.27893441516740       13.27138039131023
H           35.56690577372373        7.71710408790822       13.20799242477377
91
 energy: -134.099302909916 gnorm: 0.026005000877 xtb: 6.7.1 (edcfbbe)
Fe          35.41566527887736        4.22611769382016       10.16442923087813
N           37.29712073665984        3.90843303922002        9.48408313120100
N           35.07084208308812        5.55492103097522        8.62495065520601
N           33.54676339804572        4.65116482785067       10.90763464544222
N           35.74828833709657        3.00792671009597       11.71573825848588
C           38.20805832581460        3.04639834571642       10.00379224341293
C           39.40257529460131        3.02047499007131        9.18297421151669
C           39.18373036206362        3.89338746142504        8.16024206341353
C           37.84909251175417        4.43975124602206        8.36115874939578
C           35.94130342348591        5.83661666224338        7.61981869890619
C           35.34058394058315        6.77325374574540        6.69130837918559
C           34.08913555700654        7.06646288507111        7.17058099483326
C           33.92879721695139        6.26016103094769        8.38032671239049
C           32.65075932403796        5.53432577015427       10.37870911123726
C           31.52419410337495        5.68929303068079       11.26592065347258
C           31.75085026885588        4.86911272627769       12.35397073911869
C           33.02173594519643        4.20948545923734       12.07826091956619
C           34.88958951686919        2.72523950077932       12.73426521584799
C           35.52408093775399        1.83953544145333       13.68965547499134
C           36.79641431748880        1.65020559727996       13.24099014520568
C           36.90725029753491        2.35086843895948       11.98165615250792
C           38.02920486810210        2.31130165652905       11.16686334415596
H           38.83155384467961        1.65262100578845       11.47129903555961
C           37.22664940897209        5.33264003456146        7.50428353680697
H           37.80663346463970        5.66902462955378        6.65544586784998
C           32.80295581531329        6.23452764035650        9.18180108393534
H           31.96004908826069        6.83114125672517        8.85874716447622
C           33.63357856289286        3.27627653613624       12.90300476881855
H           33.09818730936994        2.96931899936876       13.79029508512502
C           40.08899203142962        4.23898209415510        7.02271340841046
H           41.02417130492209        3.68710384353015        7.08990989153263
H           40.32265333216543        5.30365388612655        7.01957472374916
H           39.62385306224049        3.99676127791358        6.06646452380175
C           40.59967471295336        2.17952532885218        9.47660789493182
H           40.37757484473732        1.12113733252872        9.33031048221718
H           40.91471812158670        2.31201698284330       10.51125596032266
H           41.43580936678462        2.44176074608111        8.83341792089487
C           35.96929490144626        7.27755103323027        5.43902518951944
H           36.54063015507810        6.49471749852525        4.94322277057350
H           36.64755668474491        8.10449623466626        5.65510890819630
H           35.20613183921441        7.63759673332822        4.75111608485017
C           33.11979186801609        8.00925805300787        6.62137458359707
H           32.08146116832835        7.68775657911668        6.64169934982621
C           33.39037758679821        9.20800663104837        6.11628208177503
H           34.37724307746970        9.63990038146502        6.08553819646778
H           32.60826044265156        9.84762299026990        5.73097059427101
C           30.40897168327247        6.64312843653890       11.01182572733520
H           30.01299961000905        6.52450729021758       10.00489608896667
H           30.76361149560547        7.66994200127473       11.11478802637536
H           29.59740069852929        6.49145839957290       11.71131422353793
C           31.03202019773700        4.68335954818288       13.59708121600459
H           31.48321627062295        3.94257313652981       14.24860501668942
C           29.95158164040995        5.29648666580623       14.07388322929758
H           29.40221295476375        6.06426706835992       13.55825371127001
H           29.55983598080194        5.05210816523537       15.04902103126826
C           34.96039390442066        1.24311995985941       14.94047703499966
H           33.87478789723677        1.24072499500451       14.94569486596139
H           35.30740843459226        1.78801190338206       15.82085033993824
H           35.30094669061361        0.21177080567054       15.04134524235626
C           37.89369626852117        0.94968002199506       13.96615368008112
H           37.91584995546332       -0.11453431874979       13.73520694909215
H           37.74903065059060        1.05976129774021       15.03898308419005
H           38.85483014092963        1.38470337326078       13.70620561377531
C           32.41136648298559        0.07612086817383        7.45543536150932
H           32.35553153965338       -0.78691286464238        8.12044124348857
H           32.53712095610989       -0.28685951360628        6.43857203875736
H           31.46914599328491        0.61201790440080        7.52480961836973
N           34.83766736417675        0.78872430768349        7.59076520765692
H           35.22024332515374        0.07954370849052        6.98449930626708
C           33.51400237094915        0.98155421015650        7.87825805028710
C           35.53127294746403        1.76274211829420        8.22317796643339
H           36.59813867002392        1.85450358531897        8.17870616157635
N           34.74081758961127        2.55772287222583        8.89810959432774
C           33.48138514269051        2.08233114483151        8.69176826128631
H           32.62421710770576        2.56114954307808        9.11821537715805
C           39.79053670199615        7.77782210908417       15.15994590915043
H           40.41052594752986        8.46454166754410       14.58144145106070
H           40.43967967974913        7.00689766953551       15.56485798691731
H           39.34588501974801        8.33606765043267       15.97789575717932
C           38.74519370795627        7.19223437058810       14.25923739477133
C           39.05773857115889        6.12638127391412       13.42198043746209
H           40.03334092125112        5.66828718324529       13.49687430259886
C           38.15372109412874        5.66198630406039       12.48572306213798
H           38.40124081968147        4.85255760376646       11.82044597164201
C           36.90452483228207        6.26200339196691       12.38160713751474
O           36.03746364459992        5.88361943153973       11.38145464503884
H           35.23927102625914        6.42505082617832       11.47783310308678
C           37.47234815710450        7.73999326858912       14.18934987896726
H           37.20075903448576        8.54540333145180       14.85669806656234
C           36.55366682599024        7.27858554642549       13.26357602366543
H           35.56656201221159        7.71902671765686       13.20693676610768
91
 energy: -134.103491817875 gnorm: 0.016574592855 xtb: 6.7.1 (edcfbbe)
Fe          35.40322098930466        4.20864556884572       10.14293203167180
N           37.27453219204575        3.89480702744189        9.46947159786716
N           35.07130214010173        5.52186850788181        8.62094980421059
N           33.55727683007682        4.64909326239497       10.90152442745588
N           35.74546712501977        2.99828659826252       11.69767082982361
C           38.19222435053973        3.04621730183572        9.99673251869317
C           39.38998054395453        3.02485936389024        9.18586047155279
C           39.16962175964697        3.89271876325163        8.16223365759077
C           37.83571740242176        4.42592474150425        8.35363224089988
C           35.94342805880439        5.82484896866240        7.62328926050510
C           35.35364893322582        6.77858420279983        6.71156354770281
C           34.10287127405595        7.05360984890990        7.19234403366251
C           33.93970371866872        6.23743819938068        8.38708750636394
C           32.66194597747388        5.53707316157462       10.38221507510452
C           31.53394362155776        5.69282183347291       11.26541554073335