87
 energy: -128.467070201891 gnorm: 0.000125918541 xtb: 6.7.1 (edcfbbe)
Fe          14.94561995269614       54.74661290892389       19.21317529935630
N           13.54562636852296       56.07501165002401       18.66172282055558
N           14.52244445412855       53.63439117505188       17.59662413638637
N           16.36966775936879       53.44187600618880       19.74571433523552
N           15.33427718246486       55.83694725708084       20.84608509141965
C           13.19409183354422       57.20857626636982       19.31994732840725
C           12.16790039237170       57.92449590252311       18.59401796405034
C           11.90755824479695       57.19236995866143       17.47780772319186
C           12.77619504790078       56.03742538458778       17.54051827826196
C           13.59766731711565       53.90613523554251       16.63661636857749
C           13.55322154369048       52.85253743881876       15.65830786938799
C           14.45901656549253       51.90884207825368       16.06483555980136
C           15.07187660420431       52.43735972018193       17.26803035501327
C           16.74708435681080       52.32893492524138       19.06076244182430
C           17.85003147444461       51.67355804295844       19.71647826302392
C           18.12740020470870       52.41342054602809       20.83614641429267
C           17.18870416171760       53.51974636460374       20.82338955699774
C           16.24897248264718       55.56154511561967       21.81175854610582
C           16.20827561275621       56.56285538673068       22.85584897372540
C           15.24807287779616       57.45326755539374       22.49069363157038
C           14.71565904234753       56.98253503944559       21.22985063556767
C           13.72361264502143       57.63557192897146       20.52374437236653
H           13.33354497480076       58.55102206887224       20.94254706410811
C           12.79163060995421       55.03373240053826       16.59047319473868
H           12.11631477481909       55.12756381227842       15.75263191911530
C           16.14061122449996       51.84715587342312       17.91433927528441
H           16.53543724498423       50.93996922814610       17.48398018125243
C           17.12387822412128       54.49018626679748       21.80885507992436
H           17.80876089654625       54.40739415674621       22.63963810182137
C           10.93833902743634       57.45921353863099       16.37621849219614
H           10.40772125564942       58.39305355934590       16.54556789200841
H           10.20351976118171       56.65627746691344       16.30654325700542
H           11.45365032762106       57.52735479135615       15.41751184588374
C           11.56080899828892       59.21027044976040       19.04172665351235
H           12.32607562342878       59.98012479728217       19.14381251459412
H           11.07484267140779       59.08786289585825       20.01010081337630
H           10.81787648913429       59.55840358846535       18.32789032297232
C           12.63862384507226       52.81256304954731       14.48174041666847
H           12.75996243004918       53.70585055293208       13.86790829986412
H           11.59715604474936       52.76581862582087       14.80324919872172
H           12.84287994548869       51.93885150518368       13.86785875279596
C           14.73458803746718       50.64017397688189       15.42368737975653
H           14.70675744380024       50.65297395273406       14.33875916049218
C           14.96710156156709       49.49001081763387       16.04651534256928
H           14.95180169988959       49.40911784099355       17.12009330911263
H           15.15820303949042       48.58111171861691       15.49985311917003
C           18.55899734601749       50.46848919961914       19.20403765275375
H           18.62228351165674       50.49217407941553       18.11721015602826
H           18.03397127134071       49.55560995418185       19.49099641748638
H           19.56719167647426       50.42628394527186       19.61192653313556
C           19.14766239633732       52.21100511100096       21.83968505417990
H           19.54941647241183       53.11349981093143       22.28670443760240
C           19.61004338485850       51.03381033318924       22.25002289002270
H           19.21791001440812       50.10288010196814       21.87990089105946
H           20.38540888828143       50.96198681110986       22.99500801957968
C           17.08096239816335       56.55488752989093       24.06463126462594
H           18.13160578681038       56.62645665237280       23.78086030963923
H           16.94660714600544       55.63201101134794       24.62954492866981
H           16.84639023239260       57.39258814885756       24.71701576387898
C           14.78586398239623       58.68430367105941       23.19281690693790
H           14.94693446028141       59.56441774158127       22.56952957467670
H           15.32519352452353       58.82367950254636       24.12674887854487
H           13.72088311568056       58.62032966461506       23.41758670746466
C           19.53882627315395       57.45811972645710       17.50439185616013
H           19.46290417848689       58.53044650959324       17.32337724608278
H           20.12061274956314       57.01626443313700       16.69534502279636
H           20.06721354969828       57.29963335101320       18.43927770176161
N           17.30068230220445       56.87527110847464       16.54310498326918
H           17.45925757102940       57.30783041866453       15.64797570454032
C           18.19144003728166       56.83902762607747       17.58446383219450
C           16.18261671045668       56.22594662453025       16.93903911784291
H           15.31448215135806       56.09794240976248       16.32617261009559
N           16.31049216539948       55.78204928341263       18.16467531344531
C           17.55431096221514       56.15569868104951       18.57990308953352
H           17.90558518951112       55.90981478924304       19.56031436893530
C           12.19500610699759       51.75982753328719       23.06684374357864
H           11.92096301895699       50.73427337935600       22.81915406873541
H           11.34675399963406       52.22793679544166       23.56661898314608
H           13.03536943498219       51.73921251652671       23.75366184738964
N           11.70885269536445       52.69467916022449       20.79453380118867
H           10.76652431719713       52.34455291062440       20.74027686868486
C           12.57107296097720       52.51554894832726       21.84511934543216
C           12.35613775456484       53.41876864200252       19.85373712700094
H           11.92375653583625       53.71096523446179       18.91917376908968
N           13.57248918478841       53.70864612961697       20.24371328277170
C           13.72135048825767       53.15408247860417       21.48033903134529
H           14.63991177807077       53.24997521921802       22.02098334664981
