78
 energy: -116.057996535332 gnorm: 0.000178031371 xtb: 6.7.1 (edcfbbe)
Fe          15.08779695913133       -8.87985096559972        3.27989850308689
N           15.91282476609933      -10.58431182300124        3.89457759387700
N           16.06733604859837       -9.02027047279730        1.54791738023919
N           14.29408913362045       -7.12448278644602        2.68217805124690
N           14.14188187009501       -8.69535790041486        5.04622941163178
C           15.71197741930870      -11.20815524757528        5.08550216029430
C           16.48271969686599      -12.43161398958842        5.15926006735480
C           17.15364036539279      -12.52999349519077        3.98172801515880
C           16.78210442822142      -11.36619474171326        3.20534934960171
C           16.91555886772190      -10.01086576804607        1.16826031471052
C           17.42202601999095       -9.76978186093032       -0.16546583960651
C           16.85439382143333       -8.60776165737426       -0.58388428107907
C           16.00988545501698       -8.15562827881647        0.50100024462792
C           14.45032664198779       -6.52957274837252        1.47135040554420
C           13.69360072586775       -5.29590043264269        1.40603771525314
C           13.06150078044896       -5.17421747072625        2.61620913292098
C           13.44671795788887       -6.32470839687804        3.39068309117963
C           13.32043905997779       -7.68362337614870        5.43632476629622
C           12.81727683570117       -7.92088261443502        6.77513944290579
C           13.34278507485594       -9.12443606620895        7.16726213276863
C           14.16260529385682       -9.58425131042362        6.07724575366199
C           14.89461536251411      -10.75890743493682        6.10230894307408
H           14.83265760436546      -11.36410176575050        6.99369282657172
C           17.25705749748402      -11.11014966132318        1.93268335448297
H           17.95004226425862      -11.81934485135324        1.50598116049928
C           15.25878532962760       -6.99731321415199        0.45193526631581
H           15.31308527219544       -6.40922242850185       -0.45123986459937
C           13.00790958779452       -6.56871487901980        4.68150115121678
H           12.35791573213889       -5.83243695344543        5.12880726833830
C           16.49232511922804      -13.35082115083211        6.33229555467976
H           15.48780479738984      -13.72168812651891        6.53802293807168
H           16.84986800053134      -12.83198203734697        7.22187421385982
H           17.14145785837239      -14.20377863988969        6.15014664613027
C           18.09846025842447      -13.58454046284054        3.51628115500699
H           19.07676897430969      -13.15313478568643        3.30423742745477
H           17.73193434239743      -14.05534239259806        2.60346900844331
H           18.22131738376779      -14.35548237983024        4.27297895935532
C           13.09084230251489       -9.87715217846846        8.42675726066608
H           13.90519746832847       -9.73019807285978        9.13828789464876
H           13.00702277309741      -10.94422868678461        8.22662900156293
H           12.16644048825516       -9.53506300066442        8.88774039086594
C           11.91814438391759       -7.04008972852992        7.48697977298207
H           11.21168047710641       -6.49385972429046        6.87236718894525
C           11.90401501498486       -6.85117012151513        8.80257109224849
H           12.61223718828597       -7.32744148411785        9.45775508627873
H           11.19510970735710       -6.18692387106102        9.26842068444780
C           12.10143347015945       -4.12483476888142        3.05701675160735
H           12.59567330740355       -3.38236227830286        3.68607514815779
H           11.28675323735034       -4.56321961871587        3.63166572319343
H           11.68178677777822       -3.61653803323309        2.19133307553322
C           13.63732605510998       -4.42467672826208        0.25312227613321
H           13.70272342316282       -4.91886908731459       -0.70934950567876
C           13.52430132835996       -3.10099982111128        0.29108693839993
H           13.50391514489309       -2.55346307479511        1.21722415646838
H           13.47511122932619       -2.51375265727821       -0.61088675527039
C           17.02151661151321       -7.88594436167738       -1.87691802755543
H           17.41640576577274       -6.88396660640298       -1.70789927976855
H           16.06384017069099       -7.78949183622963       -2.38928083551417
H           17.70765928552061       -8.41802254649644       -2.53130520555887
C           18.38104141632582      -10.66331566984618       -0.87491245136816
H           18.61678249647387      -10.27234260258987       -1.86162351244387
H           17.96154369002213      -11.66291673904895       -0.99344818962375
H           19.30918893006650      -10.75162022347788       -0.31015462273723
O           16.77924793123674       -7.62695242282125        4.19469880207514
H           16.68897607907955       -6.81355740385959        3.68658162615888
H           16.41008225535820       -7.45812429305745        5.06850879419666
C            9.99351729563504      -10.56111977100247        1.76000604781708
H            9.62272868033754      -11.50702719508147        2.15465054435392
H            9.73863252669127      -10.51006108013198        0.70149817785642
H            9.49386817942686       -9.74833109360015        2.27757631362920
N           12.34824656952804      -11.34178561186940        1.41670276043331
H           12.10867000096291      -12.14111279170701        0.85340041576436
C           11.46095531235062      -10.44696467990962        1.95499603692852
C           13.59213934572448      -10.95401591667401        1.77838719432735
H           14.48810497094423      -11.46914326640717        1.49859764532544
N           13.54601194109962       -9.86872582280161        2.51244582886380
C           12.22731670403471       -9.54163557339094        2.63122195960920
H           11.91931745692887       -8.68315698836189        3.19069437544124
