78
 energy: -116.058077705313 gnorm: 0.000150294161 xtb: 6.7.1 (edcfbbe)
Fe          -5.53832989453616       57.12640204851506      111.77040042376714
N           -6.29603902537538       56.20233362886716      113.39088608270373
N           -6.40427613027992       58.84770684901703      112.36514256971034
N           -4.74299856387137       58.06461801653918      110.20175148983785
N           -4.64304989017171       55.43190754085345      111.22935211586157
C           -6.16681885492968       54.88821234237092      113.71515639511084
C           -6.89283128116371       54.58685209777124      114.92767166876038
C           -7.46897361599445       55.75221978514216      115.32958667880770
C           -7.09035043355561       56.74912213353612      114.35394679975532
C           -7.18374535482483       59.03971076179923      113.46764051914423
C           -7.66764760990801       60.39352718102788      113.52338302312408
C           -7.17405595020736       61.02534626458643      112.41117439727979
C           -6.38058912973302       60.03752744305496      111.70844103297719
C           -4.93040453336146       59.36417814489805      109.84445621595282
C           -4.21259631744852       59.67232096107017      108.63249750031763
C           -3.58053844507153       58.51757163513138      108.25721863294667
C           -3.92698481595090       57.52903416246662      109.26132927543800
C           -3.84577098086710       55.24431410062747      110.14669693341257
C           -3.39276475136186       53.87116869580527      110.07405442897768
C           -3.94103382415312       53.23333838109499      111.14119245463858
C           -4.71968323548449       54.22644968405304      111.85078654852420
C           -5.43204512085202       53.95840968853324      113.00346756214670
H           -5.41089849876030       52.94740579720091      113.38035371831596
C           -7.49911527486036       58.06787268891975      114.40391835592504
H           -8.13636097312261       58.35732685397458      115.22556222567637
C           -5.70504990774442       60.28316889107827      110.52896523960912
H           -5.78970523613587       61.27207987235627      110.10538786013278
C           -3.50638637871963       56.21264371574034      109.22182892858568
H           -2.86850095338739       55.91528388921436      108.40343454791498
C           -8.32602619829594       56.02169886075415      116.51908863893647
H           -7.87130930776997       56.78056125722490      117.15655385317996
H           -8.46352730685425       55.11865038102782      117.10855268367962
H           -9.30807443593048       56.38342715811678      116.21259995244044
C           -6.95098104607958       53.23834718201699      115.55911144231267
H           -5.95110244714673       52.89875969024941      115.83037788923515
H           -7.37843674872963       52.51084089155309      114.86883785886043
H           -7.56160744746117       53.25728279033701      116.45854890627976
C           -8.48187515035947       60.96922881135929      114.62955670507651
H           -8.17119187042873       60.56181825335909      115.59060909441034
H           -9.54122740121283       60.74358658548636      114.49440630391410
H           -8.36309530871200       62.05057086036648      114.65535649398170
C           -7.34279396057959       62.39863345109362      111.99136646933098
H           -6.49837440192241       62.83620321504279      111.47159323879276
C           -8.43082957638388       63.13718573511899      112.18461269890796
H           -9.31671362688635       62.74293331324509      112.65111779408591
H           -8.48133219132902       64.16186036900046      111.85560723196841
C           -4.13936068820071       61.01678618337108      107.99708449564496
H           -4.07121403798925       61.79726099348722      108.75350999233690
H           -5.02628046189385       61.21039985770275      107.39132081243930
H           -3.26352896713239       61.07833677118477      107.35448017650636
C           -2.71054926759508       58.27482922486684      107.12767443700555
H           -1.90627477371285       57.56910669420827      107.30038437537314
C           -2.82991836676033       58.83434006996236      105.92800836333468
H           -3.63595656750750       59.50516972816207      105.68646141107513
H           -2.13465173144337       58.61840773778754      105.13368865130620
C           -2.49744312203066       53.33671436511803      109.00948544406400
H           -1.54568365455956       53.86819903612801      109.00903409603863
H           -2.95328130730589       53.45887603196125      108.02653383843807
H           -2.29860250039367       52.27927387241658      109.16564693367552
C           -3.80952456232294       51.80970996871125      111.56188543879874
H           -3.18077661199398       51.25787458237810      110.86752040586244
H           -4.78703990401030       51.32806315138666      111.59704840727566
H           -3.36390180345589       51.74331864586087      112.55468313598494
O           -3.76898280487608       57.71676711339997      113.10637821031820
H           -3.97725782978542       57.18990176341669      113.88575695507603
H           -4.01174935048979       58.62728197624367      113.30717464695019
C           -9.08916081133294       55.49811750132409      107.79405479110612
H           -9.72798288797435       56.25869473997623      107.34527451793620
H           -9.69257576086177       54.60817537253599      107.97255075143828
H           -8.29968759807270       55.24880597436250      107.09212849547031
N           -9.24965401232735       56.37554405660063      110.13415976501173
H          -10.25539125923717       56.36440316368535      110.17809399802974
C           -8.49045799884467       55.99249907213024      109.05962347750392
C           -8.40461078922281       56.77081159702818      111.11263550336626
H           -8.72099058034523       57.12358805639541      112.07233353853118
N           -7.15772386793410       56.66121769536699      110.72345421627548
C           -7.19467418913340       56.17788541711808      109.44832970395302
H           -6.29306852333893       55.99799752512830      108.90002013312069
