78
 energy: -115.942289851704 gnorm: 0.339993723122 xtb: 6.7.1 (edcfbbe)
Fe          -5.53100000000000       57.13300000000000      111.81899999999999
N           -6.42000000000000       56.20500000000000      113.45199999999998
N           -6.55500000000000       58.87800000000000      112.35299999999998
N           -4.76500000000000       58.08899999999999      110.16900000000000
N           -4.54900000000000       55.39399999999999      111.29299999999999
C           -6.17700000000000       54.93500000000000      113.80900000000000
C           -6.68200000000000       54.68100000000000      115.06900000000000
C           -7.31100000000000       55.84999999999999      115.49099999999999
C           -7.05400000000000       56.77399999999999      114.49800000000000
C           -7.22600000000000       59.10400000000000      113.50200000000000
C           -7.77900000000000       60.40200000000000      113.51499999999999
C           -7.37800000000000       60.97700000000000      112.31200000000000
C           -6.56700000000000       60.02500000000000      111.66799999999999
C           -4.97800000000000       59.35400000000000      109.78699999999999
C           -4.23600000000000       59.68800000000000      108.66600000000000
C           -3.47400000000000       58.55899999999999      108.39900000000000
C           -3.87900000000000       57.59600000000000      109.32100000000000
C           -3.83000000000000       55.21700000000000      110.20099999999999
C           -3.56800000000000       53.87700000000000      109.98300000000000
C           -4.13300000000000       53.20700000000000      111.06200000000000
C           -4.74600000000000       54.19400000000000      111.83499999999999
C           -5.47000000000000       53.99600000000000      113.02500000000001
H           -5.48800000000000       52.97200000000000      113.39500000000000
C           -7.41400000000000       58.13100000000000      114.51199999999999
H           -7.90300000000000       58.48099999999999      115.42099999999999
C           -5.83700000000000       60.22800000000000      110.48500000000000
H           -5.95200000000000       61.21400000000000      110.03699999999999
C           -3.46300000000000       56.24700000000000      109.34799999999998
H           -2.74200000000000       55.97299999999999      108.58000000000000
C           -8.13500000000000       56.01700000000000      116.76100000000000
H           -7.51500000000000       56.50300000000000      117.54400000000000
H           -8.46400000000000       55.02200000000000      117.12900000000000
H           -9.01900000000000       56.65600000000000      116.55299999999998
C           -6.56700000000000       53.35100000000000      115.80399999999999
H           -5.55800000000000       52.91899999999999      115.63400000000000
H           -7.33100000000000       52.64200000000000      115.41999999999999
H           -6.71100000000000       53.51100000000000      116.89399999999999
C           -8.69800000000000       60.91300000000000      114.61199999999998
H           -8.33300000000000       60.55500000000000      115.59800000000000
H           -9.72800000000000       60.52900000000000      114.44799999999999
H           -8.70200000000000       62.02400000000000      114.61099999999999
C           -7.67300000000000       62.20799999999999      111.73600000000000
H           -7.11000000000000       62.48200000000000      110.83300000000000
C           -8.63400000000000       63.18900000000000      112.17200000000000
H           -9.24800000000000       63.00999999999999      113.06699999999999
H           -8.76400000000000       64.12900000000000      111.61499999999999
C           -4.16500000000000       61.07600000000000      108.02899999999998
H           -4.30700000000000       61.85099999999999      108.81199999999998
H           -4.96800000000000       61.18100000000000      107.26800000000000
H           -3.17100000000000       61.22099999999999      107.55400000000000
C           -2.52000000000000       58.29199999999999      107.40499999999999
H           -1.88100000000000       57.41100000000000      107.55300000000000
C           -2.26400000000000       59.02600000000000      106.20500000000000
H           -2.85000000000000       59.92500000000000      105.96499999999999
H           -1.47800000000000       58.70000000000000      105.50800000000000
C           -2.97300000000000       53.27799999999999      108.72299999999998
H           -1.90500000000000       53.57399999999999      108.64000000000000
H           -3.52200000000000       53.65400000000000      107.83300000000000
H           -3.03700000000000       52.17000000000000      108.76800000000000
C           -4.11800000000000       51.68900000000000      111.30900000000000
H           -3.19900000000000       51.25000000000000      110.86400000000000
H           -5.00700000000000       51.22200000000000      110.83300000000000
H           -4.12200000000000       51.48600000000000      112.40100000000000
O           -4.16500000000000       57.55499999999999      113.05800000000001
H           -4.44100000000000       57.17899999999999      113.89399999999999
H           -3.41500000000000       58.00899999999999      112.90800000000000
C           -8.97600000000000       55.17299999999999      107.88000000000000
H           -9.33200000000000       55.85100000000000      107.07500000000000
H           -9.83600000000000       54.57800000000000      108.25700000000001
H           -8.20000000000000       54.49600000000000      107.46399999999998
N           -8.99200000000000       56.93500000000000      109.76800000000000
H           -9.91900000000000       57.27499999999999      109.61199999999999
C           -8.38000000000000       56.00399999999999      109.02300000000000
C           -8.17100000000000       57.31400000000000      110.72199999999998
H           -8.41700000000000       58.05599999999999      111.48099999999998
N           -7.04300000000000       56.66399999999999      110.60199999999999
C           -7.11900000000000       55.85900000000000      109.57200000000000
H           -6.28400000000000       55.23300000000000      109.28599999999999
78
 energy: -116.013931353149 gnorm: 0.136523601822 xtb: 6.7.1 (edcfbbe)
Fe          -5.56378547857462       57.12972747767390      111.80323141460886
N           -6.39119753447050       56.21387124210049      113.44177703759274
N           -6.51425847698635       58.87208954814145      112.37023990509778
N           -4.75982504253541       58.08661275706467      110.19834529832815
N           -4.57110084307693       55.41603046639611      111.30410972158141
C           -6.15988309989217       54.92884018063247      113.79825187492251
C           -6.69697090737163       54.66705942355251      115.08016658698578
C           -7.31094973386279       55.83264521805111      115.50039572499371
C           -7.06006705783410       56.78448919234339      114.48136707998894
C           -7.22569006713664       59.08743237451307      113.50843985436660
C           -7.78750432968986       60.39926312455449      113.51648309313765
C           -7.39095380824524       60.99015046445319      112.32175779512946
C           -6.55782442026598       60.02002837150872      111.66156005490012
C           -4.98981748695401       59.36245407033745      109.80889629205275
C           -4.22316048929758       59.70033947833121      108.66697176101199
C           -3.47147757426037       58.56815801332518      108.37372086275651
C           -3.86559738625733       57.58398012740538      109.33320459623492
C           -3.84019038158967       55.23326670821463      110.19253817506792
C           -3.57275164338424       53.85564118298597      109.98084709759975
C           -4.13236416211231       53.19203890840367      111.05246297333176
C           -4.75742701883905       54.19651657961608      111.85080417304980
C           -5.46754583951410       53.98735869825872      113.02855983264568
H           -5.48667627682856       52.96985801155556      113.39703856728109
C           -7.42231299183797       58.13111434733546      114.51016402000806
H           -7.90973427877979       58.47607713591194      115.41493240892862
C           -5.84844443283485       60.23306902199933      110.48356661949173
H           -5.95147004279339       61.21305453516059      110.03603959836509
C           -3.44990327499614       56.25197564792862      109.33917406531776
H           -2.74605130802181       55.96790975468763      108.56828293015880
C           -8.12298548374250       56.01736951731729      116.75516109839715
H           -7.52419006368855       56.49923787580852      117.53874930353217
H           -8.45982793427233       55.04246053228922      117.12395530187223
H           -9.00146273299794       56.64352308588418      116.55678419213923
C           -6.57297091686360       53.35638348282535      115.80597990559649
H           -5.57726170345707       52.92650072924999      115.64088411878315
H           -7.32173227382946       52.64738099997996      115.43184781329055
H           -6.71358030682142       53.50291958473117      116.88125576026397
C           -8.68766366773554       60.91159722305166      114.60522613361516
H           -8.33948181740215       60.56060585142981      115.58361584187708
H           -9.71078399295610       60.54108107837262      114.45146952445720
H           -8.69989833580173       62.00505162518838      114.61919106236600
C           -7.69728264363001       62.24904192853903      111.74944604707535
H           -7.13724949585939       62.50128114874997      110.84882361247260
C           -8.61418344030920       63.17184955233759      112.16334690472206
H           -9.23637590372343       63.01005413334567      113.03500688945955
H           -8.75175369030690       64.10134345111312      111.62165937927249
C           -4.16347972789388       61.06620354309578      108.03427785333352
H           -4.30433540058782       61.84014935435221      108.79791802747641
H           -4.95218739499227       61.17919247860497      107.27828427435854
H           -3.18785683564390       61.22026873613168      107.56208049675105
C           -2.50388341995978       58.31162734413135      107.36506294231731
H           -1.88158860964943       57.43139741420297      107.52897877107443
C           -2.26590238411625       59.01684118126652      106.22684513151516
H           -2.84322966805576       59.89709444074371      105.96991058010634
H           -1.49464792028072       58.70316783026963      105.53154272924321
C           -2.96795200032653       53.27532431811414      108.73491122140949
H           -1.91477122311636       53.56775857635543      108.63787709277743
H           -3.50852757817390       53.64326279522675      107.85202284665174
H           -3.03242646948929       52.18364111837464      108.76189235941996
C           -4.11672741335944       51.70179650056237      111.30516025017833
H           -3.21407353141667       51.25651249844315      110.87130612329715
H           -4.99355593629548       51.22858541947694      110.84439840182488
H           -4.12408403979494       51.49019379320656      112.38040319185782
O           -4.16238427269121       57.55595044004289      113.06728786636863
H           -4.41698665791917       57.18730341298494      113.91551060091017
H           -3.36617336712604       58.03194811244038      112.92201304330864
C           -8.97942658292335       55.18335924046329      107.87961151578554
H           -9.33273857644954       55.84253132541846      107.07909283844965
H           -9.82373734516934       54.58726860332884      108.24742873595925
H           -8.21614082449034       54.51197169610274      107.47543956538753
N           -9.01099905816313       56.91938817245061      109.75086535786032
H           -9.93980913982363       57.26492569543840      109.59409538569415
C           -8.37970237305338       55.98004615008968      109.00403035788635
C           -8.18332934867431       57.31311590231645      110.72189039996367
H           -8.42649648054712       58.04526280279841      111.46955963485274
N           -7.04720959585610       56.67123615138814      110.61549574993158
C           -7.12873361915883       55.84953504657668      109.56671444092601
H           -6.29728341316128       55.23240604294450      109.28235990899418
78
 energy: -116.033045241133 gnorm: 0.042602643737 xtb: 6.7.1 (edcfbbe)
Fe          -5.58084213698627       57.13201499546872      111.79800579280062
N           -6.36785770636342       56.21668569066397      113.42764342789754
N           -6.48773449198169       58.86159732752565      112.37630618124761
N           -4.75048841704483       58.08438901929603      110.23011551277722
N           -4.60975634766158       55.43276609049983      111.29782458774721
C           -6.14338132119523       54.92497771756621      113.78642361606404
C           -6.70844385110655       54.65975389132909      115.08166701256567
C           -7.30832396349680       55.81769288890137      115.49562871304860
C           -7.05973296806941       56.78900475348610      114.45987362709261
C           -7.22102945265546       59.06923303988015      113.50780484156169
C           -7.79064656955139       60.39117964530625      113.51064070762550
C           -7.39880835735879       60.98808923971202      112.32808843755095
C           -6.54771185427501       60.01209147698049      111.65889593180785
C           -4.99126875306931       59.36543034781145      109.83677965431372
C           -4.20891319866143       59.70242437587392      108.67846398694103
C           -3.47349391860897       58.57451510922665      108.36870062537731
C           -3.85758202592756       57.57539053397605      109.34963728561820
C           -3.86306633565362       55.24788522324223      110.18110136108540
C           -3.58470503880366       53.84612485835475      109.98134761534078
C           -4.13596551224074       53.18937120508797      111.04318391140012
C           -4.77565729061837       54.20313573326362      111.85510587364942
C           -5.46515688454734       53.97834312184898      113.03021830914713
H           -5.48031092724426       52.96475683054627      113.40189603607877
C           -7.42896203864804       58.12444795533322      114.50447050340826
H           -7.93194376585224       58.45990334315633      115.40091700349278
C           -5.85245202699672       60.23876502006866      110.48542942124230
H           -5.95675822351398       61.21304482658234      110.03254612952553
C           -3.44509902025735       56.25432383368575      109.32861028792468
H           -2.75727707519734       55.95988891929967      108.55035218609954
C           -8.10839941809758       56.01984064694175      116.74249842806080
H           -7.52149152852410       56.50125138541914      117.52591127868993
H           -8.45260814319045       55.05929710014497      117.11970716386141
H           -8.98255449843218       56.63964018582290      116.54919925217703
C           -6.58315726948693       53.36207068440819      115.80530939764547
H           -5.59400444545047       52.93464076092033      115.64737104461628
H           -7.32068484484103       52.64649367480782      115.44166975481023
H           -6.72522365429992       53.49949026501774      116.87310482125272
C           -8.67443926684964       60.90732052455302      114.59694358232045
H           -8.33701176655804       60.55748595609547      115.57094634061787
H           -9.69738286914841       60.55245578672930      114.45164368231123
H           -8.68655186000137       61.99142188717666      114.62031504738724
C           -7.71354923813467       62.27085084382830      111.75822465447095
H           -7.14598586374783       62.51076776257511      110.86530885341922
C           -8.60463892004334       63.15801611466559      112.15840076078807
H           -9.23884497829745       63.01269796925884      113.01300616404275
H           -8.74364652588766       64.08494364785686      111.62822108860215
C           -4.16097134889893       61.05226242177098      108.04430058532985
H           -4.30477427156185       61.83060081282692      108.79180280322855
H           -4.94004615890187       61.16629983452397      107.28827787338746
H           -3.19685228982064       61.21528671466916      107.57094411975594
C           -2.49619195656602       58.32504112766749      107.34295490732610
H           -1.88203391544383       57.44786384559857      107.52002409149323
C           -2.27450937396338       59.01168660296932      106.23667138342093
H           -2.84515755879253       59.88008569112359      105.96296197428939
H           -1.50292032530662       58.71516763434659      105.54590885393637
C           -2.96259543048503       53.27544293283906      108.75044574710306
H           -1.91822217449468       53.56800206145427      108.64866978164227
H           -3.49563714913521       53.63577150925783      107.86889509113855
H           -3.02188270878707       52.19127977639376      108.76291919014619
C           -4.11868908009053       51.71883093332618      111.30344263187941
H           -3.22574761645520       51.26759475058009      110.87547765180022
H           -4.98861081310748       51.23727879654340      110.85410881784529
H           -4.12800589147211       51.50371063696114      112.36941861335916
O           -4.12553071777751       57.56938601975408      113.08121902280736
H           -4.34745723942642       57.21752530520535      113.94833063443160
H           -3.31139684672579       58.05187815533988      112.95072555001163
C           -8.98040795680548       55.19081069306640      107.87751968029188
H           -9.33461087102926       55.84303687247235      107.08267018743828
H           -9.81962972014733       54.59582968479005      108.23593806294328
H           -8.22882724417015       54.52072964611966      107.47388431325331
N           -9.03531950174622       56.89871590343034      109.73406989071556
H           -9.96583133673790       57.24443864804644      109.57112443314095
C           -8.37727468804429       55.95734028718894      108.99379779065478
C           -8.20783569505462       57.30898314705646      110.71762099634887
H           -8.45677022192692       58.03692523589675      111.45509198462024
N           -7.05735721727697       56.68468361223139      110.63362303706863
C           -7.13960221426674       55.84599623645395      109.57222177823097
H           -6.30975590100277       55.23360225989947      109.28947862545444
78
 energy: -116.039595314427 gnorm: 0.026683563826 xtb: 6.7.1 (edcfbbe)
Fe          -5.57855388400075       57.13628179894085      111.80442537373899
N           -6.35249024227766       56.21327781110809      113.41980972824709
N           -6.47138744719221       58.85573025595210      112.37878508762998
N           -4.73874854003105       58.08438026545748      110.25221505496458
N           -4.64205143397774       55.43788850056757      111.28466543702621
C           -6.13552841761090       54.92032635953235      113.78011173791097
C           -6.71351479830641       54.65401358980902      115.07786584284136
C           -7.30640079644813       55.80998235779561      115.48574233132382
C           -7.05538136305719       56.78529413071499      114.44436709189047
C           -7.21677780740619       59.05737640948176      113.50327965627349
C           -7.78894164477825       60.38192432231020      113.50549870221121
C           -7.39585697975198       60.98135226121709      112.33138059329478
C           -6.53745360074060       60.00716184546372      111.66171119569080
C           -4.97911560543461       59.36652126585402      109.85973952061119
C           -4.19408295103295       59.70142340112076      108.69475568757545
C           -3.46936059567268       58.57670513848824      108.37842172165077
C           -3.85289123013251       57.57242089186495      109.36200289148357
C           -3.88856769869527       55.25252492692602      110.16908095662808
C           -3.59875728820277       53.84508325855391      109.97798020606891
C           -4.14693311184736       53.19184155983914      111.03604132368714
C           -4.79545094225452       54.20690732851308      111.84770853557623
C           -5.46613920037416       53.96975955296235      113.02862686634964
H           -5.47030290528853       52.95803697526483      113.40560496322631
C           -7.43792504780015       58.11293690375537      114.49431621518730
H           -7.96849453905410       58.43676465258152      115.37911894834916
C           -5.84628571068326       60.24256004340873      110.49055876947968
H           -5.96048109449155       61.21134821940463      110.02904407723008
C           -3.45247613597641       56.25099141353792      109.31871420005297
H           -2.77909917872968       55.94893451736427      108.53036141980580
C           -8.09749575662992       56.02771467787296      116.73176126344352
H           -7.50627694342471       56.51352854553693      117.50814113610213
H           -8.44560169255211       55.07363713132043      117.12009278334739
H           -8.96840899517404       56.64842181345129      116.53500433760803
C           -6.59577483228786       53.36008303147359      115.80545761959375
H           -5.60587600776424       52.93398840955408      115.65731563146437
H           -7.32935182325242       52.63991453682797      115.44429422739704
H           -6.74660826726019       53.49972700312224      116.87155910727849
C           -8.66175823690029       60.90139399336871      114.59529064737177
H           -8.32734277455857       60.54133832045288      115.56547686959446
H           -9.69043302024647       60.56491640875598      114.45074757691729
H           -8.65742275000039       61.98467911981184      114.62616157430053
C           -7.70956440114285       62.27375934795632      111.76393115534067
H           -7.13424982839267       62.51707032524409      110.87918255428171
C           -8.61750643814860       63.15951423468296      112.15815443383623
H           -9.27290541778502       63.01352320357523      112.99579136904308
H           -8.74721560120149       64.08942628107025      111.63184644413981
C           -4.15590619178686       61.04495941890823      108.05500603574903
H           -4.30723739629761       61.82817525687548      108.79464511146237
H           -4.93290319985913       61.14619088873476      107.29614035011919
H           -3.19343011882081       61.21143656523187      107.58089436808255
C           -2.49157182034510       58.33053082272075      107.34371083985984
H           -1.87059544346188       57.46116121983463      107.52278346676840
C           -2.28033211552274       59.02201070141972      106.23041950899852
H           -2.86725123100456       59.87400353048265      105.94205517868131
H           -1.50512340445230       58.73420835411120      105.54073044043299
C           -2.95227859177040       53.27606986801067      108.76111467914450
H           -1.90987384778109       53.57609419352225      108.67212834092936
H           -3.47687724438774       53.62914980813245      107.87311225187867
H           -3.00231562942595       52.19174077373761      108.77201332248038
C           -4.12505577313671       51.72772580190257      111.30635240538886
H           -3.23329138688528       51.27553307086918      110.87885949234975
H           -4.99518183722814       51.24138057200283      110.86394972982811
H           -4.13234794819396       51.52040554095674      112.37253021529119
O           -4.06424799291801       57.58457679725220      113.09042935689750
H           -4.25613285291168       57.26152441695137      113.97873362969275
H           -3.24955172891010       58.07705978538984      112.96735605502293
C           -8.98114241163291       55.18978372761537      107.86806837390162
H           -9.33410625171656       55.85200600674951      107.08123973687519
H           -9.82437509052571       54.59582379485740      108.21740631426994
H           -8.23523181608694       54.51993931752867      107.45604936665366
N           -9.06283103821541       56.87648742330531      109.72466900230670
H           -9.99573641705531       57.21305796279302      109.55071547031083
C           -8.38094154889284       55.94071021911282      108.99345424831399
C           -8.24412537087360       57.30212103400174      110.71453161580179
H           -8.51018266086965       58.03120314783629      111.44482771553641
N           -7.07963272178244       56.69655201877768      110.65033024246046
C           -7.15197913054194       55.84677757612862      109.58590717677870
H           -6.31896680873472       55.23721404237756      109.30769309066581
78
 energy: -116.044722518547 gnorm: 0.025400839415 xtb: 6.7.1 (edcfbbe)
Fe          -5.57502958156125       57.13839722851606      111.80832829123848
N           -6.32978638753254       56.21130824849297      113.41637359983999
N           -6.46192014835886       58.84821326544200      112.37673260904913
N           -4.73077273559399       58.08266683700706      110.26686863938104
N           -4.67061620133064       55.44084792133999      111.26970004970754
C           -6.12588828359486       54.91712459346364      113.77596697980013
C           -6.71473986049126       54.64933883891824      115.07277708196601
C           -7.30418050657668       55.80507122308603      115.47354730866790
C           -7.04437218770301       56.78071224134945      114.43032520842181
C           -7.21515903268227       59.04529104714581      113.49485432643036
C           -7.78988819762485       60.36953951170015      113.49883795346871
C           -7.39494175024100       60.97153024638522      112.33140487762053
C           -6.52962777686865       60.00183671293668      111.66398586438225
C           -4.96328541496874       59.36674367970168      109.88058442954561
C           -4.17840181861290       59.70122819389767      108.71239282760318
C           -3.46530711124878       58.57767798004951      108.38894962676457
C           -3.85174458992756       57.56988082372768      109.36949412584001
C           -3.91556564935586       55.25477562260994      110.15511478285821
C           -3.61477355564385       53.84667917742399      109.97122759946767
C           -4.16024333060643       53.19621732352439      111.02905252070718
C           -4.81519824467106       54.21141415308773      111.83603839142320
C           -5.46641386736051       53.96193051467628      113.02551647841952
H           -5.45956065146926       52.95152341750976      113.40581389219149
C           -7.45009778985071       58.09881121899781      114.48024632523158
H           -8.01477622537484       58.40867654606288      115.34927569256423
C           -5.83721776382274       60.24564770618235      110.49547838697347
H           -5.96141263801549       61.20846517103293      110.02503458082612
C           -3.46751782876321       56.24478390904246      109.30386458181300
H           -2.80910127572835       55.93784530293280      108.50538348876186
C           -8.08835127856578       56.04161900532387      116.71951420809154
H           -7.48585237693191       56.53560806071557      117.48338650112483
H           -8.43858658893784       55.09401898369288      117.12471237676232
H           -8.95665781505507       56.66526552971329      116.51799721556135
C           -6.61006623139911       53.35520160995790      115.80402443396024
H           -5.61790851058356       52.92697573745068      115.67199359806354
H           -7.34145912803845       52.63365473360803      115.43825643853019
H           -6.77714580138788       53.50102356236484      116.86897658273304
C           -8.64918604072055       60.89697798176041      114.59477895107561
H           -8.31699528786015       60.52125996705418      115.56100431314502
H           -9.68687107582078       60.58571832132248      114.45081885332279
H           -8.61730105321709       61.98226041604042      114.62640958379292
C           -7.70666361723654       62.26980797432785      111.77106414988307
H           -7.11250086693046       62.53581968599221      110.90668648601785
C           -8.63060598829386       63.14818501535841      112.15932316786207
H           -9.30271531398496       62.99307996411164      112.98256529604879
H           -8.74689396683143       64.08347005724016      111.63611420719651
C           -4.14792811150404       61.04179922639967      108.06743947046394
H           -4.31081464676585       61.82997871578589      108.80018735095385
H           -4.92336643360768       61.12457174855856      107.30324059255901
H           -3.18352748163437       61.21005394289581      107.59451651994661
C           -2.48903916872640       58.33684939187365      107.34869320600455
H           -1.84571105594833       57.48543663660936      107.53080988917687
C           -2.29735335137182       59.02722738506762      106.22552704563236
H           -2.89943357115954       59.86711054940673      105.93246615232427
H           -1.51118807102229       58.75229867680086      105.54091399332661
C           -2.93773906814957       53.27879003619825      108.77020510922389
H           -1.89549532259722       53.59065310956845      108.70686491358046
H           -3.44706006030178       53.62088822637190      107.86806174537602
H           -2.97371351493437       52.19242980821247      108.78693813531400
C           -4.13459912175665       51.73443707403261      111.31281413560706
H           -3.24369797286433       51.28034009026426      110.88324869731507
H           -5.00797132838679       51.24317790091202      110.87981124972411
H           -4.13500294467213       51.53912861640368      112.38205260509829
O           -3.97407164236379       57.58576369024862      113.09849861288123
H           -4.13906999331851       57.32573867306071      114.01612606982583
H           -3.17583025721280       58.11240160433190      112.99489247918488
C           -8.98418294085305       55.18555614448681      107.85505170462677