87
 energy: -124.489734064293 gnorm: 0.266966836022 xtb: 6.7.1 (edcfbbe)
Fe          23.92700000000000       10.78800000000000        6.44400000000000
N           23.46100000000000       10.32100000000000        4.56000000000000
N           25.73900000000000       10.32300000000000        6.18200000000000
N           24.32400000000000       11.38500000000000        8.40900000000000
N           21.91200000000000       11.35000000000000        6.75400000000000
C           22.22900000000000       10.35900000000000        3.95000000000000
C           22.35900000000000        9.88800000000000        2.62200000000000
C           23.66100000000000        9.53700000000000        2.43700000000000
C           24.34000000000000        9.79100000000000        3.64700000000000
C           26.28500000000000        9.83300000000000        5.04700000000000
C           27.72100000000000        9.58100000000000        5.22600000000000
C           28.00700000000000        9.92900000000000        6.48500000000000
C           26.74400000000000       10.39600000000000        7.08100000000000
C           25.55099999999999       11.26700000000000        9.00400000000000
C           25.44400000000000       11.70700000000000       10.36000000000000
C           24.10900000000000       12.06900000000000       10.55400000000000
C           23.42900000000000       11.84100000000000        9.34100000000000
C           21.41100000000000       11.83300000000000        7.90500000000000
C           19.95799999999999       12.10500000000000        7.70300000000000
C           19.70100000000000       11.73100000000000        6.40300000000000
C           20.93300000000000       11.26800000000000        5.84100000000000
C           21.04700000000000       10.81300000000000        4.51600000000000
H           20.15100000000000       10.81700000000000        3.89500000000000
C           25.67599999999999        9.56900000000000        3.83300000000000
H           26.27199999999999        9.17700000000000        3.01000000000000
C           26.70100000000000       10.83300000000000        8.40300000000000
H           27.62300000000000       10.82900000000000        8.98400000000000
C           22.07200000000000       12.07900000000000        9.11400000000000
H           21.48500000000000       12.48600000000000        9.93800000000000
C           21.24900000000000        9.78000000000000        1.60100000000000
H           20.94300000000000       10.84700000000000        1.65600000000000
H           20.56800000000000        9.17700000000000        2.23900000000000
H           21.18200000000000        9.44000000000000        0.54600000000000
C           24.27700000000000        8.97000000000000        1.17600000000000
H           24.69200000000000        8.05500000000000        1.64900000000000
H           25.08300000000000        9.73100000000000        1.09400000000000
H           23.89500000000000        8.71200000000000        0.16500000000000
C           18.36900000000000       11.79600000000000        5.68700000000000
H           17.88400000000000       11.56000000000000        4.71600000000000
H           18.25000000000000       12.88100000000000        5.89500000000000
H           17.88100000000000       11.20000000000000        6.48800000000000
C           19.04400000000000       12.66200000000000        8.74500000000000
H           19.19400000000000       13.13400000000000        9.66300000000000
C           17.72500000000000       12.82000000000000        8.62700000000000
H           17.19300000000000       12.43200000000000        7.74600000000000
H           17.15300000000000       13.34000000000000        9.40900000000000
C           23.47200000000000       12.59600000000000       11.82100000000000
H           22.67700000000000       11.82200000000000       11.88200000000000
H           23.04700000000000       13.51300000000000       11.36000000000000
H           23.83599999999999       12.82000000000000       12.84700000000000
C           26.58100000000000       11.77800000000000       11.31900000000000
H           27.44400000000000       11.42100000000000       10.77100000000000
C           26.52100000000000       12.18900000000000       12.58800000000000
H           25.56800000000000       12.52900000000000       13.02000000000000
H           27.42299999999999       12.19200000000000       13.21700000000000
C           29.37900000000000        9.83800000000000        7.11000000000000
H           29.86000000000000        9.99200000000000        8.09900000000000
H           29.87600000000000       10.49200000000000        6.36200000000000
H           29.49100000000000        8.77200000000000        6.81700000000000
C           28.71000000000000        9.04000000000000        4.22100000000000
H           29.02700000000000        8.22000000000000        4.90000000000000
H           29.40000000000000        9.90100000000000        4.34900000000000
H           28.74900000000000        8.67500000000000        3.17200000000000
C           26.76200000000000       15.96200000000000        5.18800000000000
H           26.46800000000000       16.89500000000000        5.71400000000000
H           26.95000000000000       16.19600000000000        4.11800000000000
H           27.68500000000000       15.55900000000000        5.65700000000000
N           24.39300000000000       15.19300000000000        4.81000000000000
H           24.11000000000000       16.03300000000000        4.34700000000000
C           25.66000000000000       14.95800000000000        5.29900000000000
C           23.62900000000000       14.14300000000000        5.05000000000000
H           22.58100000000000       14.06200000000000        4.76300000000000
N           24.35300000000000       13.24000000000000        5.68400000000000
C           25.62700000000000       13.72400000000000        5.85400000000000
H           26.39000000000000       13.14200000000000        6.35500000000000
C           22.34700000000000        6.89200000000000        4.98900000000000
H           22.60800000000000        6.09800000000000        4.25700000000000
H           22.10200000000000        7.82100000000000        4.43200000000000
H           21.46099999999999        6.56000000000000        5.57100000000000
C           23.51900000000000        7.14400000000000        5.92700000000000
H           24.38800000000000        7.46600000000000        5.31500000000000
H           23.77700000000000        6.18500000000000        6.42300000000000
S           23.19300000000000        8.39100000000000        7.19000000000000
C           24.48300000000000        8.01600000000000        8.37600000000000
H           25.49100000000000        8.11600000000000        7.92000000000000
H           24.37400000000000        6.97400000000000        8.74400000000000
H           24.42600000000000        8.71400000000000        9.23900000000000
87
 energy: -124.596408625340 gnorm: 0.146814075613 xtb: 6.7.1 (edcfbbe)
Fe          23.90608616539042       10.83135868544661        6.43997104094955
N           23.45916042935328       10.31431102939951        4.56062939650120
N           25.73351677893804       10.32291839627445        6.18313645525723
N           24.32042312750601       11.36928182050252        8.40282463959487
N           21.92925671871746       11.34838598033143        6.76009641274879
C           22.23417232532960       10.36372751445515        3.94728503860376
C           22.35587440629884        9.88160087062719        2.60168981807042
C           23.64462233667456        9.53272125536116        2.41436849895616
C           24.32781299670102        9.79761602768534        3.63868475217649
C           26.28514923736891        9.83302808915704        5.04311718701526
C           27.69868500694415        9.58564306240179        5.22239660673790
C           27.98849136925755        9.93808222772359        6.49746981022288
C           26.74509652042406       10.39918048360857        7.08648187314751
C           25.54024995867691       11.27689201893684        9.00851999251993
C           25.44637701264556       11.71569115924993       10.37656412258577
C           24.12949325713722       12.06804199497665       10.56790175662150
C           23.43775358933389       11.84171745680116        9.33488553494788
C           21.40399956049339       11.83856665820751        7.90629798802848
C           19.95886689509054       12.10254929611930        7.70905935195659
C           19.71152182450083       11.72671646844801        6.40316848604768
C           20.94432360265326       11.26715698519686        5.84054644930281
C           21.05840609821378       10.81575755956107        4.52434568799405
H           20.16207692208313       10.81777374484758        3.91016313004236
C           25.67093636105246        9.57317789651206        3.83708471256015
H           26.26773313749135        9.18036336183649        3.02234902572846
C           26.69417795929940       10.83536795269917        8.39791847692600
H           27.61553306104079       10.82464452456863        8.96922736257543
C           22.07671812338027       12.07657905038108        9.10322627175613
H           21.49177693447829       12.47847781131654        9.92532951274938
C           21.21476444999769        9.80036704826777        1.63363612238742
H           20.88855475542099       10.84712503122994        1.63341510866754
H           20.51582403943965        9.18399830722354        2.21111789689083
H           21.23743120882924        9.44128214064998        0.59280586030633
C           24.31748971484498        8.96699388864178        1.19821147170758
H           24.72999094043314        8.03892884880292        1.61193551978431
H           25.11696635463232        9.70478524381048        1.05723882108487
H           23.86186863979097        8.74074337070324        0.22202734298261
C           18.36114152480537       11.81345809723791        5.73459202616942
H           17.97258925187577       11.54870140078649        4.73500114022096
H           18.18409108886568       12.88609750007898        5.89219657754317
H           17.81588191313023       11.21294485738499        6.47307575142169
C           19.04378993023386       12.66989769574386        8.71775640578965
H           19.27536503375033       13.11910852054951        9.66368340642793
C           17.71608196049996       12.81585497549049        8.60802103871920
H           17.16802000557346       12.44218308561348        7.75673691351418
H           17.15367752865826       13.32032432652764        9.39102979282645
C           23.42891364473609       12.59470875515321       11.79148971664623
H           22.63920087172463       11.84369791189013       11.91133755031895
H           23.00926972289769       13.52646263451592       11.39449927958853
H           23.85070937017029       12.79976098656988       12.78583388422824
C           26.57083538078399       11.77500783982433       11.31188212480671
H           27.45842110456904       11.42697719441084       10.80008763463444
C           26.52745551473011       12.18319962506303       12.57726903661604
H           25.60100709001771       12.52170434630323       13.02010782880008
H           27.41458414887956       12.19117335301449       13.20447824777509
C           29.37806613278493        9.82423292638797        7.07080905143650
H           29.78101903277924       10.00498633682260        8.08009007137358
H           29.92665586446978       10.47166354097054        6.37143003506414
H           29.55939822144963        8.76843267562517        6.82314840883329
C           28.72999187282585        9.04766869863670        4.26290151829459
H           29.08563179998958        8.20446933804124        4.87233476773068
H           29.45260467919400        9.87339609633061        4.32440599018861
H           28.68232377022300        8.70636778089009        3.21546389060314
C           26.75824908642410       15.96323745289541        5.18803924908614
H           26.47673102882917       16.88903946871630        5.70651138274389
H           26.95368935866627       16.19707790671488        4.13296068954983
H           27.67018230455974       15.56610121936891        5.64709095772387
N           24.40102017773377       15.19701082360387        4.80995616458583
H           24.11237940786364       16.04019725304226        4.34441513671843
C           25.66127888526879       14.96153993166730        5.29988826426571
C           23.63973944915884       14.12227583241651        5.06152512802776
H           22.60066549034204       14.04853006247294        4.77534088122113
N           24.34690739890437       13.20611034287427        5.68992336938267
C           25.61030496793825       13.71583327203606        5.85127996742319
H           26.37439596914896       13.14475044013997        6.34894891054074
C           22.34623815321923        6.89609137681983        4.99292188661589
H           22.60348326141433        6.11175995765659        4.26858602750629
H           22.09928656447329        7.80907613694467        4.44077272592719
H           21.46863968060274        6.56831362779309        5.56218563849167
C           23.52952560721180        7.13815178084742        5.91955007334602
H           24.39158381167443        7.46472505261186        5.32213687414577
H           23.78067774358984        6.19552870788065        6.42720047797550
S           23.19020633247939        8.39710033821065        7.19171433552337
C           24.49260424956001        8.00727470161305        8.37662072822620
H           25.48374410056883        8.11706066170613        7.92093144184922
H           24.37255601725287        6.98051514498440        8.74340566971432
H           24.42000267363329        8.70466474515667        9.22030439370171
87
 energy: -124.657488781849 gnorm: 0.064823534310 xtb: 6.7.1 (edcfbbe)
Fe          23.88125068520897       10.86136404208130        6.44549631831754
N           23.45817759011114       10.31697724059228        4.55831917246887
N           25.73812275303452       10.32623767473045        6.18054335546367
N           24.31672959827562       11.36608065554517        8.39423737279502
N           21.94716297481353       11.35751819779312        6.76311394755209
C           22.23919521881344       10.37025577376211        3.94565937194309
C           22.34898385762409        9.87783094862021        2.58242973101110
C           23.63224588790814        9.52913528759225        2.39271095874603
C           24.31698781290571        9.80613530253903        3.63314481082654
C           26.29575722421613        9.83302881190298        5.03731988710102
C           27.69062245522069        9.58616619616543        5.21751698175377
C           27.98357796133078        9.94289378352696        6.50667049421993
C           26.75676108608657       10.40180356377729        7.08865266857277
C           25.52788318217904       11.28592331494274        9.00917089777049
C           25.44107237613696       11.72578841137950       10.38868227365880
C           24.13410527917805       12.07062577376406       10.57917279223263
C           23.44064432413044       11.84239110868119        9.32601958883292
C           21.39657348479420       11.84845940841099        7.90759494346377
C           19.96154038954007       12.10386094973461        7.71505628101105
C           19.71605070732505       11.72591683046186        6.40412952864497
C           20.95064617649119       11.27094793907127        5.84101021070489
C           21.06896202540720       10.81807950008101        4.53224787243838
H           20.17240671082711       10.81771476575032        3.92476351035636
C           25.66249211329460        9.57755120914251        3.84064714036265
H           26.25945937746559        9.18334021601842        3.03208203302454
C           26.68496745547410       10.83848934454272        8.39542182014415
H           27.60515717538176       10.82331743586366        8.96128569119541
C           22.08171921858591       12.07343665636488        9.09362689999677
H           21.50010875872714       12.47055667947654        9.91560113160106
C           21.18022886466581        9.82028006404261        1.66618148233456
H           20.82898661814556       10.84775319055620        1.61154380226019
H           20.45876718277444        9.19262403213502        2.18425655742552
H           21.30107621041983        9.44128770435836        0.64062808304304
C           24.35525994841370        8.96481745855245        1.22027071653990
H           24.76913534503841        8.02332645953980        1.57575336116574
H           25.15265794699290        9.67826016407919        1.02183138174818
H           23.81960447942019        8.77176076630761        0.28122967302880
C           18.35726739648600       11.82837339557924        5.78059781763602
H           18.08386186714947       11.53236639336055        4.74982018432298
H           18.12067055037703       12.88845309266940        5.88996993026058
H           17.75406631072807       11.22137215552377        6.45478635893706
C           19.04134423417002       12.67040827622368        8.69193343797706
H           19.37195522723897       13.09409042168495        9.64537165978376
C           17.71298268628560       12.81203212215244        8.59464457136297
H           17.14180862090143       12.45471229068301        7.76814635458006
H           17.16173144913784       13.30475893869248        9.38138309901597
C           23.38433626660188       12.59404145613283       11.76157154721974
H           22.59679195860881       11.86480267996063       11.93510408132598
H           22.96608426402548       13.53949774172733       11.42362448061340
H           23.87886227119393       12.77534850742287       12.72186115808310
C           26.55960132794488       11.77236413134684       11.29898827563448
H           27.47693680944644       11.43186885404573       10.83190580692524
C           26.53583696449878       12.17800269562304       12.56600173199482
H           25.62874212016181       12.51680555754517       13.02542819041299
H           27.41367575102293       12.18730368555754       13.19042368948584
C           29.37916160641898        9.81139700855786        7.03361031814357
H           29.68486901239339       10.02375427475187        8.06936342371406
H           29.97338700997836       10.45412150593051        6.37992962629106
H           29.62074095438874        8.76567539018482        6.83037830264485
C           28.75125467191467        9.05482161704051        4.30318763222753
H           29.13888097926905        8.19012981296936        4.84677777937040
H           29.50143544437933        9.84841242788290        4.30212755665686
H           28.59584792210137        8.74169534659826        3.25773204636478
C           26.75447822765901       15.95997259704345        5.19029826037367
H           26.48045404468814       16.88278336578857        5.70197195672543
H           26.95345976917821       16.19474690518484        4.14411664590962
H           27.66093238137656       15.56847651214489        5.64160579522946
N           24.40342072441249       15.19372871413319        4.81200964330813
H           24.10884421726419       16.03726341182980        4.34511684924493
C           25.66083999820545       14.95884039817448        5.30329028631984
C           23.64835703369852       14.10013006495084        5.07098505791345
H           22.61549308043435       14.03305789148093        4.78583718821118
N           24.34449586896811       13.18064738030658        5.69567811373347
C           25.59860955618953       13.70579769733099        5.84939846713051
H           26.36714573195743       13.14646978675755        6.34485954426164
C           22.34668903706900        6.89847957312903        4.99397140671581
H           22.60062010110608        6.12039425609698        4.27451017963821
H           22.09884152631069        7.80443239657288        4.44990681093463
H           21.47727941000171        6.57627495466080        5.56101688303233
C           23.53766825555816        7.13216912032607        5.91090705607820
H           24.39503042063048        7.46700816948443        5.32877273901825
H           23.78401171466044        6.20603841691641        6.43292586513181
S           23.18363606739604        8.39951958061994        7.19629886822718
C           24.50222469787085        8.00044959380271        8.37973281796160
H           25.47740602379854        8.11749741371125        7.91710704531076
H           24.37049543258912        6.98387185508302        8.74086769402373
H           24.41435254579508        8.69940330273641        9.20712302082488
87
 energy: -124.683738136221 gnorm: 0.047043119983 xtb: 6.7.1 (edcfbbe)
Fe          23.87130052321368       10.89089421357989        6.44670115570954
N           23.45628981764594       10.32872572958262        4.55739218081465
N           25.74945647844768       10.33263216718230        6.17709505143609
N           24.31232200851251       11.36967742218207        8.38514789068821
N           21.95599288286328       11.37195458173036        6.76167547971165
C           22.24058179435413       10.38025684984871        3.94811316223818
C           22.34007728589028        9.88240038212972        2.57946560343760
C           23.62857429263750        9.53158978135552        2.38822691607178
C           24.31209708534998        9.81687772362299        3.63528941349294
C           26.30797197455541        9.83535106725405        5.03397963085623
C           27.69964329356526        9.58433772783111        5.21718497605375
C           27.99207211477633        9.94195917052429        6.50828064883532
C           26.76922590775030       10.40511364562510        7.08812558508989
C           25.51932937291663       11.29367704540597        9.00410259370625
C           25.42940705907503       11.73389039825232       10.38958616852407
C           24.11761338947564       12.07524062896040       10.57650374614020
C           23.43650675700345       11.84399832888346        9.31365143354780
C           21.39552336776432       11.85884015523231        7.90577778343107
C           19.96868323101445       12.10452435262563        7.71672343982519
C           19.71440825237461       11.72767543734619        6.40958652222630
C           20.95094649320087       11.28053185516377        5.84325074911304
C           21.07381464003813       10.82473499030675        4.53759528831919
H           20.17617910742664       10.81696088823936        3.93597900330407
C           25.65527152431444        9.58451965270421        3.84362276272142
H           26.24908844941601        9.18439220757283        3.03680605190560
C           26.67734261123628       10.84525601950489        8.39497820712024
H           27.59466210501678       10.82565274214565        8.96333646715794
C           22.08421197789590       12.07518580869671        9.08659930600024
H           21.50562488539919       12.46374818851043        9.91255590544218
C           21.15869522894273        9.83176256115056        1.68441613972613
H           20.76954326958395       10.84549676470995        1.58715889063275
H           20.40393685517441        9.20166068236253        2.15567207960007
H           21.35472868816746        9.44016156794229        0.67688894943264
C           24.37054199204858        8.96518190457658        1.23267302706198
H           24.80031396433424        8.01069716110872        1.53891101631492
H           25.18127986099530        9.65215742964956        0.98584062408161
H           23.77504405094075        8.79728758326226        0.32719423636445
C           18.36167196182349       11.83123495045307        5.79913612251071
H           18.19618503721222       11.51539644086111        4.75025205351595
H           18.06025112564040       12.88088897825388        5.88207416963524
H           17.70076403594658       11.22033990706419        6.42118002467691
C           19.05080208310322       12.66828634848840        8.67989231120072
H           19.45603480999274       13.07312292515576        9.61865696408375
C           17.72296668825345       12.81423688343695        8.59679690727098
H           17.12037376798631       12.46928579570378        7.78353040176295
H           17.17919172802121       13.29440672743821        9.39398709603078
C           23.34799151820511       12.59485174916772       11.73990993851269
H           22.54920821088215       11.88652404386270       11.95524252457453
H           22.91683035270259       13.55254056903880       11.44963532995126
H           23.90205561227444       12.75372666845678       12.66873346878397
C           26.55315661095317       11.77118107666667       11.29103323978052
H           27.48743805193161       11.43515717929201       10.85408772162135
C           26.54769499670490       12.17265580132314       12.56042926382946
H           25.65273921280405       12.51671928117731       13.04085105923256
H           27.43089396914253       12.17811814593179       13.17380926013275
C           29.38132215325021        9.80697591278521        7.02206920014906
H           29.59283937618215       10.04741181054016        8.07584167566849
H           30.02043984412241       10.44057071966069        6.39985543092115
H           29.68035917399359        8.76737940642444        6.85101696225748
C           28.76171409092520        9.05727603407245        4.31945525777614
H           29.18635143679372        8.17549029664581        4.81093044376930
H           29.54516019758085        9.82030399329397        4.27214474881085
H           28.50699975379691        8.77195695173112        3.28470217496578
C           26.74828500074586       15.95129595500463        5.19398679570840
H           26.47776587834252       16.87650640595771        5.70258088882193
H           26.94921524406467       16.18790719758841        4.14900858388168
H           27.65680514857342       15.56358276386806        5.64212200287808
N           24.39900731687141       15.17778642138587        4.81776110066402
H           24.09997783607109       16.02013580754395        4.35065254776426
C           25.65766055989521       14.94661564303857        5.30945214225166
C           23.65100968235798       14.07599034352489        5.07922482135538
H           22.61981817702033       14.00807934315288        4.79588690519493
N           24.34821812109490       13.15990253220317        5.70149886699251
C           25.59727434437380       13.69197553343976        5.85294399682719
H           26.37106293670112       13.14083135634047        6.34631136639057
C           22.35101173330456        6.90233778604039        4.99688367885170
H           22.59856207223398        6.12572768399549        4.27543414285070
H           22.09941119177164        7.80923861601352        4.45735874864825
H           21.48389158496325        6.58331054353056        5.56792327834223
C           23.54434974382495        7.13332643290701        5.90817024278111
H           24.40330676613891        7.47484877927622        5.33489835418609
H           23.79029448216778        6.21555431392123        6.44155408526664
S           23.17797533347339        8.40423624940080        7.19807524943448
C           24.50511016647651        7.99706545638736        8.37855773830910
H           25.47437696924735        8.11820727156514        7.90790746015592
H           24.36786724144495        6.98175031164196        8.73750811196520
H           24.41000407529707        8.69874383858327        9.19995705291766
87
 energy: -124.695084931270 gnorm: 0.038566762873 xtb: 6.7.1 (edcfbbe)
Fe          23.87122368429632       10.91041789024904        6.44581624778050
N           23.45572917348529       10.34989726518834        4.55714656240546
N           25.76644153038744       10.34294002048390        6.17365394210703
N           24.30990873365081       11.38218322991499        8.37201758195095
N           21.95931558443695       11.39373183533183        6.75233603377334
C           22.24156471270244       10.39653291480242        3.94945447464572
C           22.33314008697134        9.89291829571356        2.58341375339653
C           23.62794535483300        9.54020572342622        2.39222405797551
C           24.31138154040989        9.83329367412434        3.63935597301594
C           26.32179202120086        9.84196854965277        5.03133597593874
C           27.71614608883690        9.58371231748287        5.21906280165752
C           28.00681216973199        9.94133929243377        6.50831260290565
C           26.78266431256434       10.41248135610791        7.08786950500978
C           25.51341842713594       11.30524824051139        8.99698629485609
C           25.41352952695288       11.74299345812861       10.38595573308513
C           24.09550621023870       12.08172853149079       10.56584941281627
C           23.43181159478010       11.85094410385335        9.29796341565689
C           21.39728528833787       11.87286999782872        7.89754386923643
C           19.97454075077971       12.10866561666140        7.71272991592620
C           19.70842652812016       11.73246615791085        6.41193778928561
C           20.94824095292222       11.29585252009551        5.84076336687374
C           21.07456447919717       10.83635783698808        4.53805584990173
H           20.17559236428801       10.81568336962159        3.94090209199399
C           25.65303888949109        9.59528927792156        3.84651481616545
H           26.23874346490467        9.18535126318837        3.03860255404390
C           26.67345476841015       10.85565641092531        8.39514436898262
H           27.58497340157830       10.83182284265092        8.97228540611674
C           22.08358009639193       12.08209125455553        9.07802519263095
H           21.50761282183188       12.45757838218786        9.91069939706383
C           21.14948134575211        9.83597948687389        1.68869529644801
H           20.73171677547145       10.83819911902721        1.56131356865980