72
 energy: -105.708412043453 gnorm: 0.322956069135 xtb: 6.7.1 (edcfbbe)
Fe          -6.28600000000000       24.86600000000000        7.48200000000000
N           -4.57600000000000       23.86000000000000        7.26600000000000
N           -6.67100000000000       24.59400000000000        5.52500000000000
N           -8.03400000000000       25.66300000000000        7.76000000000000
N           -6.01400000000000       24.88600000000000        9.48600000000000
C           -3.63300000000000       23.46000000000000        8.23400000000000
C           -2.44100000000000       22.87400000000000        7.63900000000000
C           -2.63700000000000       22.95799999999999        6.30700000000000
C           -3.94100000000000       23.53400000000000        6.08200000000000
C           -5.83100000000000       24.04400000000000        4.60000000000000
C           -6.55800000000000       23.95100000000000        3.34800000000000
C           -7.78600000000000       24.43300000000000        3.57000000000000
C           -7.87600000000000       24.85400000000000        4.95100000000000
C           -8.99800000000000       25.94500000000000        6.78000000000000
C          -10.06400000000000       26.78900000000000        7.29900000000000
C           -9.76300000000000       27.04799999999999        8.58800000000000
C           -8.50000000000000       26.37400000000000        8.83800000000000
C           -6.77000000000000       25.56900000000000       10.38000000000000
C           -6.17400000000000       25.41500000000000       11.68100000000000
C           -5.05500000000000       24.68800000000000       11.56000000000000
C           -4.95000000000000       24.36700000000000       10.14900000000000
C           -3.90600000000000       23.63600000000000        9.60700000000000
H           -3.22900000000000       23.14900000000000       10.30900000000000
C           -4.52400000000000       23.71200000000000        4.83700000000000
H           -3.88300000000000       23.57500000000000        3.96600000000000
C           -8.96200000000000       25.43200000000000        5.52500000000000
H           -9.87500000000000       25.48800000000000        4.93200000000000
C           -7.88100000000000       26.27500000000000       10.06600000000000
H           -8.34200000000000       26.83200000000000       10.88100000000000
C           -1.24400000000000       22.30000000000000        8.37200000000000
H           -1.81600000000000       21.57400000000000        8.98900000000000
H           -1.03000000000000       23.20300000000000        8.98300000000000
H           -0.29300000000000       21.82600000000000        8.04800000000000
C           -1.63500000000000       22.47000000000000        5.27900000000000
H           -1.55700000000000       23.44000000000000        4.74200000000000
H           -2.35700000000000       21.81800000000000        4.74200000000000
H           -0.63400000000000       21.99000000000000        5.30100000000000
C           -4.04100000000000       24.22800000000000       12.61500000000000
H           -3.91700000000000       25.28500000000000       12.93400000000000
H           -3.07800000000000       23.69300000000000       12.75900000000000
H           -4.83400000000000       23.75600000000000       13.23400000000000
C           -6.78300000000000       26.08000000000000       12.92600000000000
H           -7.77100000000000       26.05000000000000       13.30700000000000
C           -6.06300000000000       26.32900000000000       14.01600000000000
H           -4.96900000000000       26.42200000000000       13.95300000000000
H           -6.55300000000000       26.44500000000000       14.99400000000000
C          -10.50800000000000       27.94400000000000        9.61300000000000
H           -9.67700000000000       28.64500000000000        9.84300000000000
H          -10.56200000000000       27.17400000000000       10.41200000000000
H          -11.46000000000000       28.51500000000000        9.57100000000000
C          -11.23900000000000       27.26599999999999        6.44800000000000
H          -11.08400000000000       26.86500000000000        5.45300000000000
C          -12.25600000000000       28.00800000000000        6.88200000000000
H          -12.29000000000000       28.35200000000000        7.92600000000000
H          -13.07500000000000       28.28600000000000        6.20200000000000
C           -8.99400000000000       24.57600000000000        2.63200000000000
H           -8.39300000000000       25.25700000000000        1.99200000000000
H          -10.06600000000000       24.85300000000000        2.54600000000000
H           -8.84300000000000       23.53100000000000        2.28700000000000
C           -5.92400000000000       23.41500000000000        2.04800000000000
H           -6.10500000000000       24.39500000000000        1.55800000000000
H           -6.78200000000000       22.74200000000000        1.83600000000000
H           -4.98800000000000       22.97600000000000        1.64100000000000
O           -7.32800000000000       22.80000000000000        7.76900000000000
H           -7.58600000000000       22.76000000000000        8.69000000000000
H           -7.46400000000000       22.16900000000000        7.15700000000000
C           -3.77800000000000       26.96400000000000        6.78600000000000
H           -3.23600000000000       27.85700000000000        7.16500000000000
H           -3.72400000000000       26.97500000000000        5.67700000000000
H           -3.25700000000000       26.06000000000000        7.16600000000000
S           -5.48200000000000       26.96400000000000        7.32100000000000
H           -5.20300000000000       26.72600000000000        8.59400000000000
72
 energy: -105.835258131503 gnorm: 0.178162748961 xtb: 6.7.1 (edcfbbe)
Fe          -6.30799631528508       24.82049317517203        7.49049287360141
N           -4.54352477653616       23.86130490940099        7.26569512089928
N           -6.66357326489575       24.59745606866788        5.55180486917993
N           -8.05277888582731       25.69834467534363        7.74941499997346
N           -6.00536723139549       24.89291716381753        9.47197115797288
C           -3.64183661729302       23.45568012704586        8.24217743589161
C           -2.44952629028385       22.87437577519317        7.64446640510513
C           -2.62831322704244       22.95470398442584        6.31270553846886
C           -3.93047669001545       23.54111335532455        6.08006754881724
C           -5.83149642792264       24.06443109421473        4.61684318032031
C           -6.54144701922960       23.94971256401005        3.36767443039912
C           -7.79331161545538       24.42539148697756        3.59231386844494
C           -7.85907548264667       24.84192809339517        4.96183703927318
C           -9.01027417166619       25.94516074207620        6.78485067643306
C          -10.07864151168169       26.79221378621964        7.28760155278266
C           -9.76862433934332       27.06249941549218        8.58041310827878
C           -8.51433569840189       26.37383579057586        8.84615819927124
C           -6.76252727744291       25.56699937528366       10.38169745718096
C           -6.17382453933040       25.43165260284730       11.69287915338966
C           -5.04693683707086       24.67589595296293       11.54122139696027
C           -4.95322310621736       24.35401143816268       10.13855793150502
C           -3.90383675072415       23.62786286513230        9.59898411446781
H           -3.22270197824932       23.16193828181527       10.30381968079566
C           -4.51631477021999       23.71551745029402        4.83741222518010
H           -3.89062356622417       23.55550382337433        3.96502622256419
C           -8.96401275889520       25.42671960887051        5.52276200046079
H           -9.86211105312101       25.49207302951800        4.91925806411589
C           -7.89237409316360       26.28388180201325       10.07797624278022
H           -8.34641265619033       26.83314598310731       10.89174052668960
C           -1.27784157141977       22.31496605824161        8.41034660827952
H           -1.78817845919840       21.56504524624329        9.02588447205689
H           -1.00481861220719       23.18497437147670        9.01903739045112
H           -0.35306639229088       21.85741551497920        8.01267980982028
C           -1.67258095933645       22.48973170122169        5.24435831585427
H           -1.53936610901208       23.42820721096255        4.69321381637458
H           -2.33444480428239       21.81174162673202        4.69346374919007
H           -0.68294014974833       22.01154724321358        5.35328766924455
C           -4.07947716555728       24.25753979076446       12.63711254907940
H           -3.88691818492835       25.27459016654268       12.99303917649147
H           -3.12557464954219       23.70134932792003       12.68621164367222
H           -4.80987549653728       23.75913288314847       13.28760027886690
C           -6.76191222176063       26.02321497423424       12.94173978642767
H           -7.79763243835563       26.03525155787310       13.24431388103476
C           -6.04502303188852       26.32576942379625       14.02350561276281
H           -4.96880248927302       26.42523713662245       13.97589510747681
H           -6.53521915653963       26.47140126243458       14.98301879952056
C          -10.46494159681906       27.92285375663429        9.63197533917990
H           -9.68552747614715       28.65468166239421        9.87450075090922
H          -10.56919796065900       27.19729287373455       10.44664662920713
H          -11.41706951126769       28.47182542042771        9.53489987201179
C          -11.22529004823158       27.25352973291589        6.45961372015323
H          -11.10275346748651       26.87883851575138        5.45189507861050
C          -12.24420211019883       27.99858666406538        6.87748194642027
H          -12.29726904299504       28.34652875082641        7.90179371467892
H          -13.05718629290371       28.28116998654317        6.20983540797365
C           -8.94089839477181       24.55573670193620        2.59415249176860
H           -8.41916296014587       25.25179047665312        1.92548482802178
H          -10.00921195552281       24.84791696459341        2.61611687836014
H           -8.87203356023730       23.52828184074819        2.21806383364180
C           -5.97786351217403       23.44042812703019        2.04007816223416
H           -6.10770713276088       24.38250806141495        1.49249572926614
H           -6.77864977026832       22.73658943590225        1.77977893695983
H           -5.01332796378957       22.99900946080106        1.72313307355951
O           -7.31819765012161       22.82480038048097        7.78083226893452
H           -7.59096199219202       22.75065546258532        8.69195128340375
H           -7.47074521742157       22.15038974229596        7.14757630867182
C           -3.75909158755141       26.96660305160518        6.78467082904846
H           -3.24038008384926       27.85528368194428        7.16319568895570
H           -3.72653669544490       26.97350634748458        5.68944541872769
H           -3.25827429365110       26.06659941394053        7.15828401512454
S           -5.47753368155477       26.95745879116569        7.31927980348457
H           -5.19581519818495       26.74825477898376        8.60128630288532
72
 energy: -105.910725611864 gnorm: 0.076456643821 xtb: 6.7.1 (edcfbbe)
Fe          -6.31679146414754       24.79994465048193        7.49407892371708
N           -4.51971652906828       23.85330427486299        7.26402394606226
N           -6.66137460019425       24.59280548687073        5.57719219650251
N           -8.08022263267692       25.71792887852855        7.74321088722083
N           -6.00517351499899       24.89230381348566        9.46287826296401
C           -3.65289706849975       23.45289319966880        8.24387848693524
C           -2.45432390076125       22.87153403609934        7.64870759969309
C           -2.61550685319184       22.95131689826542        6.31503010302360
C           -3.92179165739390       23.54786844461452        6.07935248897758
C           -5.83347791986853       24.07902449471813        4.62935921387966
C           -6.52579913940085       23.95356946834486        3.37784622502606
C           -7.80156950935136       24.42001828625144        3.60461076539476
C           -7.84983346138078       24.82575572468204        4.96933551487818
C           -9.01898949363063       25.94611949067120        6.79132104823391
C          -10.09268295894168       26.79494077512867        7.28537727521489
C           -9.77256502485672       27.07242841610712        8.58386001779042
C           -8.52324802351293       26.37256232077154        8.85390273629398
C           -6.75894581001237       25.56201001623097       10.38396428827738
C           -6.17752300035050       25.44251521646623       11.70568493278971
C           -5.04278238967660       24.66376899298461       11.52940928992096
C           -4.95836802448949       24.34298802945737       10.13657141663124
C           -3.89964960701844       23.62359250008089        9.59158206389201
H           -3.21348574919160       23.17700792847707       10.29777633832847
C           -4.50970725997704       23.71545467003537        4.83800897487060
H           -3.89998848603696       23.53201639677591        3.96464730270089
C           -8.96595106981541       25.42501493628771        5.51980271239410
H           -9.84926050709131       25.49996191077967        4.90618293401827
C           -7.89930498181745       26.29284950111130       10.08816838074948
H           -8.34949992835034       26.83217579213427       10.90339688758895
C           -1.31154237654884       22.32922665170971        8.44850617325812
H           -1.76119993980495       21.55660781726962        9.06740295713553
H           -0.98173921572920       23.16788367028639        9.05783116250478
H           -0.41875305928233       21.89113796153172        7.96795942768936
C           -1.70908298890199       22.51009886232780        5.21245313032868
H           -1.52430916900571       23.41699658415431        4.64276704142990
H           -2.31316714900379       21.80797378815571        4.64391221028225
H           -0.73389567406369       22.03542777009061        5.41521603598327
C           -4.12111881820393       24.28745851411270       12.65593919803314
H           -3.85533912601566       25.26338054283294       13.04886510881944
H           -3.18016608508366       23.70715137578879       12.59350521922089
H           -4.78804838275731       23.76516733546118       13.34173907355738
C           -6.73547301008246       25.97596568926370       12.95025123780542
H           -7.81049321592016       26.01050783999440       13.16284399304043
C           -6.03068844058706       26.32168454975583       14.02675022142401
H           -4.96661527393326       26.42670342284153       14.00025774444611
H           -6.52500705276209       26.49908619208632       14.96910511488333
C          -10.42371856832448       27.90295636552539        9.64883150419616
H           -9.68930953736201       28.66240571215060        9.90953930391832
H          -10.57249810530772       27.21802694383751       10.48084424319136
H          -11.37681321187580       28.42587747395761        9.48711247447295
C          -11.20587611969447       27.24185145788163        6.47400179621911
H          -11.12739978286124       26.89362649689404        5.45003503574585
C          -12.23317461387576       27.98930109285365        6.87235228436883
H          -12.30779797169907       28.34305042458766        7.88313355659739
H          -13.03906572389930       28.27420674787069        6.21172297553084
C           -8.88149701688597       24.53283942799419        2.56033120579288
H           -8.44064160313485       25.24259802457804        1.86169256785370
H           -9.94026645317302       24.84206534529246        2.70518007620837
H           -8.89376139063613       23.52599170740588        2.14806759043240
C           -6.03136817738516       23.46936691451324        2.03800132132156
H           -6.11398677413898       24.37127646607010        1.43108820830844
H           -6.77810239555525       22.73707475210356        1.73157404733879
H           -5.03775117753109       23.02682415584330        1.82392543004588
O           -7.30178071451459       22.85282529863441        7.78458201741936
H           -7.59936836701570       22.72999323255260        8.68622508825987
H           -7.47580282916340       22.14872017498883        7.15830082363504
C           -3.73836160116925       26.96328352768493        6.78176792179365
H           -3.24313160185788       27.85175783921808        7.16180559685815
H           -3.72771396569066       26.97171602276788        5.69680479488831
H           -3.25571817370809       26.06693350720330        7.15273490545112
S           -5.47409992071280       26.97023590545976        7.31706812432267
H           -5.19292465943751       26.77406186409305        8.60581084201695
72
 energy: -105.943820305178 gnorm: 0.055008775367 xtb: 6.7.1 (edcfbbe)
Fe          -6.32288661952756       24.78819182604698        7.49577582527341
N           -4.51528486857664       23.85562433777067        7.26090220799018
N           -6.66383767531528       24.58613777886986        5.58647224739074
N           -8.09434830737534       25.72186466278883        7.74403832297801
N           -6.00681216040093       24.89019674964372        9.46254574813980
C           -3.66551411555460       23.45188919344935        8.24124931034927
C           -2.46214640893166       22.87018639566124        7.65335572342013
C           -2.61325978783085       22.95392745485258        6.31395727048123
C           -3.92087132287221       23.55521072695836        6.07968227518956
C           -5.83222409529004       24.08609819512791        4.63267335800496
C           -6.51949155191062       23.96389980538792        3.37808069556927
C           -7.80080774320095       24.41812992101655        3.60274177243486
C           -7.85293229707969       24.81387094924441        4.97254984421862
C           -9.02524768643210       25.94322369074724        6.79671115906775
C          -10.09682711506180       26.79639404386915        7.29423928094199
C           -9.76692226309376       27.07242934036266        8.59595562345563
C           -8.52350653104830       26.36910782713833        8.86037111069418
C           -6.75923556525648       25.55881880089520       10.38435354237773
C           -6.17804093718184       25.44493675095969       11.70557908919401
C           -5.04224609531014       24.66397887361688       11.53019532379941
C           -4.96124983711508       24.33760094162020       10.14241521383286
C           -3.90043222058112       23.62167749241660        9.58986528948081
H           -3.19846120364765       23.19622334777010       10.29210596912026
C           -4.50782659062987       23.71486163728564        4.83888349477253
H           -3.91135207874068       23.49955950038801        3.96415102541345
C           -8.96833393878402       25.42261821321546        5.52057400551208
H           -9.83812812700414       25.51594548053526        4.89185094802393
C           -7.90095868446765       26.29448578290987       10.09468678454400
H           -8.35091557626257       26.82871116151956       10.91462952068964
C           -1.33746106933836       22.33869008725352        8.47356001460509
H           -1.73577183769772       21.54899280154011        9.11103844717886
H           -0.96290941172808       23.15067270965285        9.09785029506641
H           -0.48017132029913       21.92059054477361        7.92128675491049
C           -1.73240219470575       22.52453599767321        5.19568946419861
H           -1.51003018547222       23.40477022720997        4.59265835036733
H           -2.29171460314218       21.80682516496392        4.59550282771430
H           -0.77590180069687       22.05697008992690        5.47480804872849
C           -4.14472780082275       24.29948714681248       12.66240110982300
H           -3.81316431734625       25.24388123632090       13.09581745521573
H           -3.22938439663186       23.69740045572471       12.49665371087340
H           -4.76338646844560       23.77530206049720       13.39527529886194
C           -6.72388095514429       25.94636094335646       12.94949636332835
H           -7.81189637250930       25.97145653484065       13.09245496149982
C           -6.03176861213838       26.31429434587775       14.02769586280344
H           -4.96603381122609       26.42750569551776       14.02513177272954
H           -6.53210170124484       26.54011504051773       14.95693681631042
C          -10.39552906280336       27.89100788942789        9.66726893048069
H           -9.68878861848841       28.67065808485155        9.95127773482974
H          -10.57306456596372       27.23758923207980       10.52185436102886
H          -11.34545942877372       28.38723382430284        9.43947319872174
C          -11.20023029804651       27.23613332678281        6.48210662816657
H          -11.15015721600921       26.90642531692124        5.44933216150820
C          -12.23250256465940       27.98421173620960        6.86647022328986
H          -12.32513782958048       28.34371007227657        7.87342527129261
H          -13.02677767543903       28.26910353200217        6.19816556508946
C           -8.84021712093451       24.51686227284295        2.54106527888350
H           -8.46065538877417       25.22768485413013        1.80178609925726
H           -9.87485413864728       24.83542846948384        2.78716064162100
H           -8.91092648621372       23.52866818091618        2.07982953106634
C           -6.06086008862997       23.49246952675377        2.04034606373778
H           -6.11940924599264       24.35850856253171        1.37330417007372
H           -6.77402056974086       22.74236987202636        1.69015732262035
H           -5.05109744814346       23.05580885696708        1.92185510135692
O           -7.28843322037530       22.86337408108981        7.79209208701635
H           -7.61336303854272       22.70164463550963        8.68219020387955
H           -7.48244156922349       22.15158835247444        7.17471762016506
C           -3.72197311937702       26.96454285146511        6.77986848650331
H           -3.23569082866829       27.85543260796017        7.16149737248713
H           -3.72455838428999       26.97031063988189        5.69631774750003
H           -3.24715911057880       26.06529093086405        7.14941551200998
S           -5.46687447420265       26.97541651563428        7.31677193710557
H           -5.18601024482802       26.81987381008615        8.61440121373319
72
 energy: -105.957064940610 gnorm: 0.042555835159 xtb: 6.7.1 (edcfbbe)
Fe          -6.32532629556477       24.78342724030308        7.49742382545428
N           -4.52503381105093       23.86162785186395        7.25897981519945
N           -6.67189671912334       24.57743196506155        5.58555664265942
N           -8.09867782342327       25.71433610798607        7.74797536797771
N           -6.00505260189609       24.88459619745365        9.46716091707541
C           -3.67839643624034       23.45596273110105        8.23823693407363
C           -2.47567549176038       22.87235562402013        7.65745742259775
C           -2.62194308091989       22.95975500837766        6.31186172529306
C           -3.92850911808747       23.56025168074824        6.08070830797060
C           -5.83395177299834       24.08770077509575        4.63010296552250
C           -6.51944458246180       23.97825435799363        3.37063689121023
C           -7.79842184111717       24.42046069177232        3.59132079014112
C           -7.86213488755322       24.80853716738912        4.97000100736166
C           -9.03085086306275       25.93953510065234        6.80194488838483
C          -10.09751473222033       26.79512336945995        7.31005563855490
C           -9.75701161748145       27.06594328425356        8.61274396951553
C           -8.52040250256217       26.35874736583189        8.86721622357534
C           -6.75839375402700       25.55228972960197       10.38629230837012
C           -6.17427263063542       25.43973679429504       11.70354851957016
C           -5.03976127798280       24.66594388781719       11.53956058166131
C           -4.95796467851205       24.33585758824941       10.15055992543434
C           -3.89983259632234       23.62615854636121        9.58961493266567
H           -3.17766618318621       23.21863053301369       10.28185752891309
C           -4.51412476047126       23.70991905933840        4.83893713771996
H           -3.92765588504500       23.45966227337786        3.96539338896202
C           -8.97082534420751       25.42499017813588        5.52142675600494
H           -9.82890083479011       25.54283793769007        4.87868008246960
C           -7.89919212265353       26.28702957266909       10.10142934744824
H           -8.34915284958132       26.82020936078479       10.92429455086993
C           -1.35747452225840       22.34449068203714        8.48476909086552
H           -1.71960642003309       21.54558163855539        9.13632656788154
H           -0.95358818392905       23.13662839850924        9.12024706911507
H           -0.53333199251571       21.94293994366824        7.88560809817686
C           -1.74499646283098       22.53427313334924        5.19049763043453
H           -1.49830192112663       23.39427888383019        4.56279430726561
H           -2.27146648243978       21.80680496697890        4.56687421930186
H           -0.80783555985299       22.07702526713737        5.52316681181138
C           -4.14547342117147       24.29411895944354       12.66343346846300
H           -3.75414552113247       25.21222183759332       13.11464961964658
H           -3.26978960670799       23.67152176877918       12.41894457254512
H           -4.73346808702444       23.78161334363048       13.43095868978436
C           -6.72719859752976       25.92834591044316       12.94561586455836
H           -7.81761303799159       25.93484845457486       13.03358635873373
C           -6.05058427257403       26.32116777486469       14.02566225788319
H           -4.98131938812444       26.42751789612294       14.04935080279315
H           -6.55751387305974       26.58214599071730       14.94179423612663
C          -10.37736023997372       27.88456608609565        9.68727907537009
H           -9.68636701382969       28.67371623230521        9.98792660150803
H          -10.57356129945268       27.25365335967210       10.55689494319712
H          -11.31716019964270       28.35991835418716        9.41107560800669
C          -11.20052996476041       27.23508571340270        6.49216075766936
H          -11.16072033826808       26.91348962676189        5.45825104686430
C          -12.23813694859518       27.98314302321124        6.86080510512022
H          -12.35588781248405       28.34731229150059        7.86445031681985
H          -13.01722788593899       28.26279541324264        6.17370591187895
C           -8.82105824722411       24.50902725366188        2.52213868259728
H           -8.47888160627375       25.21642162949116        1.75939781676585
H           -9.82403465126491       24.82715194806300        2.83667954927338
H           -8.92504458754426       23.53470193892650        2.03653194209359
C           -6.06663029926808       23.51014991458688        2.03816826362475
H           -6.11122170397990       24.34940872727717        1.33445113740985
H           -6.75764305370984       22.74800882962800        1.66549027898429
H           -5.05443382899258       23.08663162746738        1.99405572953844
O           -7.27315110286518       22.85573272088289        7.80876071628823
H           -7.63290980078286       22.67218690936943        8.68302168424063
H           -7.49579178458092       22.15355840231489        7.19143758537231
C           -3.70634006777443       26.96584375816933        6.77841762328198
H           -3.22080255253746       27.85855164638934        7.15696760152585
H           -3.71496663436556       26.96835857335621        5.69467148154961
H           -3.23072031846819       26.06572456208374        7.14712420641651
S           -5.45449427785498       26.98026330809418        7.31627910057353
H           -5.17222933432668       26.89676131892517        8.62559917598654
72
 energy: -105.963022085678 gnorm: 0.029332386438 xtb: 6.7.1 (edcfbbe)
Fe          -6.32682886162684       24.77945221125524        7.50071083864311
N           -4.54020080923281       23.86964592520710        7.25873250346927
N           -6.68261574549464       24.57112081786457        5.57897419609316
N           -8.09843759402207       25.70075493809937        7.75229141482168
N           -5.99749570157027       24.88128495499329        9.47358691711519
C           -3.68909045017736       23.46542982685379        8.23600150182860
C           -2.49140767070204       22.87919995131867        7.65929334098634
C           -2.63809487801506       22.96520478665294        6.30991789646575
C           -3.94287436776223       23.56074268449871        6.08161597846839
C           -5.84071918271806       24.08594511746839        4.62432800145975
C           -6.52262961448125       23.99371023227292        3.35864914688299
C           -7.79750674537108       24.42851628164567        3.57500125228077
C           -7.87135198613793       24.81154007208923        4.96162273810140
C           -9.03382090293275       25.93739424034555        6.80643773026632
C          -10.09615688706799       26.79177983586310        7.32716428100658
C           -9.74752682949357       27.05503842311715        8.62991428683378
C           -8.51627320241775       26.34372422687735        8.87418211832043
C           -6.75493452916248       25.54388465186073       10.39065926675123
C           -6.17022612124996       25.42971995948085       11.70607176606885