78
 energy: -116.058025591236 gnorm: 0.000084088577 xtb: 6.7.1 (edcfbbe)
Fe          -0.81017575100918        0.90070209878656       15.13858705359698
N           -2.15337299185062        2.25957288691017       15.69913498333081
N           -2.26845006424125       -0.41101148800466       14.76766855968118
N            0.56623860685313       -0.48294213873520       14.63286637160416
N            0.66971594244000        2.19532417919223       15.56158963109383
C           -1.91295700286283        3.52988702988284       16.11386799215140
C           -3.15134409619046        4.21002456906158       16.42890948028760
C           -4.14719213990449        3.31532857689913       16.19567551363293
C           -3.50289387948148        2.10337166373946       15.73567225593515
C           -3.60459157892766       -0.20721918638803       14.91679133396836
C           -4.34995561266904       -1.38057801918202       14.53740703903684
C           -3.42595876631361       -2.31372042799816       14.14969601124858
C           -2.13033702522681       -1.67669946627483       14.29611574644683
C            0.32166672873171       -1.74084233476350       14.16985500964932
C            1.55273200885176       -2.42921382657617       13.88336522878359
C            2.56388570248327       -1.55397460816677       14.18442788458670
C            1.91787253838351       -0.33826305058628       14.63655791480530
C            2.00876095914313        1.97902303057116       15.44519662613257
C            2.75113424256897        3.16616256171856       15.80493351454155
C            1.82684465501320        4.10978185493363       16.13093534110517
C            0.53341775598707        3.48433598091479       15.97311248977404
C           -0.66724443099974        4.11632752040253       16.23332551212977
H           -0.62804271059938        5.14277055468704       16.56427607627179
C           -4.18897175473774        0.96142303244326       15.37488466754465
H           -5.26458182537762        0.97938431837701       15.46420630360554
C           -0.93263159689555       -2.30511228694174       14.01819536341996
H           -0.97529999098345       -3.32409633511889       13.66548831523292
C            2.59959148264250        0.79889324299202       15.03237425984488
H            3.67794784151089        0.77120346634966       15.00039880266654
C           -5.61998999606368        3.47504836077311       16.35932990934553
H           -5.86267485525745        4.46820579520041       16.72915305103762
H           -6.00677265576543        2.74165596792504       17.06685938046655
H           -6.13222568022976        3.32922535882851       15.40760451111513
C           -3.23860167773535        5.61581554689050       16.91594898671230
H           -2.79330917263274        6.30066213138898       16.19382941511422
H           -2.70558318364208        5.72719168534598       17.86038975093774
H           -4.27423390443796        5.90798731980503       17.07150181758918
C           -5.83520594435326       -1.48582208426479       14.51968754713310
H           -6.28604155803174       -0.55011254099522       14.19183425198206
H           -6.21981383230975       -1.71410595450241       15.51488156567914
H           -6.14529928292823       -2.27850940727726       13.84167576750566
C           -3.63427336275503       -3.65781989273769       13.65846697041115
H           -2.92308584946859       -4.00052823431919       12.91547198790519
C           -4.60286158646619       -4.48033774054097       14.04825030368584
H           -5.30646805854570       -4.21283730194824       14.81694825786798
H           -4.70690632495440       -5.46713318556868       13.62826079606186
C            1.65541297032323       -3.79771523074808       13.30642244837164
H            0.87385591216087       -3.96255613380568       12.56631008988226
H            1.55007358496724       -4.55746406487143       14.08281369633734
H            2.62309643607571       -3.92891530482439       12.82641081311083
C            3.99413407200592       -1.73384998141932       14.06890441069406
H            4.55885382401562       -0.84650740279491       13.80643861941282
C            4.64612372234697       -2.87510045192544       14.26638668565701
H            4.14473423982334       -3.77563869104825       14.57527634706724
H            5.71521791980551       -2.94048467400175       14.14981485200152
C            4.23828765298077        3.26403145968355       15.79253117402108
H            4.62592221025736        3.09402850302431       14.78756089695792
H            4.67847383251382        2.51778925869547       16.45451211879018
H            4.56358919034679        4.24769366427134       16.12197514954077
C            2.03095503000315        5.51786278678607       16.57382313523473
H            1.54224257521050        6.20939501550767       15.88726803301995
H            3.08962382100737        5.76277436720414       16.61081169537572
H            1.60802264528621        5.67265377033792       17.56678659654776
O           -0.57514585747008        0.13203860063416       17.28740358134799
H           -0.13471466526828       -0.70912090382724       17.12440628993780
H            0.09511686038986        0.74543220059621       17.60804708567873
C            0.43157252864952        2.61478659749162        9.98114460895481
H            0.21445765330117        3.65083448304716        9.72125591743367
H            0.13015235418001        1.98345029504486        9.14539940489676
H            1.50189027112830        2.50990504956045       10.12805298066039
N           -1.64755211219633        2.24424288117959       11.32706715203645
H           -2.28852078128315        2.51775914238142       10.60043646056055
C           -0.28142312368773        2.22179587409209       11.22279747084397
C           -1.97042968853440        1.83257657091549       12.57392565639903
H           -2.97360501994671        1.75066724938949       12.93912795115000
N           -0.89221559876914        1.55130900670680       13.26480460779769
C            0.16602085578188        1.78873145125790       12.43791566388484
H            1.17131636384976        1.63316538837706       12.76955885371643
