72
 energy: -105.913717845308 gnorm: 0.196770182352 xtb: 6.7.1 (edcfbbe)
Fe          13.85700000000000       -0.52600000000000        9.46900000000000
N           12.07500000000000       -1.43300000000000        9.53200000000000
N           13.75100000000000       -0.16300000000000       11.52000000000000
N           15.58900000000000        0.62700000000000        9.32800000000000
N           13.87200000000000       -0.70000000000000        7.55500000000000
C           11.35700000000000       -1.89800000000000        8.47000000000000
C           10.28500000000000       -2.69000000000000        8.95200000000000
C           10.32600000000000       -2.68100000000000       10.31200000000000
C           11.44000000000000       -1.88000000000000       10.67700000000000
C           12.86700000000000       -0.73500000000000       12.33800000000000
C           13.10700000000000       -0.26000000000000       13.66000000000000
C           14.19300000000000        0.57500000000000       13.61200000000000
C           14.57600000000000        0.64000000000000       12.17800000000000
C           16.19100000000000        1.23800000000000       10.39700000000000
C           17.47700000000000        1.65400000000000       10.01000000000000
C           17.62000000000000        1.32500000000000        8.66600000000000
C           16.42000000000000        0.66200000000000        8.26600000000000
C           14.88400000000000       -0.36900000000000        6.70100000000000
C           14.51100000000000       -0.63900000000000        5.29500000000000
C           13.26600000000000       -1.14400000000000        5.34300000000000
C           12.88200000000000       -1.16700000000000        6.76200000000000
C           11.66600000000000       -1.68100000000000        7.15100000000000
H           10.92600000000000       -1.92300000000000        6.38800000000000
C           11.81900000000000       -1.61400000000000       11.98400000000000
H           11.27600000000000       -2.11300000000000       12.78600000000000
C           15.65900000000000        1.35300000000000       11.67800000000000
H           16.13500000000000        2.06700000000000       12.35000000000000
C           16.12700000000000        0.18900000000000        7.02000000000000
H           16.89000000000000        0.24800000000000        6.24400000000000
C            9.37800000000000       -3.40200000000000       11.23900000000000
H            9.85200000000000       -4.34100000000000       11.59700000000000
H            8.44200000000000       -3.65500000000000       10.69600000000000
H            9.14700000000000       -2.75800000000000       12.11500000000000
C            9.28500000000000       -3.42700000000000        8.09800000000000
H            9.70000000000000       -3.56500000000000        7.07700000000000
H            8.34500000000000       -2.83900000000000        8.02900000000000
H            9.07700000000000       -4.42500000000000        8.54000000000000
C           12.36000000000000       -0.63400000000000       14.92200000000000
H           12.94300000000000       -1.39200000000000       15.48700000000000
H           11.37000000000000       -1.06400000000000       14.65900000000000
H           12.22600000000000        0.26600000000000       15.55900000000000
C           14.69900000000000        1.33100000000000       14.78600000000000
H           14.56600000000000        0.90700000000000       15.79200000000000
C           15.31600000000000        2.51200000000000       14.70100000000000
H           15.47900000000000        2.98800000000000       13.72300000000000
H           15.66900000000000        3.02400000000000       15.60800000000000
C           18.47600000000000        2.36100000000000       10.90200000000000
H           19.22300000000000        1.62800000000000       11.27600000000000
H           17.95000000000000        2.81400000000000       11.76900000000000
H           19.00300000000000        3.14900000000000       10.32400000000000
C           18.79900000000000        1.48100000000000        7.78800000000000
H           18.65700000000000        1.45700000000000        6.69800000000000
C           20.04400000000000        1.65200000000000        8.23100000000000
H           20.25300000000000        1.68500000000000        9.31000000000000
H           20.87800000000000        1.76200000000000        7.52300000000000
C           15.31200000000000       -0.42300000000000        4.03200000000000
H           15.89900000000000       -1.33800000000000        3.80400000000000
H           16.01200000000000        0.42800000000000        4.17200000000000
H           14.62600000000000       -0.21500000000000        3.18300000000000
C           12.45200000000000       -1.56800000000000        4.13900000000000
H           13.11200000000000       -2.08300000000000        3.40800000000000
H           12.00600000000000       -0.67400000000000        3.65400000000000
H           11.65000000000000       -2.26800000000000        4.45600000000000
O           12.73800000000000        1.15400000000000        9.18700000000000
H           11.83100000000000        0.89700000000000        9.35100000000000
H           13.02200000000000        1.96500000000000        8.95800000000000
C           14.18500000000000       -3.94900000000000        9.94800000000000
H           13.98300000000000       -4.26500000000000       10.99400000000000
H           14.68000000000000       -4.79400000000000        9.42400000000000
H           13.21000000000000       -3.74000000000000        9.45900000000000
S           15.23800000000000       -2.47800000000000        9.89700000000000
H           15.07700000000000       -2.26600000000000        8.59900000000000
72
 energy: -105.948708472572 gnorm: 0.073716036945 xtb: 6.7.1 (edcfbbe)
Fe          13.85098430938194       -0.50248874143509        9.46573210628212
N           12.09161368904948       -1.45182304839252        9.54734583229901
N           13.75341824792331       -0.17151456353671       11.49501437515148
N           15.57881846708136        0.59589258941346        9.34484792433432
N           13.88644096859557       -0.71112164682591        7.52768598760498
C           11.36018636296066       -1.90427830303113        8.48894759371222
C           10.26607600647863       -2.69506447576762        8.95621016419826
C           10.32097709676830       -2.69168952629443       10.31791302046539
C           11.45775400877570       -1.89644430467913       10.68112665383905
C           12.86985954439445       -0.73818702997140       12.33845413897526
C           13.12038732694091       -0.26945436859188       13.67421312094193
C           14.17950753487669        0.60079448118639       13.61008427138661
C           14.56899681528017        0.64151409893103       12.18552102946308
C           16.18644670795674        1.21986417697617       10.39367056616671
C           17.48319434043926        1.67018279931788       10.00072491309548
C           17.64094356025774        1.31986726007379        8.67337259820122
C           16.42069034725627        0.65762985861784        8.28583913036130
C           14.89872106542863       -0.37124070418191        6.67974686569554
C           14.51853891798409       -0.64071562883853        5.29435553448468
C           13.26027083040067       -1.13600355281876        5.33659819348505
C           12.87886337197641       -1.16842211285487        6.74137343471773
C           11.66885047340775       -1.67879231838645        7.15918104638260
H           10.93906114695381       -1.94242536302985        6.40492099564009
C           11.83709094796340       -1.60986590917721       11.98073511115750
H           11.27978940750708       -2.08602381085317       12.77756030332176
C           15.65342562039297        1.33749168266793       11.67453778247070
H           16.16344434025977        2.01353885481884       12.34577365437983
C           16.12240665538289        0.18468182025184        7.02324703061019
H           16.87318028864602        0.26587788727478        6.24873975831720
C            9.38425946337307       -3.40056124778225       11.24291590965803
H            9.84067284139494       -4.33059207660920       11.60143426805455
H            8.45764303419054       -3.64910672186683       10.71831665004355
H            9.14632392098898       -2.77405685315395       12.10721615565642
C            9.28285446581664       -3.42533022266951        8.09713282548618
H            9.68339261099093       -3.56855568930321        7.08996872088042
H            8.34886064920312       -2.85768823946021        8.02475133968355
H            9.06902789714329       -4.40860208734404        8.52601063046580
C           12.36645326298273       -0.63929262756438       14.91661580832516
H           12.93167347373024       -1.38506825105668       15.48667880602135
H           11.38685622344368       -1.05856603946962       14.67229746722964
H           12.22306423646551        0.24187726446472       15.54889474754807
C           14.71152068775415        1.33128260647878       14.76183045741548
H           14.55788292285961        0.89096920376302       15.74756855083859
C           15.31885509373549        2.51333469762605       14.70377349769037
H           15.46247331295160        3.02288815808937       13.76187902163459
H           15.66437000185597        3.01604725702972       15.59836684460911
C           18.46682463082613        2.36433865557842       10.89347310066045
H           19.20493231465124        1.64783846476238       11.27488904715690
H           17.96326743231067        2.81398033513814       11.75302150513055
H           18.99400036720477        3.14578415540682       10.33854698957656
C           18.79826139246864        1.49036632463519        7.80325612037261
H           18.63299498047519        1.45197449021912        6.72678144466005
C           20.04595882987520        1.66288522536749        8.23080077104142
H           20.27794531481218        1.67521126759369        9.28530133956722
H           20.86912627258928        1.76374329433077        7.53449890623534
C           15.32024422044878       -0.42026062208144        4.04979691126547
H           15.89888110218805       -1.31938995823058        3.80750313759045
H           16.00951557209946        0.41934250545441        4.16572380587135
H           14.64926775735016       -0.21239167696002        3.21011198974124
C           12.44926943710120       -1.56764392396223        4.15242367034743
H           13.09350174622945       -2.07399610360743        3.42604828909914
H           12.00359644129886       -0.69446860611392        3.66303590391142
H           11.65320153072795       -2.25672785124702        4.44340439844927
O           12.71735341749825        1.17011878995681        9.19116846164219
H           11.80122589980613        0.93809191941120        9.34503422835253
H           13.00410829126469        2.03136304587880        8.94669928472387
C           14.17331536302902       -3.96452009168308        9.93416263805056
H           13.99840889500401       -4.25160980879002       10.97484415442571
H           14.67423174827101       -4.78776104564036        9.41608463732192
H           13.21433674092764       -3.74431525812394        9.45976230563863
S           15.23111223671906       -2.49061068234632        9.89052498791422
H           15.10299556522173       -2.29210207698209        8.58197713287108
72
 energy: -105.960536702507 gnorm: 0.027794060244 xtb: 6.7.1 (edcfbbe)
Fe          13.84834195264220       -0.48067616206946        9.47793383402997
N           12.11039351593063       -1.47182680432559        9.56026229311333
N           13.75118878784658       -0.17012500977498       11.47251485636292
N           15.56966625758518        0.56399882603681        9.36155843365073
N           13.89309363029529       -0.71150562639121        7.51030932731355
C           11.37222263618448       -1.91535066585695        8.50497094711168
C           10.25668460418743       -2.69908111707874        8.96205476090723
C           10.32255954102827       -2.70277532846523       10.32441249124149
C           11.47668024618160       -1.91380911828024       10.68436717850316
C           12.87467739309179       -0.74089266195215       12.33666818387125
C           13.13015879802642       -0.27715710349138       13.67903735221173
C           14.16731852492507        0.61883452635019       13.59979436817067
C           14.55911014575529        0.64698618859192       12.19022490999328
C           16.18035619862025        1.19620655945793       10.39705505380680
C           17.48183868635921        1.67418819422882       10.00084068750849
C           17.64852750281571        1.30853348989506        8.68552460394016
C           16.41747677157861        0.64369864656529        8.30479980969979
C           14.90577723474043       -0.37117855434002        6.66369351792268
C           14.52438377366636       -0.64018917026880        5.29422052574362
C           13.25633678575822       -1.12860325804561        5.33279596486362
C           12.87834428232172       -1.17009327776780        6.72667857121150
C           11.67955144038136       -1.68742576624874        7.17194523335850
H           10.95517242497154       -1.97472435050430        6.42672024615288
C           11.85335143912931       -1.60833613771008       11.97947934004443
H           11.27622196977321       -2.05769425431314       12.77453310459244
C           15.65482279524769        1.31673531184501       11.67816943486102
H           16.20861945483529        1.94486353615392       12.35949510469734
C           16.11720526220034        0.18133178298658        7.03170007651287
H           16.85865482335593        0.29577695901439        6.25632238633925
C            9.39230526542648       -3.40034189127735       11.25371932912374
H            9.83884768525162       -4.32600707889539       11.61600662401054
H            8.46875234507188       -3.64644628448325       10.73850613167857
H            9.15274896943094       -2.77938464034763       12.11166201180157
C            9.27827259907884       -3.42049492065870        8.09953110889463
H            9.67369382027117       -3.56618329605820        7.09975231535415
H            8.34563431890578       -2.86365497623791        8.02230857341773
H            9.05781370499800       -4.39738531804848        8.52158383977766
C           12.37386273511159       -0.64819465011425       14.90976826294014
H           12.92886494832679       -1.38915376929201       15.48468596885504
H           11.40009838994091       -1.06259191773972       14.67083313837634
H           12.22537710443835        0.22463965907795       15.54055019741243
C           14.70923921216299        1.33885313482737       14.73176215561730
H           14.56184804183879        0.86417147563582       15.69676329234317
C           15.30824660814552        2.52608582252189       14.70315477202538
H           15.45208406065310        3.06665471476051       13.78714073475429
H           15.67134582990196        3.00075067949376       15.59719678108936
C           18.45173512336651        2.37102843493272       10.88997712130783
H           19.18599914499796        1.66257577616326       11.27513510862823
H           17.95632006148878        2.82357498159730       11.74291776320046
H           18.98105479241518        3.14637654590402       10.34169501789078
C           18.79049792688950        1.48808379136563        7.81983808571551
H           18.59888411852097        1.45398491473890        6.75353998036870
C           20.04572103131601        1.66008741206037        8.22867888026647
H           20.30533491809959        1.67124786644865        9.26804524757469
H           20.85535477011434        1.77935740677467        7.53169620052779
C           15.33110677664300       -0.41619995352092        4.06269955153006
H           15.90997399631934       -1.30643624749392        3.81677803441490
H           16.01440028405005        0.41805782599226        4.17514247690854
H           14.66914343291838       -0.20640737036973        3.22574062501099
C           12.44512696317989       -1.56414816660852        4.16121649993876
H           13.08129265749866       -2.06773867293441        3.43686297464434
H           11.99362548393976       -0.70245923376641        3.66998525486680
H           11.65345466226689       -2.24703456711215        4.44779791610531
O           12.69667520614109        1.20607216114151        9.19569695278801
H           11.76360134179267        1.01868001489845        9.32550724617593
H           12.97193549508684        2.08498730579911        8.93490749202633
C           14.16366357268234       -3.97913747805283        9.91280087588164
H           14.01395171597115       -4.24419957151310       10.95381135755767
H           14.66445690144717       -4.78964804623092        9.39485311826499
H           13.21173189064204       -3.75030302150583        9.45156634076132
S           15.23399900010329       -2.50405065887965        9.86535785339964
H           15.15718621371809       -2.33737784723450        8.54274418903504
72
 energy: -105.965692374322 gnorm: 0.023507458996 xtb: 6.7.1 (edcfbbe)
Fe          13.84376172270110       -0.46639458704572        9.49204283725039
N           12.12167099664077       -1.48541359895865        9.56927621564299
N           13.74707785609613       -0.16647530241536       11.45926228310671
N           15.56296740529397        0.54401853202140        9.37577525442790
N           13.89279117991866       -0.70789083331383        7.50400824426675
C           11.38487694074087       -1.92800021315493        8.51462851386143
C           10.25817572087007       -2.70550146180286        8.96965468807224
C           10.32753040791613       -2.71258452304711       10.33148462919456
C           11.48677027497615       -1.92567663717339       10.68888963678682
C           12.87584800966281       -0.74063168156090       12.33375113044521
C           13.13186001333131       -0.27817222269009       13.67580908490680
C           14.15980234409265        0.62696247311873       13.58829599967440
C           14.55211714490191        0.64918127520611       12.19047968994362
C           16.17804836560862        1.17470660455216       10.40756174736742
C           17.47884066717498        1.66395534119492       10.01027359720828
C           17.64646733613199        1.29417170986929        8.69968283693327
C           16.41209385510201        0.62858798537791        8.31911799842951
C           14.90481392206678       -0.36715504161352        6.65702737210842
C           14.52627205855877       -0.63566456527196        5.29322341018564
C           13.25539566694928       -1.12511582664720        5.33069993728707
C           12.87964090513545       -1.17339487800612        6.72058028574448
C           11.69168602007129       -1.70428750280477        7.18242354681503
H           10.97059077586124       -2.01597902105761        6.44344336135363
C           11.85783654519727       -1.60822300402695       11.98188602819027
H           11.26866975962739       -2.03983473441469       12.77748384396119
C           15.66613533596711        1.29249441268533       11.68968949606815
H           16.25402361988139        1.87612355741904       12.38543044358202
C           16.11208749921764        0.18399145732643        7.04067993957810
H           16.85041993303861        0.32460409009159        6.26600022302969
C            9.39995219130397       -3.40163270979887       11.26923573676412
H            9.84451210491853       -4.32542118734842       11.63896353344262
H            8.47360372991169       -3.64955228668801       10.75950903364715
H            9.16276787684143       -2.77512223219640       12.12413564040775
C            9.27398371337958       -3.41613346145161        8.10526899442918
H            9.66740718123110       -3.56385787314339        7.10507420852680
H            8.34294459616352       -2.85620988747368        8.02592730097505
H            9.04375092783614       -4.39251129695059        8.52481315127446
C           12.37944324063611       -0.65724350676764       14.90411157304431
H           12.93335857441440       -1.39976638753379       15.47880090013147
H           11.40662698755261       -1.07281832652123       14.66414515056748
H           12.22860371718930        0.21269151039661       15.53874109397241
C           14.71775002919831        1.34011197179834       14.71135319518877
H           14.57489953331020        0.84286368561658       15.66461591979016
C           15.31211136730201        2.53038828860215       14.70384102132802
H           15.41735321524417        3.11933937872248       13.80633585928871
H           15.67287221785996        2.98737383014754       15.60809983783753
C           18.43855120783507        2.37847064422438       10.89242622821317
H           19.17459647676344        1.67791196011340       11.28809927555321
H           17.93912959063315        2.84259296874020       11.73680934784705
H           18.96727413349601        3.14885962233616       10.33600429236841
C           18.77897086584577        1.49156989550971        7.82987825067252
H           18.56803722555991        1.45853445568552        6.76826417798538
C           20.03958436776380        1.67150499411155        8.22012897099344
H           20.32938015072662        1.65481369853635        9.25416055474151
H           20.83858161193084        1.79332913677865        7.51103693172534
C           15.34326241309505       -0.40930658114181        4.06962945453187
H           15.92834373980060       -1.29648060461575        3.82745824377946
H           16.02469719244939        0.42575366218246        4.19057699149061
H           14.68948442499227       -0.19825936890202        3.22705930517726
C           12.43934982027722       -1.56085076222955        4.16417617677524
H           13.07099279334376       -2.06396085215754        3.43600217517766
H           11.98027738052850       -0.70191945219253        3.67446777057682
H           11.64929420399793       -2.24346025792752        4.45698255452927
O           12.67882194828325        1.25522681333703        9.21244051035239
H           11.72778954400016        1.10942011087687        9.29136903358889
H           12.94135778928855        2.13377314237003        8.91744758792510
C           14.15989544685965       -3.98950622218277        9.88434443665514
H           14.02873334356661       -4.23915919354599       10.93101426905551
H           14.65518441054068       -4.80083772680279        9.36511847455319
H           13.20458958140047       -3.75621802956620        9.43422176788594
S           15.23966554040454       -2.51447415721323        9.82251301974883
H           15.22794130959059       -2.40222920959221        8.48483577205707
72
 energy: -105.968714668108 gnorm: 0.027366348052 xtb: 6.7.1 (edcfbbe)
Fe          13.84340730487314       -0.46436057293457        9.50463396189132
N           12.12816086613783       -1.49240095613691        9.57635055074081
N           13.74768156789549       -0.17019574272889       11.45289785108210
N           15.55694242328945        0.53293230588133        9.39158759960511
N           13.88754509480434       -0.69951366230330        7.50033308751821
C           11.39613279225952       -1.93962545856389        8.52083867446261
C           10.26423089333398       -2.71379455050555        8.97748377382184
C           10.33254587266163       -2.72021427316582       10.33824323143022
C           11.49104495402868       -1.93230776482261       10.69382746419529
C           12.87502585472027       -0.74067830646374       12.33153021782330
C           13.12890832500795       -0.27909445616885       13.67153840078320
C           14.15212661633234        0.62961217717051       13.58112698458175
C           14.54926394142035        0.64471959394352       12.19180942658612
C           16.18046685859576        1.15483062804149       10.42435601741575
C           17.47823179807792        1.64714679084523       10.02401816490366
C           17.64118396536670        1.27938001382008        8.71403338412465
C           16.40305152491732        0.61955851464640        8.33158538589594
C           14.89865941988710       -0.35686814122703        6.65410743126002
C           14.52529084936319       -0.62716748090534        5.29116641777603
C           13.25566790376980       -1.12377412178445        5.32781709147665
C           12.88014119354521       -1.17603111195801        6.71657146500754
C           11.70371567162753       -1.72541196427427        7.18977557599559
H           10.98692420271469       -2.06311228945648        6.45622404019909
C           11.85538229065907       -1.60799409084388       11.98568252478298
H           11.26054461564337       -2.02890620709477       12.78172164510416
C           15.68473808237461        1.26364587719588       11.71001562291287
H           16.28648358021569        1.81199328122723       12.41953486727982
C           16.10419427127063        0.19390276748351        7.04969553314079
H           16.84419868411979        0.34876026905515        6.27968491559846
C            9.40772853657664       -3.40137326048156       11.28637341997767
H            9.85439715395105       -4.32135249731688       11.66662333543369
H            8.47771588129992       -3.65569616969676       10.78365774200441
H            9.17394025269568       -2.76447902963049       12.13672729304734
C            9.27001284198256       -3.41246327352002        8.11320548148072
H            9.65992932961529       -3.56428885813417        7.11063408100220
H            8.34441041584822       -2.84069251062551        8.03425059182668
H            9.02637021330168       -4.38779601205228        8.53191332251640
C           12.38109691378524       -0.66614781553080       14.90001854154326
H           12.93841279825890       -1.41186291999832       15.46971778547478
H           11.40821612044208       -1.08417772587636       14.65874333381476
H           12.22957759261540        0.20078074334873       15.54062113021596
C           14.71351628021665        1.34872754349204       14.69855333448333
H           14.60902304048366        0.82429082670583       15.64369017450111
C           15.28695234416045        2.54851255321526       14.70024921810254
H           15.40203880634228        3.14350813700343       13.81304790444028
H           15.68433851700822        2.97423810397778       15.60881662967853
C           18.42950403412123        2.38526379566926       10.89621205235684
H           19.16862314573797        1.69750199905324       11.31138044649875
H           17.92052221997083        2.86802580324824       11.72667524224496
H           18.95616332861012        3.14696375949690       10.32323992383932
C           18.76750913127372        1.48476428664241        7.83713066412179
H           18.53869529981570        1.47570271044970        6.77827477663912
C           20.03326054244526        1.66112820981105        8.20984549684116
H           20.34504434349072        1.65008789215599        9.23821373393750
H           20.81620945602707        1.81956973802695        7.48544214126248
C           15.35617750535359       -0.39939171358272        4.07570617563739
H           15.95044424570848       -1.28446786802845        3.84286242689312
H           16.03496397440236        0.43858616867698        4.20898267056619
H           14.71431723939730       -0.18967297898063        3.22260937049383
C           12.43338436611055       -1.55838110884604        4.16413660329523
H           13.05981208383596       -2.05996543974401        3.42905369218002
H           11.96647332302852       -0.69926576677773        3.67960900647866
H           11.64546243865777       -2.24288695017971        4.46498249219044
O           12.66627226047259        1.31123346510439        9.25404928102107
H           11.69876725269090        1.19657857616537        9.23842537822319
H           12.90827886418505        2.17479193558470        8.88437740993364
C           14.15988032311343       -3.99763936843906        9.85309498984899
H           14.04165512896292       -4.23275299470637       10.90533101056447
H           14.64518978287159       -4.81721161018839        9.33603356634698
H           13.19921745122459       -3.76352203710389        9.41187993170356
S           15.24925897828215       -2.52619166123862        9.77083547386473
H           15.29934482271128       -2.47360774512178        8.42458141607426
72
 energy: -105.970113105068 gnorm: 0.022129025553 xtb: 6.7.1 (edcfbbe)
Fe          13.84219709983894       -0.46460902510414        9.50712282967560
N           12.12909358363592       -1.49333530160935        9.57793288479656
N           13.75293372994156       -0.18058807042871       11.45605828633724
N           15.55779154610476        0.52842513863907        9.40198451681553
N           13.87944999343047       -0.68878594556529        7.49895991518176
C           11.40219037830217       -1.94876776393208        8.52128455393802
C           10.27109646696891       -2.72205229669900        8.98194423511762
C           10.33565444446589       -2.72324450697786       10.34199360705301
C           11.49012406961063       -1.93275891958966       10.69651966233191
C           12.87338834383350       -0.74174125384891       12.33200497590020
C           13.12252821577214       -0.27712815581021       13.66958722511081
C           14.15341224476164        0.62117573213311       13.58192279458141
C           14.55431806495965        0.63236410987617       12.19370495647304
C           16.18931060888915        1.13952596871509       10.43812517521417
C           17.48229136541527        1.63100444073096       10.03420129787485
C           17.63656083559502        1.27362630556427        8.72031668199324
C           16.39818835566757        0.61615088586955        8.33750244383127
C           14.89104945198910       -0.34490303141304        6.65515382331071
C           14.52250632331340       -0.61810866928206        5.28930706208691