69
 energy: -103.647304662649 gnorm: 0.000032744863 xtb: 6.7.1 (edcfbbe)
Fe          -5.79737932247411       56.66456359184849      111.95133349769708
N           -6.51009323968502       55.70886769519147      113.53362220984744
N           -6.78851326097379       58.32122197480712      112.48197182871239
N           -5.05006488361608       57.64001869819081      110.34022209355150
N           -4.80985031581507       55.01528324268763      111.38702227584605
C           -6.25934835341194       54.42627682306768      113.89626724596772
C           -6.94849049331022       54.09578659433899      115.12721483896529
C           -7.62317493567988       55.21462441985376      115.49674486535540
C           -7.33756574366086       56.21221998057612      114.48529177970008
C           -7.60826995576613       58.46536659953261      113.55774042607422
C           -8.17100670061620       59.79064802123830      113.60073547340228
C           -7.66807470664804       60.45878879207451      112.51630761574056
C           -6.81239281183174       59.51288558761468      111.82658973024296
C           -5.27726723666452       58.94124479063910      109.99431020755310
C           -4.56581770156370       59.28121825643758      108.79185060555329
C           -3.90001800609361       58.14721614490784      108.40220385614386
C           -4.21161944309269       57.13849797719442      109.39212353974924
C           -4.01457846562362       54.86265247224610      110.29221485991745
C           -3.47856426820314       53.52088299347466      110.23341631808012
C           -3.96267995775414       52.86897571366229      111.32446190234310
C           -4.79020085285754       53.81947607877776      112.03295633189046
C           -5.46304846012511       53.53448766137249      113.20482252849487
H           -5.35392628722982       52.54154479302333      113.61236160750694
C           -7.85923776012115       57.48857474377244      114.50490541308645
H           -8.51355328850272       57.74610636655797      115.32318036918068
C           -6.09835840419255       59.81670553350200      110.68392842777273
H           -6.19638066646543       60.81520969436156      110.28784607922697
C           -3.73709885653907       55.83989274683767      109.35523345251366
H           -3.09338284442580       55.56839815194022      108.53344232066591
C           -8.49778961079543       55.44538330294883      116.68038761396208
H           -8.55229517277144       54.55401632006882      117.30020400125575
H           -9.50806148393184       55.70575131535837      116.36427103013688
H           -8.11130623157800       56.26338664078207      117.28837289835236
C           -6.88050060095781       52.76655301275076      115.79639580329130
H           -5.85088389542264       52.52299422725669      116.05853175410068
H           -7.25590907740751       51.98527693281342      115.13531799532214
H           -7.47612565921291       52.76075248013399      116.70571575043029
C           -9.15831291978165       60.26855647356497      114.60643619607011
H           -8.65954246458805       60.57060143603591      115.52879891806995
H           -9.86964365523477       59.48107604787726      114.84963943053771
H           -9.70495304305672       61.12402542180471      114.21520010901750
C           -7.92173035057722       61.81350570707153      112.07672253745480
H           -7.93361295537110       61.96400087937746      111.00342744966636
C           -8.12771205456019       62.85501066567642      112.87585402589545
H           -8.08120234630990       62.77256447990221      113.94771832533577
H           -8.32593543748209       63.83742182833809      112.48076878247217
C           -4.53410807748169       60.63257132249509      108.16884721547200
H           -4.51938894668732       61.40920677671948      108.93205615855155
H           -5.41226563922383       60.79301337860601      107.54117687041152
H           -3.64604606140091       60.73612862295238      107.54876743155381
C           -3.02666879501565       57.94397128347480      107.26713748451354
H           -2.20725128553918       57.25234166513404      107.42476039987677
C           -3.16224683957322       58.52250085357940      106.07865277019556
H           -3.98296034513431       59.18003390853980      105.85096550321347
H           -2.46514998543042       58.33515138438187      105.27905884394657
C           -2.57390075173069       53.02398611680117      109.15886630990762
H           -1.64739904411753       53.59844806294819      109.14193468662853
H           -3.04826283768058       53.11888604298559      108.18179074763795
H           -2.32412501734314       51.97813220459303      109.31798504637328
C           -3.73121968568618       51.46538832185789      111.76616732959978
H           -3.26372190573865       51.44784286920826      112.75060454986415
H           -3.08148976395017       50.94225934311019      111.06903645680261
H           -4.67471818470384       50.92309803095597      111.83011585526161
O           -3.98036551830121       57.44967388854752      113.08426518756040
H           -4.25177052792103       58.34855818744703      113.30066268608519
H           -3.32614409643955       57.51204705726207      112.37978724935257
O           -7.50570787060440       55.99671745898523      110.59598717010455
H           -7.46529144601759       56.66188692265310      109.90005641750285
H           -7.15432319230206       55.17864298526957      110.22723330743354
