78
 energy: -116.058077766748 gnorm: 0.000035669493 xtb: 6.7.1 (edcfbbe)
Fe          14.70261011507621       27.94865196801679        4.77472967490758
N           14.89668805396048       29.27142105483903        6.25154155762317
N           13.80732775908538       26.66888753484942        6.01383428227027
N           14.57458306851146       26.59977418285178        3.28257455029803
N           15.65379833473274       29.21230793946659        3.52791916619684
C           15.48370171877190       30.49508500203038        6.19050839205203
C           15.42584672291520       31.15711848090626        7.47634479055311
C           14.78358450361773       30.30234793719735        8.31510484374135
C           14.46031075483944       29.12976065086354        7.53015917547755
C           13.50354945525560       26.88164133177906        7.32097847981106
C           12.84683900712270       25.73178989151969        7.89082660167397
C           12.76444636303107       24.80091837883967        6.89060870845603
C           13.36408766804453       25.41911615263449        5.72193177985623
C           14.02125520461477       25.35640427387115        3.35533665857189
C           14.08849732211634       24.69050809550512        2.08120890681317
C           14.69463776343576       25.56758352515486        1.21969695846578
C           14.97695836978779       26.75910854944131        1.99450721339722
C           15.90941322191357       29.02037990488795        2.20473035378757
C           16.56291486255189       30.17815218017499        1.63813395368147
C           16.69248244964450       31.07833177424341        2.65056076512839
C           16.11566842208019       30.45853984919997        3.82116483986529
C           16.05142625440786       31.06134195019067        5.06391393082126
H           16.47253876843285       32.05058426571175        5.15978318455846
C           13.80221252714164       28.02790815782224        8.03595754359586
H           13.51694938835491       28.05486606040554        9.07649081037376
C           13.47091054479120       24.79409466785237        4.49473262071937
H           13.09331839937903       23.78622600669628        4.41418783823369
C           15.60594960091639       27.88022826517840        1.48507625887346
H           15.88158993437033       27.86706410237027        0.44192175126878
C           14.45102081657069       30.46612074528269        9.75837199563165
H           14.79274993350411       31.42989725880693       10.12793304652617
H           14.92599334387085       29.68368085877554       10.35026734801863
H           13.37382733766890       30.40097002627627        9.91394473357266
C           15.98658780175153       32.51050490267519        7.75181687107341
H           15.51254717534352       33.26103325849319        7.11827036578699
H           17.05817890258036       32.52851201799781        7.55234730907160
H           15.82763071399648       32.79047484566983        8.79019816994087
C           12.31866511369846       25.64737726093575        9.28012042456068
H           11.88817976254017       26.59946695311651        9.58693321194970
H           13.11371937933179       25.39396685685160        9.98314436038087
H           11.54891466360332       24.88062241144207        9.34120455188132
C           12.18377850674704       23.47678258758824        6.91825790436681
H           11.71678641548634       23.14927798689081        5.99624600870987
C           12.18921519637280       22.65380585922352        7.96196890124381
H           12.67982132087802       22.90443114026955        8.88604739384941
H           11.72364610192857       21.68316071161595        7.91646340757447
C           13.52852375361297       23.34264398323537        1.78715615500791
H           12.58559263925059       23.19387245084758        2.31132872852191
H           14.21678011338819       22.55687604009625        2.10324335118234
H           13.35314678487718       23.23646819485546        0.71856174035994
C           14.99528408709248       25.40767155407511       -0.18582859861171
H           14.92823800095537       26.30885633586742       -0.78446566745713
C           15.34708909034368       24.26891977083807       -0.77396120772117
H           15.47600771127273       23.35451332409826       -0.22155168292153
H           15.54473523398465       24.21874791999899       -1.83191459053230
C           16.98381024406664       30.29324623394543        0.21318582135567
H           16.12295361150511       30.19869330539913       -0.44920822595149
H           17.69396839524445       29.50642628520905       -0.04254822765375
H           17.45612103997330       31.25440187048653        0.02544146760370
C           17.29580836299794       32.44116900686350        2.63186620864597
H           16.55867387681752       33.19247105294372        2.91690864194231
H           17.66750278047548       32.68614120601966        1.63999304330831
H           18.12742743189241       32.50181988710309        3.33429976341964
O           16.76490415130549       27.04899122402209        5.21704246647349
H           16.73511241879267       26.26263113928277        4.66126131816075
H           17.32079440628078       27.69378736285559        4.76606846138604
C            9.42824748835808       28.73921961395422        3.15276341725719
H            9.26630935551693       29.15473521119779        2.15819479724159
H            8.73943365042823       29.22710838914157        3.84227657475497
H            9.20183395091477       27.67799137046038        3.12728692022206
N           11.39778746663529       30.17957300088102        3.71627676363752
H           10.93502996360486       31.05649826352689        3.54180415303777
C           10.83507554666421       28.93712339084707        3.58424186139772
C           12.67723161535930       30.00940330249417        4.11923313067759
H           13.36110447279237       30.81209155931456        4.30345962251323
N           12.95846515308250       28.73566813980740        4.25009636999102
C           11.82233373421791       28.05620147318784        3.92131273004942
H           11.79131442350899       26.98681032071407        3.94817309751051
