72
 energy: -105.773735140020 gnorm: 0.284499775582 xtb: 6.7.1 (edcfbbe)
Fe          36.71899999999999       13.08400000000000       86.94600000000000
N           34.82099999999999       13.14300000000000       87.42400000000001
N           37.12400000000000       12.42700000000000       88.74400000000000
N           38.61199999999999       13.07000000000000       86.47799999999999
N           36.33200000000000       13.89700000000000       85.22400000000000
C           33.75200000000000       13.59500000000000       86.65899999999999
C           32.47300000000000       13.49400000000000       87.38199999999999
C           32.79300000000000       13.04600000000000       88.61600000000000
C           34.24000000000000       12.82200000000000       88.63199999999999
C           36.27799999999999       12.21800000000000       89.79399999999998
C           36.96600000000000       11.63000000000000       90.93200000000000
C           38.26100000000000       11.50700000000000       90.58400000000000
C           38.34100000000000       11.97900000000000       89.22699999999999
C           39.65000000000000       12.51700000000000       87.19399999999999
C           40.91900000000000       12.59800000000000       86.48000000000000
C           40.65600000000000       13.26100000000000       85.33300000000000
C           39.22800000000000       13.54200000000000       85.34199999999998
C           37.21300000000000       14.25200000000000       84.22499999999999
C           36.53700000000000       14.81800000000000       83.07700000000000
C           35.23300000000000       14.80300000000000       83.36699999999999
C           35.10000000000000       14.27800000000000       84.71999999999998
C           33.88700000000000       14.18600000000000       85.41200000000001
H           32.99600000000000       14.60300000000000       84.94300000000000
C           34.92400000000000       12.43500000000000       89.73800000000000
H           34.35299999999999       12.28500000000000       90.65400000000000
C           39.51400000000000       12.00400000000000       88.48399999999999
H           40.40700000000000       11.58600000000000       88.94999999999999
C           38.57100000000000       14.12100000000000       84.30300000000000
H           39.16700000000000       14.50700000000000       83.47600000000000
C           31.80600000000000       12.83700000000000       89.75699999999999
H           31.54600000000000       11.75900000000000       89.83000000000000
H           30.88000000000000       13.41900000000000       89.56300000000000
H           32.26500000000000       13.16200000000000       90.71500000000000
C           31.05800000000000       13.68000000000000       86.86799999999999
H           31.07200000000000       13.74400000000000       85.75900000000000
H           30.63000000000000       14.62000000000000       87.27800000000001
H           30.43200000000000       12.81400000000000       87.17100000000001
C           36.32599999999999       11.23600000000000       92.26899999999999
H           35.97500000000000       10.18300000000000       92.21599999999999
H           35.45700000000000       11.89600000000000       92.47799999999999
H           37.07500000000000       11.32600000000000       93.08499999999998
C           39.35500000000000       11.13000000000000       91.35799999999999
H           40.26900000000000       11.71900000000000       91.21200000000000
C           39.49099999999999       10.07600000000000       92.33700000000000
H           38.64100000000000        9.41700000000000       92.56999999999999
H           40.44599999999999        9.92000000000000       92.86099999999999
C           42.22900000000000       12.03200000000000       86.97599999999998
H           42.08200000000000       10.97600000000000       87.28799999999998
H           42.58500000000000       12.62000000000000       87.84899999999999
H           42.98399999999999       12.06500000000000       86.16200000000001
C           41.54299999999999       13.72400000000000       84.35700000000000
H           41.57200000000000       14.80500000000000       84.15800000000000
C           42.44400000000000       12.91100000000000       83.56699999999999
H           42.47700000000000       11.82000000000000       83.70399999999999
H           43.10500000000000       13.37500000000000       82.82100000000000
C           37.14099999999999       15.32900000000000       81.76599999999999
H           38.07000000000000       14.76300000000000       81.54000000000001
H           37.39099999999999       16.40700000000000       81.86299999999999
H           36.41700000000000       15.18000000000000       80.93600000000001
C           34.11799999999999       15.19200000000000       82.39300000000000
H           34.15200000000000       14.52600000000000       81.50500000000000
H           34.25899999999999       16.24300000000000       82.06100000000001
H           33.13000000000000       15.08000000000000       82.88900000000000
O           36.73000000000000       15.02000000000000       87.72900000000000
H           35.83300000000000       15.19400000000000       88.01400000000000
H           37.41900000000000       15.57800000000000       87.79099999999998
C           35.17200000000000       10.34100000000000       86.06399999999998
H           35.21500000000000        9.24200000000000       85.90999999999998
H           34.66499999999999       10.79100000000000       85.18399999999998
H           34.56300000000000       10.53600000000000       86.97299999999998
S           36.84199999999999       11.04900000000000       86.26000000000001
H           37.05800000000000       10.50800000000000       87.45000000000000
72
 energy: -105.832904454890 gnorm: 0.116344172969 xtb: 6.7.1 (edcfbbe)
Fe          36.72033003617172       13.09216913200086       86.94530745683569
N           34.78769431114267       13.14627483891504       87.42451020374843
N           37.13742783324373       12.41550472840141       88.76736568420176
N           38.64380203925477       13.08169441287973       86.48505075629399
N           36.31856380884230       13.90349186076563       85.19377110817608
C           33.73715085391282       13.59476740728292       86.65212516004605
C           32.47795497116639       13.48469137124888       87.36930339688956
C           32.79095035795780       13.04423731827774       88.62009223515740
C           34.22173271573239       12.83716984765006       88.64282463148206
C           36.27730005827062       12.20239705083022       89.81202346331463
C           36.94715250349926       11.62270074376853       90.94060317836674
C           38.27030629667142       11.49632838785486       90.58959025119047
C           38.36226114150984       11.98561654478142       89.23265438894737
C           39.66282748868378       12.50417675236580       87.19984194105218
C           40.91463042617026       12.57813001195863       86.49205823200987
C           40.66143176491393       13.25639932699912       85.32891435975112
C           39.24384339049208       13.55370038595641       85.34529352246855
C           37.20858326006345       14.26541248972995       84.21272192391055
C           36.53529642648148       14.81866813111416       83.06873425060827
C           35.20989047787543       14.80286048762892       83.36415714277760
C           35.08098354881398       14.27055102391967       84.70245229028961
C           33.88139614394363       14.17478709928724       85.39777268604357
H           32.99768838594656       14.59407911748839       84.93779579985025
C           34.91142838695836       12.43517672800704       89.75795559516581
H           34.34394069073222       12.27308277070508       90.66174857680524
C           39.52708285417557       11.99335886926529       88.48889762720746
H           40.41319674912413       11.58706039124457       88.95424626029418
C           38.58068130468487       14.13347939237276       84.29373584931341
H           39.17188747430846       14.50049394133477       83.46649765364182
C           31.82146764032149       12.83256513834333       89.75090442837649
H           31.55160960433435       11.77214308240090       89.83450200352540
H           30.90589708447329       13.40569025081329       89.56764126077384
H           32.25549806432642       13.15586037287806       90.70302081409248
C           31.07884635523601       13.68633741266693       86.85801929405959
H           31.06834164482217       13.74739759822538       85.76636391965921
H           30.63803765230054       14.60516039496133       87.26667040010774
H           30.45060134365936       12.83906258076009       87.16231204149462
C           36.32251515593508       11.24200009644824       92.25653311532319
H           35.97615463374625       10.20139657527539       92.21830728023335
H           35.46754151171144       11.88662097053061       92.48107098505341
H           37.06132056515232       11.32720694896429       93.06219559977011
C           39.38055671214145       11.10401416651477       91.38071587746353
H           40.28470238068278       11.68884449432669       91.21487434478500
C           39.47927352668957       10.11054167272299       92.31723751414263
H           38.65470000891575        9.44373000143933       92.54672593493092
H           40.41524158338390        9.93914622698275       92.83870609613632
C           42.21891315372145       12.03004909316371       86.97931220410298
H           42.09044592825874       10.98685701291835       87.28832412874019
H           42.58312127948946       12.60711883779242       87.83831284756376
H           42.96749746492529       12.07105572181276       86.18046215050133
C           41.57110611472353       13.70708515565574       84.32411724855051
H           41.57664410299368       14.78094311968920       84.12683730608921
C           42.42604747360812       12.93410312139236       83.59587064415945
H           42.45931957125411       11.85556949056937       83.71207938272639
H           43.08128325953338       13.37437293437134       82.85206770315695
C           37.14507964312052       15.31741561194951       81.78236964651452
H           38.06204878591557       14.77034008842812       81.54228348800864
H           37.38684815825642       16.38490756051118       81.86212563049016
H           36.43427559617247       15.18361443150600       80.95903059331597
C           34.11376795343076       15.19084275268639       82.40854948339530
H           34.14900373004929       14.53909668067274       81.52599620375139
H           34.25083037846714       16.22507104426576       82.07175709825012
H           33.13337925572782       15.08696397771402       82.87805122472102
O           36.72359727038274       15.02138646133799       87.73551051225442
H           35.83327024703789       15.22187656941085       88.02545670976653
H           37.44059422632177       15.62383122614785       87.80464215334980
C           35.15036644553628       10.32542935917079       86.06690955197385
H           35.21695734754584        9.24518622991424       85.90980399450511
H           34.67676984028871       10.79080413976245       85.19769732085405
H           34.56456857470779       10.53929455814534       86.96485817268164
S           36.82564863507832       11.01328089180410       86.23243326227046
H           37.05589439487662       10.49032538091789       87.43829480253834
72
 energy: -105.850079177304 gnorm: 0.053139314919 xtb: 6.7.1 (edcfbbe)
Fe          36.72487923131285       13.10388768126633       86.94556294508391
N           34.75703748959944       13.15477195383731       87.43039704464888
N           37.14819398583904       12.40135391891118       88.79177345694815
N           38.67689074418494       13.09798468659316       86.49244128104581
N           36.30889136552786       13.91110445963334       85.16471897252535
C           33.72093969387782       13.58643118232194       86.64870770459592
C           32.48084017616956       13.47745527907176       87.35790287416836
C           32.78939581651260       13.04564972888034       88.62495719239580
C           34.20554629746619       12.85071214699356       88.65587291423368
C           36.27807833300020       12.18505245764936       89.82837613975389
C           36.93829765872197       11.61763491765425       90.94636515520529
C           38.27830056187096       11.49405797367688       90.59226950620481
C           38.37655597864939       11.98530595346949       89.24105771410400
C           39.67794299724530       12.49913096196701       87.20392527113906
C           40.91369306486409       12.56738789262043       86.49947490443441
C           40.66453670602254       13.26246446284838       85.33218724635849
C           39.26035153180193       13.56812640002300       85.34859143554502
C           37.20442631094117       14.27837990958066       84.20138588503345
C           36.53277001127114       14.81827545034517       83.06342355403238
C           35.19085396094385       14.79907840376668       83.35972391859472
C           35.06509968936810       14.25720028637357       84.67998145355536
C           33.87364143638282       14.14682363238464       85.37788514140858
H           32.99216158531022       14.56745563754180       84.92370366109560
C           34.90134744047256       12.43135923274146       89.77273299102627
H           34.33365741096910       12.25318844981438       90.66805479398307
C           39.53974247601986       11.98262973109816       88.49419939600851
H           40.42508923237546       11.58770733517333       88.96075890802057
C           38.58928537122694       14.14517882304102       84.28874501754755
H           39.17737679842750       14.48911249127286       83.45496475449185
C           31.83231008381268       12.82916513419917       89.74652732109401
H           31.56230337405446       11.77639337054128       89.83547344511997
H           30.92169416988012       13.39670121373911       89.56961765082740
H           32.25680379257675       13.15087866849152       90.69419129524888
C           31.09572906492798       13.69364746243560       86.84472998305758
H           31.07522887724064       13.75560704592145       85.76241261325147
H           30.65553276914081       14.60373016290443       87.25467109539471
H           30.46443679093256       12.85809725130038       87.15045635951556
C           36.32266975421282       11.24479759657072       92.24735239011228
H           35.97299626213937       10.21159068144753       92.22161317468381
H           35.47566793648704       11.88291889236488       92.48230529107755
H           37.05724940809838       11.32934812241911       93.04558673693158
C           39.40356117342042       11.08910018458898       91.39231848768092
H           40.30216653555061       11.66923128879802       91.20429688549633
C           39.47144370010641       10.12878228706701       92.29313956310438
H           38.65280492163386        9.47191400124595       92.53029176464044
H           40.38663130358130        9.95048751173243       92.83389899653311
C           42.21394405418675       12.02694956506305       86.98081937595985
H           42.10155255929589       10.98934736665531       87.28913810089183
H           42.57934236892813       12.59775556141152       87.83464231885425
H           42.95767956657356       12.07960084733850       86.19055753801965
C           41.58824652525985       13.69964302690442       84.30184146652678
H           41.57013726713964       14.76962501940593       84.10772584384253
C           42.40448116620310       12.94569354976250       83.60883373844372
H           42.45238060583829       11.87627866285708       83.72884234436053
H           43.07200946995231       13.36663733112413       82.87474742444189
C           37.14602613660776       15.30905856579132       81.79641230103330
H           38.05705257133317       14.76969750179240       81.55538462624196
H           37.38681488024162       16.37073120709404       81.86884990645942
H           36.44465377988409       15.18345481938339       80.97410333557444
C           34.10526854212346       15.19087193490205       82.42067554287553
H           34.13889425489972       14.54914970890451       81.53858187456646
H           34.24075726551462       16.21781761818216       82.08488637887901
H           33.12692854595964       15.09409861373157       82.87477387966790
O           36.73171077245355       15.04678029879068       87.75688497130523
H           35.85002075108507       15.29111890942616       88.04862803805952
H           37.44392032393367       15.68165521629470       87.82507481864511
C           35.12788880969360       10.30533001960379       86.06540062418134
H           35.19546080577330        9.23544480921769       85.90951400894613
H           34.67523816417865       10.78507543538350       85.20482453380065
H           34.56261414146985       10.54071737583026       86.95879944128673
S           36.81831490024884       10.96408942317268       86.19970944082617
H           37.06060849704988       10.45908529565755       87.41832383935089
72
 energy: -105.865041301554 gnorm: 0.074412024255 xtb: 6.7.1 (edcfbbe)
Fe          36.72843613803621       13.10530986884536       86.94223058355041
N           34.73708179294751       13.16378336354370       87.43731058579719
N           37.15510897540465       12.39076471857672       88.80957479419787
N           38.70189605614533       13.11454930611921       86.50006194948261
N           36.30184913044103       13.91825619715517       85.14613405863851
C           33.70989285571891       13.57725735467152       86.64655468070558
C           32.47845987439870       13.47073983725243       87.35121470812702
C           32.78487348688454       13.04673893702116       88.62679380141017
C           34.19614624128806       12.86158044958607       88.66566499020746
C           36.27886199322893       12.17302513224195       89.83829416022631
C           36.93952484606022       11.61520185120264       90.95131320207722
C           38.28725273180983       11.49794436179613       90.59205769355582
C           38.38513115510324       11.98618872167968       89.24747823166314
C           39.69071739074071       12.50343713337039       87.20920876467886
C           40.91920653962372       12.56624293949858       86.50149289955350
C           40.66853675485225       13.27497288112490       85.33855624888596
C           39.27164010318596       13.58306284885373       85.35306378394667
C           37.20110790677204       14.28956631118562       84.19534556006936
C           36.52845971039679       14.81800685540035       83.05990009565410
C           35.17698892397864       14.79256553420790       83.35439085454041
C           35.05401068882006       14.24363938462440       84.66307055460102
C           33.86582161290263       14.11375795706107       85.36227323397732
H           32.98106936566924       14.52220426655301       84.90460360951064
C           34.89627693848234       12.42614015569666       89.77870586659424
H           34.32585929965723       12.22829034247840       90.66877581998510
C           39.54968397760251       11.98118587620050       88.49669144644538
H           40.43593347539819       11.58913964325517       88.96297223997308
C           38.59283871519863       14.15486953690127       84.28987495059441
H           39.17968722663099       14.47643043686398       83.44621446337453
C           31.83597459271854       12.82545426572276       89.74570451358291
H           31.57124101356391       11.77387804329850       89.83740936008854
H           30.92508064586183       13.38810188300533       89.57398955723973
H           32.25933248476915       13.14727072644674       90.69106448277850
C           31.10370690643103       13.70171052346392       86.83197556571378
H           31.08391048010322       13.76644330743700       85.75251118217412
H           30.67084886417830       14.61183045498260       87.24231368595778
H           30.46534259982567       12.87456252504633       87.13494914338337
C           36.32620056174254       11.24636336219355       92.24687261283952
H           35.97003559242529       10.21712858236989       92.22700481594870
H           35.48295768020181       11.88465892986050       92.48681963762836
H           37.06039964332099       11.32975911910777       93.04113103867915
C           39.42482878480474       11.08872786815723       91.39193444069080
H           40.32577782900039       11.65692759507503       91.18719246479137
C           39.46013102333443       10.13914788696695       92.30074785420760
H           38.63599381064129        9.48973436799038       92.52317279536965
H           40.36605054316507        9.93748347862469       92.84509900493251
C           42.21687923625534       12.02625415625139       86.98022197580396
H           42.11352735536956       10.98885815691380       87.28535743419030
H           42.57859475993923       12.59185051321813       87.83642614438605
H           42.95985321294891       12.08996136711193       86.19497701596548
C           41.59502447980844       13.70869674621942       84.29381094143595
H           41.55515680451237       14.77425399522947       84.08940748836383
C           42.41729888516156       12.94324398809873       83.62128579668983
H           42.45446544097141       11.87679806144126       83.74374066924543
H           43.07585128331881       13.34682706177592       82.87253921686869
C           37.14696204302813       15.30476575004884       81.80342116016938
H           38.05688915584867       14.76639075142429       81.56677095045909
H           37.38965327100448       16.36383976666344       81.87503190256163
H           36.45216015657513       15.18377614861303       80.97864366260048
C           34.09290630910032       15.19263031433337       82.42673250051800
H           34.12101109174325       14.55870589523219       81.54152114084273
H           34.22880459826158       16.21885919504500       82.09633898258535
H           33.11394224244495       15.10079978895570       82.87571396080457
O           36.74778650086065       15.11443174025323       87.80647641040655
H           35.87171504107761       15.40433857639602       88.08342565542911
H           37.44560482829522       15.78072278462204       87.86059820294309
C           35.10215971967953       10.27047179078352       86.05653694396563
H           35.13763055245336        9.20192010678645       85.90946325448643
H           34.66341247981997       10.76903911832058       85.20273603186757
H           34.56567269860034       10.54487630006506       86.95620547866741
S           36.82832311771138       10.85944239166259       86.13762817689076
H           37.06554777174191       10.40721041181763       87.38227291382198
72
 energy: -105.878425795094 gnorm: 0.080511408596 xtb: 6.7.1 (edcfbbe)
Fe          36.73045351571215       13.09455317501772       86.92969816174543
N           34.71136114289470       13.17810201703956       87.44764593225636
N           37.16139444024068       12.36736058349981       88.82948806330197
N           38.73420309611156       13.13252193518051       86.50710203400190
N           36.29232494435085       13.93099687201363       85.12255948071800
C           33.69715393314655       13.57241457262659       86.64432266064068
C           32.46886314019054       13.46316754138423       87.34614710865976
C           32.77465979838438       13.05041931378062       88.62706002584645
C           34.18651482933902       12.87693185569873       88.67565868235063
C           36.27751712196439       12.15593673248341       89.84720110567180
C           36.94516555560941       11.60975501487878       90.96037663068529
C           38.29669411384116       11.50394521399155       90.59316085107001
C           38.39143043470437       11.98695342378479       89.25626216638099
C           39.70637186089835       12.51128378668180       87.21842636332181
C           40.93197436525676       12.56304653149605       86.49760443593443
C           40.67659153237476       13.28663768786445       85.34674054881069
C           39.28412030981791       13.59826901995439       85.35834153195920
C           37.19883142780424       14.30531299048741       84.18810578817397
C           36.52291627072891       14.82072177197987       83.05271667589804
C           35.16355913513436       14.78670156918084       83.34493036843584
C           35.04414353096326       14.23509128074888       84.64534169110186
C           33.85817636265505       14.07778456786289       85.34991092801927
H           32.96732184964598       14.46739709717936       84.88399499230881
C           34.89314531681246       12.41729702742576       89.77982254960206
H           34.31905244403028       12.19853960025888       90.66597612969787
C           39.56057738783456       11.98483898915924       88.49734226036132
H           40.44749299013809       11.58933088305039       88.96223002397512
C           38.59400967445215       14.16420514993809       84.29371148190671
H           39.18099591272430       14.46080701494196       83.43877184058036
C           31.83555412415187       12.82256948947591       89.74614073777136
H           31.57992053875817       11.76957213041129       89.83959621321954
H           30.92209205264436       13.37959697556083       89.58157678952155
H           32.26278613000274       13.14455880556330       90.68913389377100
C           31.10578856080304       13.70936434011618       86.81933089471950
H           31.09217452647722       13.77852771543102       85.74066505911136
H           30.68450817996241       14.62277237573309       87.23049028084921
H           30.45873731383536       12.89047156902064       87.11751275813749
C           36.33138161581039       11.24623082273053       92.25227572285166
H           35.96537711291843       10.22091592675868       92.23494700090131
H           35.49089296073222       11.88884689344602       92.49258363650856
H           37.06622829720271       11.32794999801807       93.04331853238830
C           39.45158616037524       11.09128375401587       91.38657751795211
H           40.35423611510084       11.64577230996731       91.17013499509923
C           39.45094466962629       10.14357340538583       92.30992111335971
H           38.61056642680187        9.51439950476006       92.51808668776989
H           40.34538837031080        9.92232642695700       92.86309860581125
C           42.22575395728308       12.02398161746805       86.97722581589412
H           42.12814420046574       10.98580540364514       87.27941359901045
H           42.57723614163270       12.58611439925374       87.83965707670308
H           42.96982239313297       12.10040824711885       86.19761178601644
C           41.59840090507399       13.72210124223516       84.28516823468102
H           41.53833150273644       14.78036838176274       84.06859017303910
C           42.43016023970311       12.93587436365660       83.62493853960601
H           42.46187483643703       11.87451681337024       83.76929671981758
H           43.08574333305884       13.32672118576199       82.86972176414875
C           37.14735838975215       15.30292798675213       81.80536468706961
H           38.05743345761663       14.76155488966917       81.57707224204017
H           37.39518276732140       16.35979859428830       81.87921434662276
H           36.45911892292847       15.18640967318694       80.97657974640823
C           34.07868479323480       15.19549688456875       82.42828269559701
H           34.09908515522058       14.56802061991298       81.53963462265375
H           34.21599583571604       16.22324056987266       82.10518795220725
H           33.09887059285646       15.10861292563098       82.87747388443783
O           36.76906162696687       15.22986409650754       87.88973129532138
H           35.90172687889748       15.57714241644215       88.13557039778799
H           37.43203074843367       15.94685693984543       87.92247458868876
C           35.07000046933639       10.21777758766204       86.04085909109688
H           35.04261956527304        9.14854163987885       85.90950640935949
H           34.65235522783929       10.74883351943744       85.19590035871964
H           34.58331027439751       10.55526818904860       86.95441539821498
S           36.87164152511809       10.63847891742223       86.03338960748567
H           37.07187666629127       10.33922723265935       87.34867801421196
72
 energy: -105.884923713162 gnorm: 0.052963835295 xtb: 6.7.1 (edcfbbe)
Fe          36.73534959186122       13.12770260394353       86.94430323265681
N           34.71986264719403       13.18261025366401       87.45127455636495
N           37.16222332758050       12.36751323805165       88.82704085497882
N           38.73174951138980       13.14539847766955       86.51232852491233
N           36.29381602107842       13.93466764725609       85.13101612510722
C           33.69962342493750       13.56409955401755       86.64212874366251
C           32.46448879879772       13.45861261873312       87.34801762791741
C           32.77159090637852       13.04804902337855       88.62537759801107
C           34.19028541179025       12.87162948099278       88.67433537074311
C           36.27879541000087       12.15133918015754       89.84424569994648
C           36.95224995625085       11.60703711823518       90.96176143036558
C           38.30087729532438       11.50518651410657       90.59582121085874
C           38.39229683904625       11.98621446738403       89.25758089808043
C           39.70763792167734       12.51956894139502       87.21972081990208
C           40.93869324432259       12.57042562971824       86.49292836848446
C           40.68140342779454       13.28886914653997       85.34500089228781
C           39.28332968129276       13.60421376017264       85.35905905062674
C           37.19827233607067       14.30417228294933       84.18930040443003
C           36.51979384229718       14.81834671104428       83.05124539000835