78
 energy: -116.058003082403 gnorm: 0.000116459244 xtb: 6.7.1 (edcfbbe)
Fe           9.55350928921201       22.94749017707554       12.93077643447698
N           10.91415472100320       24.42358614390146       12.85556277952860
N            8.97671368603001       23.56272454293250       14.73480987249530
N            8.24943448425292       21.43478911321236       13.00750668966514
N           10.18561362639476       22.29994779577452       11.12890825707968
C           11.75973540074503       24.71314926089374       11.83029309931907
C           12.56068849053149       25.87615007740834       12.14118787733252
C           12.17597836883989       26.28534295258224       13.37999541558226
C           11.14205962040991       25.36931571969470       13.80709660047994
C            9.47153842284495       24.61505538724514       15.43980920083498
C            8.79863446088500       24.74710853067411       16.70829888783785
C            7.87435230580207       23.73911474499916       16.75806034774088
C            8.00314845522268       23.01714768704527       15.50504383320710
C            7.37164911160143       21.17393454489607       14.01311267218635
C            6.58358272154523       20.00480945954580       13.71706455101963
C            7.00911787380807       19.55249276309437       12.49618856014038
C            8.04513777680130       20.47402737173156       12.07000988080663
C            9.71449673494150       21.22756072599617       10.43527036239479
C           10.38364282661959       21.10981281237993        9.16014192031801
C           11.26476906012829       22.14495463518761        9.09402948689158
C           11.12526478763554       22.87770486509051       10.33139752189444
C           11.86431446574319       24.00162294092848       10.64948075334556
H           12.57715714295563       24.35148123058774        9.91878659807699
C           10.48292062125325       25.46091466273009       15.01696949851459
H           10.78021843860298       26.25617610573800       15.68343788014551
C            7.25216271688720       21.90567303142097       15.18073491027202
H            6.52779354961009       21.56588576736421       15.90499198612526
C            8.72952678609091       20.36150291323101       10.87312310730928
H            8.47180147029178       19.53872486970747       10.22388897341212
C           12.67119736893949       27.43211950119069       14.19277211206943
H           13.46254982764071       27.96383495784868       13.67017999740513
H           13.06476915592112       27.08322104211311       15.14768951724485
H           11.86317118733714       28.13516719212694       14.39725757849319
C           13.58976906950485       26.45574793962549       11.23223633903878
H           13.13831598970914       26.76046644087737       10.28779828202340
H           14.36690674552669       25.72269397508457       11.01383938742319
H           14.05856523751980       27.32646145823500       11.68400547880112
C            9.04601151706847       25.82719492773235       17.70302308143456
H            9.23345922804431       26.77721493569328       17.20440578852025
H            9.91391899231525       25.59421725709644       18.32199238979774
H            8.18101390623415       25.94030855705126       18.35337745901455
C            6.91998299494027       23.42391702541790       17.79791084230117
H            5.97185226608893       23.02349038384120       17.45762743907877
C            7.12171300748912       23.57851025862814       19.10246127629378
H            8.06012758520226       23.92363900717366       19.49977235446444
H            6.35929981591457       23.33394175061221       19.82351093676861
C            5.48554330220358       19.47267034324233       14.56980502885105
H            4.91628928501694       20.28631950039466       15.01681706049070
H            5.88493461716852       18.85725270378681       15.37739507457042
H            4.81092136691058       18.86179117697773       13.97321392424681
C            6.54442712945366       18.42027477128952       11.72589462902564
H            6.56934446393715       18.54305901948710       10.64883256401696
C            6.11079671700865       17.26924186327212       12.22973627458659
H            6.10983950853259       17.07132042535810       13.28715927509167
H            5.76559888589211       16.47067289756811       11.59401840033830
C           10.10898422565822       20.03733668641588        8.16220751846975
H            9.07086258712433       20.07691683197874        7.83055167509876
H           10.28603133186590       19.05358787385620        8.59758950548426
H           10.75011952596622       20.14621076134949        7.29093473781852
C           12.21288974886544       22.50898471066779        8.00333821216760
H           12.13206021800352       21.81312571451009        7.17187007369201
H           13.24097934184572       22.49143794357457        8.36618674501517
H           12.00327183639700       23.51264457945510        7.63273760489232
O           11.20048872436907       21.61913742314031       13.80942526062928
H           11.96219088910078       22.19898715838345       13.70149433476058
H           11.25861343351027       20.94303875480935       13.12590653544156
C            6.28032369473677       27.19342472353867       11.39924552243039
H            5.20641275388016       27.10112350736534       11.56079460512242
H            6.44044308780421       27.62469229325884       10.41110266703694
H            6.68731289015958       27.86981896158844       12.14422492714452
N            6.62829644753763       24.81443310603935       10.69921575014554
H            5.93548649430526       24.82141832384015        9.96876292551213
C            6.94600377840201       25.87098645069822       11.51189152361901
C            7.40913151690296       23.77106134050349       11.05936634100039
H            7.37759981554519       22.80841681688806       10.59231775394940
N            8.20136568142089       24.10263090526077       12.04980155593266
C            7.92490598141243       25.40588470987333       12.34246996125168
H            8.44578940699497       25.91775027821557       13.12485381355538
