78
 energy: -116.058074638792 gnorm: 0.000040603860 xtb: 6.7.1 (edcfbbe)
Fe          28.14328787376977       93.88753156490745       53.03267224524376
N           29.09241102841001       95.56163678032469       52.43817689109530
N           29.22513002460735       93.86985439333738       54.70829788487760
N           27.15090054825051       92.26683430553270       53.63200549140830
N           27.02075599262288       93.95564421464071       51.36283426057878
C           28.91843328389278       96.23428731539276       51.26829179701155
C           29.82254681210762       97.35873329466516       51.18622981977261
C           30.55338714548103       97.34741014497456       52.33399318874613
C           30.08669843449027       96.21502585161041       53.10104995695901
C           30.18473029270174       94.76141057190863       55.07768974876696
C           30.76045158151669       94.40043964066784       56.34855098948410
C           30.12978905152859       93.25062163454241       56.74219767598012
C           29.16519271825631       92.94786684006253       55.70123065138529
C           27.37144618275611       91.55664655077257       54.77016218989957
C           26.47508357491896       90.43056633455375       54.85562004009946
C           25.69660056173680       90.47329363021440       53.73043928765531
C           26.13941122651438       91.63632956847349       52.98405177305265
C           26.04355969805821       93.08035057035266       51.00249764660559
C           25.49836265622193       93.42648654695131       49.70946741637717
C           26.17640427992731       94.52973439723965       49.29202278923382
C           27.12552270157374       94.84297592009413       50.33623544457922
C           28.00425645644834       95.90840654786730       50.28340508253368
H           27.97936095976279       96.53091878822013       49.40233351162588
C           30.59341143965797       95.85664959280157       54.33493723484740
H           31.38126968927620       96.47092584915617       54.74373117893003
C           28.32013593686538       91.85670165133017       55.73030134857669
H           28.39964813011695       91.18787833819842       56.57359230290488
C           25.62007330826428       92.00108720671486       51.75525416034800
H           24.83359533014372       91.38817919958936       51.34205532298820
C           31.62840681194348       98.27903903196307       52.77897576406473
H           31.35490637476806       98.75910129764573       53.71892718359312
H           31.80007250454674       99.05449561715835       52.03655087142111
H           32.56389834357465       97.74100421790314       52.93517993012266
C           29.88505903789500       98.30523507289159       50.03674656490062
H           28.92544276470253       98.80366098375691       49.89678731203206
H           30.12644677400782       97.77389009206949       49.11585271305604
H           30.64416000718296       99.06579787193363       50.20228004065503
C           31.78356837466579       95.19464320243722       57.08364926903922
H           31.60062963264983       96.26165065750885       56.96574578875051
H           32.78743878996934       94.98079320427860       56.71197914280772
H           31.75192935512580       94.95158943276336       58.14370176776950
C           30.31368847758887       92.47569593083422       57.94903668772699
H           29.42225313897110       91.99882804139662       58.33922209253726
C           31.46584540569486       92.30695151666767       58.59001046291162
H           32.39117699343076       92.71704434936558       58.22445529328770
H           31.52690562608832       91.72629024922936       59.49552367704011
C           26.39478008396958       89.48379468190589       56.00157573700405
H           26.52286225067317       90.01157941850903       56.94532906983071
H           27.17275012808994       88.72157096856348       55.93248017759419
H           25.42637765491549       88.98779499282209       56.00912694469103
C           24.62170148150201       89.59452627685954       53.32546905589868
H           23.80812068345049       90.06702502819461       52.78697550339302
C           24.56745977823039       88.28637003755171       53.55433823022003
H           25.36734754287261       87.75691744591334       54.04194215486459
H           23.72619877816202       87.69288874258805       53.23647565674368
C           24.40593900493087       92.67471626217325       49.02962516454105
H           23.50427819892523       92.67029544915192       49.64266003349307
H           24.70193607852387       91.63953254150020       48.85788786661681
H           24.16476871749056       93.12543849414330       48.07006331807412
C           26.02626103049558       95.30933249894905       48.03078304388229
H           25.24877873750845       94.88214161908611       47.40227662685272
H           26.96014960900134       95.31067944348031       47.46821830173197
H           25.76138598214069       96.34462694430819       48.24764850115083
O           26.57725537927058       95.27717748910531       53.97034045542604
H           25.90003473532398       95.24934949480642       53.28563738689004
H           27.03647690601829       96.11934812076935       53.88092611544419
C           30.76449037871101       90.03623133307777       49.97283179165864
H           31.39582466476639       89.31355726098224       50.48962951024124
H           31.28893992493022       90.36753070299729       49.07659254335414
H           29.84383862032340       89.54401901484421       49.67571556123504
N           31.41966595428806       91.99625085868085       51.38731108136835
H           32.41120765841671       91.89866346435527       51.24271009697895
C           30.44950581814106       91.18744688587807       50.85598173025067
C           30.80318939727050       92.93748094795660       52.13703324699956
H           31.31621589600579       93.70849116976707       52.67399403052099
N           29.50268474595402       92.77399896963944       52.11228846133684
C           29.26726934986817       91.68930559087330       51.31947383875720
H           28.27061949714730       91.34477983566607       51.13670686967220
