78
 energy: -116.057564023588 gnorm: 0.000068501951 xtb: 6.7.1 (edcfbbe)
Fe          28.07174988421815       31.79305073648138        9.97135390957189
N           26.30795641005216       32.74362750913878       10.14768628297394
N           28.86754285380329       33.04522312804988       11.33759343969960
N           29.84682808289659       30.92237190188476        9.73021602705011
N           27.27492144768503       30.57577915630157        8.61408631627837
C           25.14570551420987       32.43070348300085        9.51503954800671
C           24.09197553347281       33.34043392009735        9.90262212622927
C           24.64365521342095       34.21063450947579       10.79149371945508
C           26.02562704690792       33.81464447160195       10.94204095733309
C           28.22877788136692       34.04706749010622       12.00670429980048
C           29.10955402255887       34.66904341541107       12.95951436075662
C           30.30925189836191       34.01265889027394       12.86097069107066
C           30.12845412519348       32.99814208976278       11.84284172036154
C           30.99226668400629       31.20417009407893       10.40774184384123
C           32.07723284748681       30.37928770269651        9.94119805488504
C           31.56730956386360       29.60155876976361        8.93792016995033
C           30.16007960757486       29.94263072404951        8.84618620562011
C           27.90737366779659       29.57097578475839        7.95560917038408
C           26.98083477117329       28.84877395815312        7.10954548269106
C           25.77276194511202       29.45011886013649        7.26903945584882
C           25.97806751070727       30.52794727751354        8.21362550701570
C           24.97808504589210       31.38948753023219        8.62137963990069
H           23.99210618143769       31.24271156447989        8.20790314903897
C           26.91205773321898       34.42983687717459       11.80505210562027
H           26.54266111237162       35.26433248880543       12.38135216652859
C           31.12863723080561       32.15104370720847       11.40689418580937
H           32.09904164718932       32.24392680469089       11.86998096709352
C           29.25321026757058       29.27300816348366        8.04593294009279
H           29.62432845487968       28.44766057287876        7.45851388830208
C           24.01355454511829       35.35595199611580       11.50797894008398
H           22.97586103260218       35.47600963239271       11.20687685459673
H           24.54316267204558       36.28381980584055       11.29058481527546
H           24.04030902495245       35.19745899579478       12.58673173486658
C           22.69631346004618       33.27939574402648        9.38399780864286
H           22.23744815622088       32.32201660739241        9.63195629797020
H           22.68576490308161       33.38739962593367        8.29922734670604
H           22.08804672326191       34.07189390352524        9.81316483909289
C           28.72591183755022       35.75740059266461       13.90106298828840
H           27.70359871569744       35.62360119269479       14.25196997883210
H           28.79049072263001       36.73347017269806       13.41695625931677
H           29.39200165849078       35.75748203998446       14.76153380611524
C           31.53054968792617       34.22153537881401       13.60630584941190
H           32.11942356030950       33.33135796330551       13.79522827257292
C           31.97260994003399       35.39243791593520       14.05376729568474
H           31.45615077359967       36.31513534456602       13.85456502550537
H           32.88858432327143       35.47089685042490       14.61559922090443
C           33.47794460100463       30.44252972723610       10.44412259094734
H           33.50822485079429       30.27063649948242       11.52055586196187
H           33.91243384942580       31.42321006852586       10.24746534503697
H           34.09447960671938       29.69320856070783        9.95408285264602
C           32.28895610750926       28.64217126819704        8.12732404609981
H           33.04867385011327       28.07107678704810        8.65080198383967
C           32.12108748478452       28.45057495797957        6.82382711063161
H           31.42064586405530       29.03117704115720        6.24811534440970
H           32.70125754351690       27.72229832203076        6.28141946422499
C           27.35647416063670       27.69026678800402        6.25097132069933
H           27.78391098682938       26.88829015996281        6.85317269754932
H           28.09967608062146       27.98841892206629        5.51130712638451
H           26.48838427759808       27.29986361756260        5.72545759556407
C           24.46392148204415       29.12598387140824        6.63418295672381
H           23.71500818155484       28.89862709863196        7.39323535380448
H           24.55631325519522       28.26604142048994        5.97541648018942
H           24.10382705740512       29.97056771986019        6.04621820644692
O           28.59572168738259       33.37741704458366        8.39751321893761
H           29.17396209178235       33.94274741736195        8.92100845518888
H           27.74499207989155       33.82494565724865        8.33275892962413
C           27.31350551968657       27.27975665835934       13.15349040862922
H           26.29164302555261       26.94886358838511       13.33873983708599
H           27.86645669699677       27.21917347624766       14.09079808820104
H           27.77202030775824       26.60786849017324       12.43483550368296
N           26.81808017670378       29.72919249501063       13.31430910392313
H           26.39272915402568       29.68694824025793       14.22582002099614
C           27.33076781954566       28.66511866090555       12.61951312767756
C           26.99037191114830       30.83495888483527       12.55564456640587
H           26.68315325926878       31.81746406315644       12.84856867270444
N           27.58023283604042       30.53594972934203       11.42392861212571
C           27.79848989316427       29.18961567562453       11.44871954762209
H           28.27381837917317       28.69292174434065       10.62812990497509
