72
 energy: -105.918632085496 gnorm: 0.222565435647 xtb: 6.7.1 (edcfbbe)
Fe          21.03700000000000       51.33799999999999       47.57599999999999
N           21.34400000000000       49.51200000000000       48.39700000000000
N           19.87100000000000       51.84700000000000       49.13800000000000
N           20.62600000000000       53.09600000000000       46.69000000000000
N           22.01300000000000       50.75000000000000       45.92600000000000
C           22.16100000000000       48.46999999999999       47.91200000000000
C           22.17700000000000       47.39800000000000       48.90200000000000
C           21.43100000000000       47.79200000000000       49.95100000000000
C           20.90800000000000       49.12000000000000       49.64600000000000
C           19.55400000000000       51.08200000000000       50.21700000000000
C           18.73600000000000       51.77300000000000       51.16900000000000
C           18.55000000000000       53.02799999999999       50.61499999999999
C           19.25200000000000       53.08100000000000       49.35200000000000
C           19.98100000000000       54.18800000000000       47.27900000000000
C           20.03400000000000       55.30800000000000       46.37900000000000
C           20.64400000000000       54.89600000000000       45.24500000000000
C           21.01100000000000       53.48099999999999       45.40500000000000
C           22.18700000000000       51.42600000000000       44.74900000000000
C           23.01900000000000       50.67699999999999       43.85400000000000
C           23.36200000000000       49.50200000000000       44.49400000000000
C           22.71000000000000       49.52800000000000       45.78400000000000
C           22.80300000000000       48.49799999999999       46.70600000000000
H           23.43500000000000       47.64700000000000       46.45100000000000
C           20.04400000000000       49.80400000000000       50.44500000000000
H           19.70500000000000       49.29999999999999       51.34999999999999
C           19.40300000000000       54.18899999999999       48.51300000000000
H           19.02300000000000       55.14200000000000       48.88000000000000
C           21.68600000000000       52.69799999999999       44.50800000000000
H           21.84500000000000       53.11200000000000       43.51200000000000
C           21.16000000000000       46.99900000000000       51.24399999999999
H           21.93700000000000       46.21399999999999       51.36699999999999
H           20.16300000000000       46.51300000000000       51.18400000000000
H           21.19700000000000       47.68299999999999       52.11899999999999
C           22.97000000000000       46.09200000000000       48.79799999999999
H           23.89600000000000       46.17100000000000       49.40600000000000
H           23.24900000000000       45.90600000000000       47.73900000000000
H           22.35700000000000       45.24900000000000       49.18300000000000
C           18.15200000000000       51.19400000000000       52.43800000000000
H           18.93100000000000       51.17699999999999       53.22999999999999
H           17.80500000000000       50.15500000000000       52.25200000000000
H           17.30300000000000       51.82299999999999       52.78100000000000
C           17.78300000000000       54.24300000000000       51.16000000000000
H           17.24000000000000       54.89399999999999       50.45900000000000
C           17.73300000000000       54.56499999999999       52.46000000000000
H           18.25600000000000       53.95099999999999       53.20800000000000
H           17.16800000000000       55.44700000000000       52.79499999999999
C           19.53400000000000       56.71900000000000       46.70900000000000
H           20.39600000000000       57.36300000000000       46.98500000000000
H           18.82800000000000       56.67599999999999       47.56600000000000
H           19.02800000000000       57.15500000000000       45.82099999999999
C           20.95300000000000       55.64299999999999       43.95300000000000
H           21.29400000000000       55.06600000000000       43.08100000000000
C           20.84400000000000       56.94700000000000       43.79000000000000
H           20.50900000000000       57.58700000000000       44.61900000000000
H           21.08700000000000       57.41100000000000       42.82300000000000
C           23.40100000000000       51.08400000000000       42.41200000000000
H           23.94200000000000       52.05399999999999       42.43100000000000
H           22.48200000000000       51.19599999999999       41.79800000000000
H           24.06400000000000       50.31100000000000       41.96699999999999
C           24.23000000000000       48.34399999999999       43.94400000000000
H           24.97500000000000       48.74800000000000       43.22500000000000
H           23.58500000000000       47.60799999999999       43.41800000000000
H           24.76800000000000       47.84800000000000       44.78000000000000
O           19.19400000000000       50.54900000000000       46.63699999999999
H           18.47000000000000       50.84500000000000       47.18800000000000
H           19.12700000000000       50.05700000000000       45.89999999999999
C           23.88300000000000       51.19299999999999       49.31600000000000
H           24.57500000000000       51.65900000000000       50.04999999999999
H           24.49600000000000       50.68600000000000       48.54100000000000
H           23.27500000000000       50.43400000000000       49.85200000000000
S           22.81600000000000       52.41799999999999       48.55800000000000
H           22.10700000000000       52.64800000000000       49.65400000000000
72
 energy: -105.957489777838 gnorm: 0.092264450782 xtb: 6.7.1 (edcfbbe)
Fe          21.01276829346020       51.32688179560056       47.55498973812499
N           21.36605303703801       49.51635170676379       48.41064108181810
N           19.86799609375718       51.85672636014988       49.14046163069074
N           20.61973676232172       53.09505512688134       46.68312965629782
N           22.03348707556205       50.73545850228518       45.92933093233044
C           22.15406638426662       48.48372222281506       47.92823073283488
C           22.18867308075064       47.40200551917626       48.90172958295875
C           21.42965824425574       47.78831677220863       49.95462736766480
C           20.90292054834559       49.10525976125007       49.63298135582080
C           19.55574411313813       51.08940225121203       50.21881186496734
C           18.72348193677013       51.79639411640957       51.15562136619906
C           18.54664392549468       53.05301770576777       50.61647852467976
C           19.26604483059123       53.08049531237597       49.36080504554431
C           20.00521836200025       54.18208297810032       47.27066126989686
C           20.04484970106616       55.31336185771524       46.37088793464849
C           20.64727748148062       54.89303309514947       45.22105701099611
C           21.01108317762881       53.48761795458918       45.42339438619106
C           22.19680145045132       51.41806110946577       44.76050558061377
C           23.01508687753238       50.66481312619808       43.84324264982639
C           23.35968842108188       49.50315570808662       44.48377307392219
C           22.72385105315477       49.54279024042650       45.78107967588128
C           22.79903474822129       48.51480251462612       46.71098476529961
H           23.41520799019432       47.66000381263557       46.45109034842761
C           20.03852454126756       49.80337047766375       50.44284035620602
H           19.71298413947880       49.30944354748835       51.35050902132329
C           19.41102793892994       54.17821165352866       48.51631945310228
H           19.00876866053808       55.12005095286080       48.87441493496472
C           21.68715021681323       52.69304938826732       44.52087401496043
H           21.85820728308531       53.10645344918425       43.53200030362026
C           21.16396709996397       47.01318853833940       51.22624918943342
H           21.92209780270517       46.23542560793204       51.36008279042344
H           20.18149501929040       46.52937789606806       51.18376772488134
H           21.19227802634192       47.67300131289498       52.09899442467064
C           22.96372648248895       46.11142301585507       48.79072345985730
H           23.87963361352761       46.17193632603180       49.39097180945631
H           23.24327976299362       45.90681943861197       47.75457982255072
H           22.36874407205628       45.27240025937608       49.16684137654377
C           18.15823324932341       51.21045189590244       52.41770259189128
H           18.91653399532094       51.18066159584251       53.21133403154571
H           17.81058270679832       50.18396715175132       52.25143423310899
H           17.31663541190629       51.81323166172142       52.77063771303633
C           17.79456921215335       54.21786183139533       51.16092751343414
H           17.27161662310985       54.85592677393632       50.44911825713645
C           17.73467380594469       54.54516483818485       52.44898805036492
H           18.25352459092125       53.96542489290277       53.20194268782780
H           17.18370851875502       55.41891784357386       52.78394301687054
C           19.53607648929746       56.69563706151999       46.70690693362307
H           20.37696612331672       57.34588582255149       46.97876129505838
H           18.84007797661814       56.67263085102979       47.54956712056256
H           19.02007391674163       57.13577799032590       45.84828147105932
C           20.94272576975187       55.63199839473710       43.97141550837993
H           21.28271401545930       55.04449140353714       43.12069403405140
C           20.84355297937184       56.94436022353538       43.79577880985156
H           20.53409169634936       57.60083387664624       44.59451868928814
H           21.08121549522260       57.40283721887575       42.84200969392828
C           23.39458304626761       51.08242842408454       42.43714831351450
H           23.92929324924507       52.03884475025681       42.43967318701667
H           22.49900683921165       51.19237091090152       41.81623912998040
H           24.04242616646193       50.32861633486088       41.98094596767798
C           24.21476834233809       48.36830565918478       43.95338816244109
H           24.95553988440587       48.74618543621954       43.24183411981685
H           23.59389411105336       47.62739155663510       43.43620944808541
H           24.75238655287904       47.86569179244158       44.76322257113487
O           19.19118606185497       50.55346512022404       46.65557289473952
H           18.44426420293795       50.83713492750427       47.17903010259646
H           19.10399316233217       50.03810664421799       45.87414827248784
C           23.89481159748676       51.17996941721886       49.33308140231963
H           24.57386950798057       51.66129747054184       50.04500112520783
H           24.48203726068552       50.69363626561960       48.54937824729939
H           23.28725258770250       50.43070492864805       49.84660726485835
S           22.81992003770033       52.40247162234593       48.55646820635779
H           22.12093656504976       52.66235599713329       49.66040567581734
72
 energy: -105.968500898981 gnorm: 0.023953322584 xtb: 6.7.1 (edcfbbe)
Fe          21.00872171346633       51.32249056678084       47.54823881214365
N           21.36267671669208       49.51267391551436       48.41421903566221
N           19.86455814652427       51.86047117906045       49.13953823588736
N           20.61985194228257       53.09442365572101       46.67941434873358
N           22.04601062860820       50.72441181709333       45.93552017052137
C           22.14887675171527       48.50437145988332       47.94245881616069
C           22.19679262598930       47.41257164744134       48.89734077351793
C           21.42372649246147       47.78997867154734       49.95238408396212
C           20.89760485658193       49.09915257498746       49.62462857231086
C           19.55599139870926       51.08940655261510       50.21680465835171
C           18.72178401063249       51.81212149465733       51.14479746810063
C           18.55455122163739       53.06865123725948       50.61495882153777
C           19.27671351705153       53.07317916462936       49.35691854614993
C           20.02036404993747       54.17085333404987       47.26296118127507
C           20.05364326415007       55.31178778494208       46.37249957367074
C           20.65507462654862       54.88668629859066       45.21229009237717
C           21.00739829710071       53.48670830491256       45.43846443761964
C           22.19905766095646       51.41478284783974       44.77496156265549
C           23.01082163801132       50.66026492361807       43.84194935689985
C           23.35816822074494       49.50748224903030       44.48175028056439
C           22.72917230602802       49.55677576488871       45.78382848917477
C           22.79607407489675       48.53398783422953       46.71905782245376
H           23.39393186209719       47.67240367008828       46.45441981088673
C           20.03612665580505       49.80545775801022       50.44345447163442
H           19.72176966010442       49.31936642196847       51.35416226463251
C           19.41102108113258       54.16385144500332       48.51164150412130
H           18.98819207345582       55.09595862746965       48.86109498092218
C           21.68875050521424       52.68689729263831       44.53435414749299
H           21.88126740615766       53.10153696444101       43.55443517342994
C           21.16402492709063       47.02789431348651       51.20783869742682
H           21.91469091441050       46.25440840784388       51.34357752707181
H           20.18650860771881       46.54739524539993       51.17526650799081
H           21.18911240963878       47.67954183773344       52.07742878464101
C           22.96090101782110       46.13494873631706       48.77924794973346
H           23.87288031198879       46.18286167237117       49.37576623113623
H           23.23776888901384       45.92302026989981       47.75286679317345
H           22.36874895701781       45.30106749175641       49.15056559914537
C           18.16105135791501       51.22892071832041       52.39877985891506
H           18.91450479905479       51.19541870322682       53.18727402768427
H           17.81518335406229       50.20956592800516       52.23350454275670
H           17.32365645940066       51.82197281538652       52.75433059664898
C           17.82098283129682       54.19728548385499       51.15133492051433
H           17.30595045067629       54.81867070895325       50.42751285767005
C           17.74864281445171       54.52869434397810       52.43515471008106
H           18.25543592006105       53.96786349881748       53.19884919059344
H           17.18523910002926       55.38385692702087       52.76983459985657
C           19.53566942326286       56.67057052795556       46.70653151418725
H           20.36425113968881       57.32852315184719       46.97254376336631
H           18.84847907690200       56.64640433355148       47.54574357517726
H           19.01223630613774       57.10594664299003       45.85925681701174
C           20.93839920938155       55.61551172605326       43.99816780379974
H           21.26407555427391       55.01484894677993       43.15888635238996
C           20.84949148130950       56.93217343843688       43.80713792016140
H           20.55848084901969       57.61256333097013       44.58120986972951
H           21.07865240869403       57.37810937639219       42.85464508420991
C           23.38294652742622       51.08261884377963       42.46114114089342
H           23.91234458656368       52.03350828664090       42.46628401480457
H           22.49753996292314       51.19457372739799       41.83758356220664
H           24.02564967160093       50.33917923771095       41.99868437048899
C           24.20015631693126       48.38958813340714       43.96275443233550
H           24.93591456248669       48.75865014050625       43.25299854024855
H           23.58786690364239       47.64552251610722       43.45262157564476
H           24.73515550673488       47.88892915048956       44.76484467242558
O           19.19469633702799       50.53641844652120       46.68103131110836
H           18.40664840396560       50.82168139627551       47.14853020490456
H           19.08343351971542       50.04205512713447       45.86684404454471
C           23.90971744275975       51.16437655227139       49.34798693676144
H           24.57677493422449       51.66076267395464       50.04503389695522
H           24.48046547916548       50.69296351723937       48.55621973296511
H           23.30076733844064       50.42324543993507       49.84967695431420
S           22.83500899416878       52.39744939019170       48.55618961751740
H           22.14620153721046       52.68973338417648       49.66577140395736
72
 energy: -105.971424543440 gnorm: 0.022820291055 xtb: 6.7.1 (edcfbbe)
Fe          21.00036910993538       51.31743195583070       47.54704029705876
N           21.36696400551891       49.52089659647636       48.42167827638541
N           19.87101153089662       51.85751131331207       49.13923133951477
N           20.61690818227376       53.08779123869867       46.67876881519209
N           22.04686288716680       50.72579091394080       45.94492912937836
C           22.14955074682791       48.51825389666740       47.94734128711038
C           22.20192621212946       47.42457633835411       48.89445694938316
C           21.42338264808855       47.79605596717592       49.94887935992519
C           20.89582125017044       49.10160907009116       49.62516513093561
C           19.56025524590500       51.08615401544736       50.21562020911225
C           18.73049177441338       51.81520663338637       51.14062158998770
C           18.56846621943835       53.06920443731323       50.61125433280593
C           19.28813981133020       53.06656867023261       49.35182238938061
C           20.02335525262789       54.16199838436183       47.26354107977997
C           20.05463941590267       55.30337989927668       46.37992879801308
C           20.65935287484447       54.87998331764292       45.21904192762677
C           21.01110132338960       53.48365344113474       45.44614707860161
C           22.19831609329841       51.41852280733689       44.78737510679525
C           23.00519795133835       50.66309252295455       43.85057065283113
C           23.35453566014686       49.51235031729868       44.48789405603688
C           22.72914615585127       49.56369231019799       45.79182047118692
C           22.79582726711902       48.54221400520994       46.72404064711638
H           23.38480565881476       47.67660547007751       46.45847171321592
C           20.03498809705584       49.80557679544681       50.44612598962116
H           19.72675192506745       49.32380516449517       51.36078568074525
C           19.40922272272039       54.15560600524085       48.50858916213897
H           18.96607838002008       55.08056833139707       48.84946583736524
C           21.69843577200273       52.68801259158482       44.54383105004158
H           21.90823355651778       53.10489695728550       43.56961083045267
C           21.16062699493780       47.03530861778476       51.20044521141605
H           21.91035066667411       46.26027437584523       51.33484944489327
H           20.18011763344959       46.55942377172954       51.16805500411305
H           21.18689060449813       47.68987970219297       52.06870636416767
C           22.96416524266286       46.15055357023507       48.76596448380759
H           23.87919434605027       46.19360149023990       49.35900733102153
H           23.23604317973738       45.94381295101692       47.73644682765238
H           22.36848813611579       45.31759376657263       49.13482389166562
C           18.16100008986223       51.24084609185289       52.39008681753099
H           18.91370367398549       51.20897293637507       53.17883806277837
H           17.81317784935279       50.22324743790440       52.22010496456009
H           17.32423958957937       51.83954834618778       52.73876502316006
C           17.82990140124853       54.19022721557858       51.14141230361524
H           17.32958426158223       54.81315123145939       50.40860506123078
C           17.74196124380874       54.51412686375178       52.42688162575461
H           18.26546646167694       53.96909675610630       53.19271787930782
H           17.17840392032668       55.36906414996913       52.75830947682934
C           19.52367190726767       56.65282771290386       46.71103946770194
H           20.34594961409452       57.32422278523421       46.96577486998126
H           18.84549309949595       56.61889315030739       47.55793550254757
H           18.98434669963092       57.07439531932948       45.86551721819215
C           20.93558647549361       55.60210783898472       44.00635679108017
H           21.24720761411074       54.98898317482556       43.16998414498767
C           20.85987853688000       56.91854472312409       43.80395811576524
H           20.60717417990948       57.62254869005589       44.57513743487884
H           21.08496518032637       57.34828083330129       42.84308132731554
C           23.37189038421798       51.09285228274955       42.47436454879836
H           23.89886622011116       52.04553024902680       42.48884857356883
H           22.48401879637390       51.20772027788580       41.85388836568885
H           24.01482189646586       50.35225116624505       42.00598270637625
C           24.19402417473979       48.39710199003156       43.97005730700736
H           24.92502852908952       48.76744697370714       43.25528555224892
H           23.57876189392015       47.65060638588372       43.46593904764408
H           24.73138716068390       47.90234985118239       44.77458992195140
O           19.18468965394392       50.47745592540355       46.71294345691376
H           18.36399833689356       50.82505871618897       47.09856799063841
H           19.05798510493300       50.06233846897159       45.84608780487038
C           23.92434272900555       51.15138885670818       49.35889956553170
H           24.59017415612912       51.65814671976785       50.04933741352257
H           24.49059816539663       50.67975725188074       48.56443961665602
H           23.31497458636776       50.41340009080002       49.86448186415999
S           22.84699582509726       52.38339476149694       48.55383046723025
H           22.18471605305927       52.72065716133172       49.67160196349843
72
 energy: -105.972299165456 gnorm: 0.047416162742 xtb: 6.7.1 (edcfbbe)
Fe          20.99848432087992       51.31034668715187       47.55455562152730
N           21.37033402196518       49.53193051671226       48.43034878493149
N           19.88099538607646       51.85036539350724       49.13698686676639
N           20.60919896993021       53.07359240963230       46.67862146851179
N           22.03967797396426       50.72742465643410       45.95711055687826
C           22.15196886962149       48.53237756389814       47.95218893346463
C           22.20606054112828       47.43680425461572       48.89210759751572
C           21.42400205701513       47.80182631538622       49.94546087364706
C           20.89636389448477       49.10590610944243       49.62930300270357
C           19.56845762170347       51.08283494306345       50.21582671856915
C           18.74230779100235       51.81708071345800       51.13748127342876
C           18.58480081877649       53.06761365289812       50.60519368279265
C           19.29840322777613       53.05675550286358       49.34331763735944
C           20.01738985610265       54.14937689460711       47.26232218942800
C           20.05363564510291       55.29092529689530       46.38707666256894
C           20.66605977455500       54.87087604002478       45.22992316818564
C           21.01408505893153       53.47712407872974       45.45238940818344
C           22.19401685200386       51.42172792927668       44.80138345594935
C           22.99847218348024       50.66781350121489       43.86351988086628
C           23.34921794063907       49.51766197444692       44.49708502224874
C           22.72530700184531       49.56786752984362       45.80165089943878
C           22.79691445195612       48.54834701379128       46.73007802934266
H           23.37963019503019       47.67996826679587       46.46529013929356
C           20.03761088562576       49.80599430719598       50.45298992393305
H           19.73052613872738       49.32668297039948       51.36930701426682
C           19.40094169022512       54.14510991349515       48.50228755518145
H           18.94293670651341       55.06273612323948       48.83784350786323
C           21.71039089114990       52.68991006620832       44.55305161302840
H           21.94336463338461       53.11153144674179       43.58669489167129
C           21.15551765335780       47.04019845673474       51.19568337959792
H           21.90128885842094       46.25983950467707       51.32882299773932
H           20.16967783457993       46.57305081426195       51.16148479709285
H           21.18602888290673       47.69768793197976       52.06348880932716
C           22.96944088782071       46.16556123120080       48.74912996785561
H           23.89043620156734       46.20468989841263       49.33472290325154
H           23.23315484618105       45.96949559005138       47.71358993027275
H           22.37387685158494       45.32989080159619       49.11458855300185
C           18.16005748818516       51.25367540101406       52.38382907771683
H           18.90756423524760       51.22427593972387       53.17818148528617
H           17.80835449423672       50.23717304379915       52.21220388205708
H           17.32330932345670       51.86195512955347       52.71988141360126
C           17.84745847721653       54.19363002044798       51.12929308089644
H           17.34520714367562       54.80815428996907       50.39105321206643
C           17.75181334294312       54.51306877493162       52.41559240499805
H           18.25904070363882       53.95733690473180       53.18502702394409
H           17.15979324070208       55.34998567783368       52.74727696734878
C           19.50872426485467       56.63563107487376       46.70943526646496
H           20.32163850263830       57.32331970448023       46.95357944849948
H           18.83671081124351       56.59629091209765       47.56304904142178
H           18.95974460899675       57.03989521054008       45.85981954995134
C           20.93937074296885       55.58826935910932       44.01314561312351
H           21.21518186861854       54.96227454868654       43.17104431011176
C           20.88538024435613       56.90393013061760       43.80704751968332
H           20.64767171611512       57.62124534181299       44.57197095669878
H           21.09027443814585       57.31650012988201       42.83195129852627
C           23.35871601714969       51.11007086997195       42.48872840695556
H           23.88281701740149       52.06556521558656       42.51430279228948
H           22.46585468314531       51.22918480913627       41.87415608345032
H           24.00238858461046       50.37450462366462       42.01077569243522
C           24.18871410615127       48.40221290403815       43.97906785718494
H           24.91234348479476       48.77381190490605       43.25570180477316
H           23.56947671853780       47.65125000290227       43.48435625276725
H           24.73300211199129       47.91614899469776       44.78565570363813
O           19.17187352344807       50.39978008661206       46.75271340061571
H           18.33394257527515       50.83751788461673       47.04062800329656
H           19.01888979092319       50.11159900669011       45.81451688415934
C           23.94266667506874       51.13757383769518       49.36988022468448
H           24.60881490205425       51.65168470960793       50.05536620853237
H           24.50742401714360       50.65902421053440       48.57758216737436
H           23.33173722918661       50.40438922292611       49.88359715110460
S           22.86981080750173       52.37179334231757       48.54922110397841
H           22.23825469235799       52.75635047910566       49.67346099267802
72
 energy: -105.972986137966 gnorm: 0.026301426640 xtb: 6.7.1 (edcfbbe)
Fe          20.99651469436153       51.30521175691948       47.56039706591194
N           21.37037006801476       49.54096737608364       48.43443653526880
N           19.88999374534486       51.84488471866063       49.13476622910779
N           20.60622614506972       53.06481880906496       46.68005331795747
N           22.03222880059737       50.73012619094050       45.96555022099952
C           22.15318524309956       48.54077218260641       47.95350558941412
C           22.20641561024621       47.44421330994608       48.89013737682563
C           21.42375190984101       47.80527863231962       49.94239800585881
C           20.89669978643570       49.10995575880067       49.63253640598163
C           19.57509818134204       51.08125273835413       50.21608546058811
C           18.75111757587904       51.81693895189154       51.13631975285230
C           18.59540928585214       53.06490181464723       50.60057658843603
C           19.30583519628199       53.05126212275810       49.33807583195782
C           20.01111588869831       54.14274405187816       47.26213897600616
C           20.05201952609655       55.28313129109078       46.39141997536965
C           20.67104403631749       54.86638093095090       45.23887972442061
C           21.01891943216594       53.47431706895690       45.45567148301769
C           22.19161408289343       51.42505462238994       44.81035118582249
C           22.99519987299858       50.67280846831663       43.87349902103939