72
 energy: -105.980559199756 gnorm: 0.000127311598 xtb: 6.7.1 (edcfbbe)
Fe          21.05082010964575       51.26458120243430       47.56629673103041
N           21.37664156912183       49.48703520227259       48.40289098313472
N           20.03437684681428       51.85219760816155       49.18647362181058
N           20.65491970539667       53.03195295806299       46.68023324393331
N           22.00663085688850       50.66185917165436       45.91036540586033
C           22.08306581821574       48.45383657123178       47.87855005076504
C           22.10360102603283       47.33112832908292       48.79185183784105
C           21.38046337392029       47.71061003685671       49.87786813690897
C           20.93509331725027       49.06242135046417       49.61554233593323
C           19.76485235623236       51.10839390257267       50.29325553913336
C           19.00953880460754       51.87181583114619       51.25318724498860
C           18.82833810762493       53.11203947010978       50.70185354349468
C           19.46330105388219       53.06637502305782       49.39910464709290
C           20.01959047632533       54.10013111071162       47.24086621663412
C           19.96826838535398       55.20475962016062       46.32007902010935
C           20.59350038466728       54.78197795077193       45.17626257211764
C           21.01647325797617       53.42068974084973       45.42957213440128
C           22.20448401703957       51.37745829000277       44.77091891952230
C           22.99470806912983       50.62178591819883       43.82448561686047
C           23.28179534369347       49.43715727907081       44.42696647178024
C           22.65572031197355       49.48150913803438       45.72939662961020
C           22.69951611339826       48.44622970761503       46.64193972358810
H           23.24564771738766       47.55888100854775       46.36246221840255
C           20.18007314231669       49.80449760806773       50.50014073018003
H           19.90031148642173       49.33480097041318       51.43022396389899
C           19.47963441069654       54.12723873577592       48.51459803852118
H           19.01918974777457       55.04837410278808       48.83569300207456
C           21.73600705295204       52.65452828686286       44.53171155162320
H           21.97846410828376       53.09988594219536       43.57978907026988
C           21.06743386551718       46.94960769628561       51.11965187995147
H           21.50911220436423       45.95688180307654       51.08610642933713
H           19.98940272919273       46.84143120095037       51.23911855278844
H           21.45506496382309       47.46836103796124       51.99691458311913
C           22.79742851098032       46.04106036198669       48.52072278833490
H           23.86175766715851       46.20584825561765       48.35144884520714
H           22.38362289523246       45.56373872628580       47.63228389785557
H           22.68553633714573       45.35841795250051       49.35934388267812
C           18.49031409745429       51.34706168365822       52.54542118303042
H           19.26605502129142       51.36013669019412       53.31312788574945
H           18.14532640287527       50.32061004666465       52.43161072882945
H           17.65819111918356       51.95851823816540       52.88799971485669
C           18.12595787483812       54.25698953920983       51.23856725072236
H           17.60858985781157       54.87331664783083       50.51266180292650
C           18.08021415527223       54.59735223994986       52.52219585976637
H           18.61260835079343       54.04914964924966       53.27984521802402
H           17.52553980436323       55.45795165493936       52.85705792284064
C           19.28765146975410       56.50311662004938       46.57701603822618
H           19.92978532703901       57.17147416853754       47.15284273697336
H           18.36774052341023       56.35235796956037       47.14001743373950
H           19.04332779522893       56.98879628952329       45.63456984520056
C           20.79897036956941       55.48841504348206       43.93069179292266
H           20.76924405959413       54.87761402877309       43.03571700370264
C           21.02286242041215       56.79285317007565       43.81444464703862
H           21.11120903336166       57.43756866723372       44.67130617454421
H           21.15490292873442       57.25757198853483       42.85158293050209
C           23.38516004996758       51.11548441040581       42.47446667515032
H           23.98061231345663       52.02462240003841       42.55852737388695
H           22.50153741638978       51.34369850546103       41.87780181429791
H           23.97194806328848       50.36910915674027       41.94508322680040
C           24.06927006820876       48.28156034107970       43.91395536366379
H           24.43991834599858       48.48080384106291       42.91166659919646
H           23.45373195677493       47.38228916521901       43.88033290156537
H           24.92256871282217       48.08348027971977       44.56258146508564
O           19.15945752926671       50.53049841987730       46.60417282951833
H           18.73356849773105       51.36828018856399       46.38874418892683
H           19.50586253948241       50.16859794260375       45.78019941122120
C           23.35357833734725       51.49251639593027       50.06141777937290
H           24.08383658141813       52.11032403481905       50.57496703699973
H           23.74963820555331       50.49433250373310       49.90655541325586
H           22.42273505060939       51.43643578558594       50.61539973081790
S           23.03927883760865       52.19165161542457       48.40265011002059
H           22.52942073867266       53.34396157627272       48.85263184983902
