78
 energy: -115.930587386328 gnorm: 0.305762456789 xtb: 6.7.1 (edcfbbe)
Fe           9.90900000000000        2.08900000000000       27.05200000000000
N            9.07300000000000        2.17700000000000       28.79000000000000
N            9.92600000000000        4.03600000000000       26.84100000000000
N           10.58300000000000        2.03600000000000       25.11400000000000
N            9.67500000000000        0.10700000000000       27.04700000000000
C            8.62500000000000        1.13100000000000       29.61499999999999
C            8.08900000000000        1.63500000000000       30.85300000000000
C            8.15900000000000        2.96000000000000       30.78100000000000
C            8.79400000000000        3.33200000000000       29.49800000000000
C            9.49500000000000        4.92200000000000       27.79500000000000
C            9.62700000000000        6.24900000000000       27.20900000000000
C           10.08600000000000        6.13900000000000       25.94800000000000
C           10.30200000000000        4.77400000000000       25.71400000000000
C           11.05400000000000        3.05100000000000       24.28600000000000
C           11.71900000000000        2.51300000000000       23.11100000000000
C           11.53600000000000        1.16600000000000       23.14000000000000
C           10.92400000000000        0.86000000000000       24.41000000000000
C            9.93300000000000       -0.72000000000000       25.93900000000000
C            9.52600000000000       -2.09700000000000       26.18200000000000
C            8.93500000000000       -2.10000000000000       27.56200000000000
C            9.06800000000000       -0.66100000000000       28.02600000000000
C            8.68800000000000       -0.20200000000000       29.27100000000000
H            8.42100000000000       -0.93900000000000       30.02800000000000
C            9.06600000000000        4.61700000000000       29.05200000000000
H            8.92700000000000        5.43900000000000       29.75500000000000
C           10.90400000000000        4.33800000000000       24.55800000000000
H           11.26900000000000        5.07500000000000       23.84300000000000
C           10.62700000000000       -0.39000000000000       24.81900000000000
H           10.97600000000000       -1.21100000000000       24.19300000000000
C            7.76000000000000        3.93600000000000       31.94400000000000
H            8.58900000000000        3.99300000000000       32.68100000000000
H            6.84900000000000        3.55800000000000       32.45500000000000
H            7.57200000000000        4.95100000000000       31.53400000000000
C            7.51800000000000        0.83400000000000       32.06900000000000
H            7.89100000000000       -0.21200000000000       32.03200000000000
H            6.40800000000000        0.82200000000000       32.02300000000000
H            7.85400000000000        1.30300000000000       33.01800000000000
C            9.18400000000000        7.54400000000000       27.92299999999999
H           10.07100000000000        8.04400000000000       28.36900000000000
H            8.46400000000000        7.29900000000000       28.73300000000000
H            8.71200000000000        8.23300000000000       27.19100000000000
C           10.40400000000000        7.22300000000000       24.86600000000000
H           10.43600000000000        6.98900000000000       23.79300000000000
C           10.64300000000000        8.48300000000000       25.29600000000000
H           10.61200000000000        8.72200000000000       26.36900000000000
H           10.87200000000000        9.28400000000000       24.57800000000000
C           12.22900000000000        3.37000000000000       21.91400000000000
H           12.17100000000000        4.44800000000000       22.17800000000000
H           11.59500000000000        3.18300000000000       21.02100000000000
H           13.28600000000000        3.11000000000000       21.69000000000000
C           12.00400000000000        0.13200000000000       22.07700000000000
H           11.75000000000000       -0.93100000000000       22.20300000000000
C           12.72900000000000        0.48400000000000       20.97400000000000
H           13.00900000000000        1.53400000000000       20.80200000000000
H           13.04100000000000       -0.27800000000000       20.24500000000000
C            9.54300000000000       -3.27300000000000       25.21300000000000
H           10.59400000000000       -3.56700000000000       25.00500000000000
H            9.05500000000000       -2.98000000000000       24.25900000000000
H            9.01000000000000       -4.13800000000000       25.66300000000000
C            8.22100000000000       -3.29100000000000       28.26600000000000
H            8.96600000000000       -4.07700000000000       28.51200000000000
H            7.45300000000000       -3.72200000000000       27.58800000000000
H            7.74400000000000       -2.94000000000000       29.20600000000000
O            7.47700000000000        2.28600000000000       26.17700000000000
H            7.35900000000000        3.20300000000000       25.92900000000000
H            6.86700000000000        1.64200000000000       26.11499999999999
C           15.52300000000000        2.64100000000000       27.55600000000000
H           16.16500000000000        1.74500000000000       27.41700000000000
H           15.91000000000000        3.23200000000000       28.41400000000000
H           15.55200000000000        3.25300000000000       26.62900000000000
N           13.77400000000000        1.42900000000000       28.91300000000000
H           14.42000000000000        1.08900000000000       29.59600000000000
C           14.11900000000000        2.21000000000000       27.83200000000000
C           12.47200000000000        1.20800000000000       28.89700000000000
H           11.93500000000000        0.61800000000000       29.63800000000000
N           11.96200000000000        1.82000000000000       27.84400000000000
C           12.97000000000000        2.45500000000000       27.16300000000000
H           12.77200000000000        3.02300000000000       26.26300000000000
78
 energy: -116.007368755160 gnorm: 0.131438011814 xtb: 6.7.1 (edcfbbe)
Fe           9.86671523616204        2.07209146211756       27.01500810499751
N            9.06082461559446        2.17285391206799       28.80190535285893
N            9.92968411431173        4.03667853612049       26.82982094495142
N           10.61446136805568        2.00608013815440       25.08956931493551
N            9.64830201704929        0.08499389372147       27.03494525757649
C            8.63525928231513        1.12667821086471       29.61194085179710
C            8.09537369964056        1.63276877545893       30.85843795557844
C            8.17802405297760        2.98173569228926       30.79469040064697
C            8.79761649226563        3.32533304153867       29.50771367262654
C            9.51126702279897        4.93441830114568       27.77722363416688
C            9.61390707345595        6.27721599536426       27.21996570631310
C           10.08561849330355        6.16918248337378       25.94536107699333
C           10.30401946992662        4.78011119119219       25.72454546153657
C           11.07070209206420        3.01962176134305       24.27710611956647
C           11.70072188205084        2.50878167552202       23.07713908350051
C           11.56602902212718        1.14799841842296       23.12276776116042
C           10.92714000717617        0.85157420384858       24.39327028831827
C            9.93620796190965       -0.75046147062275       25.97241235537937
C            9.49321141415843       -2.10138997670595       26.23142011433773
C            8.93786805713157       -2.09048754210921       27.53517799293398
C            9.07813390740398       -0.69219140235132       28.00767549306545
C            8.69393350625774       -0.21232448961205       29.25662154716467
H            8.40883250814625       -0.93774784296361       30.01195955514999
C            9.06716730005297        4.61123634673624       29.04918229827449
H            8.91348536848316        5.43011072588512       29.74577078986341
C           10.90601751759093        4.33700114823928       24.56538570966029
H           11.26114706374352        5.07450911742720       23.85627771540381
C           10.62482813378911       -0.41112105372913       24.82341671099060
H           10.95837141066162       -1.22350510045893       24.19094232642345
C            7.76841938173351        3.93205400878615       31.92097868100721
H            8.57676382403388        3.99183044372860       32.66206895322316
H            6.86970945222680        3.56436475342252       32.43249284584439
H            7.57356965301021        4.93764414620775       31.53743995102849
C            7.53158038527229        0.83970082939615       32.04115097299805
H            7.88645192492963       -0.19651451984776       32.02778220357529
H            6.43337738552489        0.82620725072255       32.01689393024554
H            7.84902518121340        1.29645816326652       32.98757978522353
C            9.18199487785622        7.53903984902017       27.92792634829077
H           10.05459925544243        8.03760308212474       28.37069667941828
H            8.47015454543719        7.30513268437391       28.72457435860021
H            8.71314589094219        8.22082676343146       27.20901384610837
C           10.39102134071066        7.22728831152945       24.91249804059456
H           10.42366093138408        6.97500983083536       23.84887382921351
C           10.64079630238491        8.47828439161035       25.29664252156138
H           10.62855902826835        8.73521427749486       26.34577452153365
H           10.86843286243164        9.26722884202836       24.58460152620086
C           12.21930521824435        3.37024442375204       21.93394928122725
H           12.16857294199820        4.43547336304759       22.17783583010350
H           11.60780044831843        3.18793308017937       21.04028567261974
H           13.26634175757979        3.12983496954965       21.70840280946194
C           12.01108584971371        0.15625777986254       22.08673547422564
H           11.74538423030253       -0.89405746751252       22.22162308782217
C           12.71468000230422        0.47740332338554       20.99191400975737
H           13.00899575376491        1.49580169031371       20.79187963670346
H           13.02602841316638       -0.27272613915646       20.26941815738193
C            9.54035699783880       -3.25038595341783       25.24375770277638
H           10.57391731426843       -3.55547026145593       25.01734819406363
H            9.06460943388329       -2.97963670093729       24.28859782136295
H            9.01772138027518       -4.12045257613788       25.65694533577611
C            8.24475457362381       -3.25623599071853       28.24624656380127
H            8.95872880052565       -4.05323695552799       28.50126344477460
H            7.47449899356485       -3.70199975909249       27.59970377055878
H            7.75938514804746       -2.93591460489725       29.17774734127848
O            7.52211455726884        2.29719278402469       26.18803928891142
H            7.35814366252251        3.20136817228159       25.92849743819411
H            6.86220820371181        1.63165419782711       26.11513451823633
C           15.52394281911457        2.63678899780060       27.55912846798465
H           16.16566501460602        1.75831860727161       27.41824885893090
H           15.91292378887434        3.22600065688210       28.39896366021085
H           15.55229464807871        3.24296697471966       26.64805864940694
N           13.78277154937298        1.43201083405013       28.90939793236755
H           14.42884946716013        1.08656423304629       29.59791905893698
C           14.12448595816519        2.21060693183406       27.83274768372779
C           12.45898014595459        1.22129911893941       28.87966006705708
H           11.93022810450920        0.63342626520888       29.61429051201635
N           11.93178632305338        1.83386049213497       27.83802652184741
C           12.95872339870881        2.45080406958237       27.17183263992148
H           12.77058278807220        3.01518618274828       26.27675797771596
78
 energy: -116.032798651156 gnorm: 0.041417881391 xtb: 6.7.1 (edcfbbe)
Fe           9.84522090862087        2.05774731377915       26.98182438105328
N            9.04942791815077        2.16702092705168       28.80968749155094
N            9.92792625733983        4.04110165457555       26.82003897246876
N           10.63463011326804        1.97366582645366       25.05901372491034
N            9.63356082373511        0.06563275174373       27.01957650930671
C            8.64252863365490        1.12474372467338       29.60157566859752
C            8.10990961275510        1.62974155825995       30.85667327349890
C            8.20094150902682        2.99204553718663       30.79822867865059
C            8.80295667868613        3.31592042468187       29.51065676567043
C            9.51695027323188        4.94054194219972       27.76334328543072
C            9.60616591285852        6.29158591100455       27.23490367030535
C           10.09094271698371        6.18921061230710       25.95223759236295
C           10.30495994427782        4.78094312350954       25.73459580113610
C           11.07669133708807        2.99301027867514       24.27057450897275
C           11.68474388526481        2.50601429882521       23.05744160711413
C           11.58811016632727        1.13277144566619       23.10973759233979
C           10.93575037345025        0.83716109169040       24.38203947290274
C            9.93347060791608       -0.76901178619417       25.98672421514791
C            9.47277724957436       -2.10707001370960       26.27167588031735
C            8.94190422404289       -2.08360870384025       27.51531305984023
C            9.07287803569777       -0.71153813487990       27.98684711617000
C            8.68870515041505       -0.21686618395040       29.23531782112181
H            8.38661975528246       -0.93452166543780       29.98767915254879
C            9.06304040501673        4.60095507661654       29.04071573457817
H            8.89095941708188        5.41772665959923       29.73045204242401
C           10.90274843105325        4.32719069590271       24.57543110422364
H           11.25113317546191        5.06460792249449       23.87014903465807
C           10.61820890159941       -0.43190002443910       24.82307211457449
H           10.92977487133656       -1.24435387393900       24.18611001981159
C            7.78513029221612        3.92582704131361       31.89226195672898
H            8.57466752023168        3.99484694144547       32.64430864653047
H            6.89041901811992        3.56164704031839       32.39804355755440
H            7.58107186106039        4.92673395068400       31.52509593892617
C            7.55037911509218        0.84710738459398       32.01005861523700
H            7.89182445405675       -0.18446281524642       32.00773998815448
H            6.45808139963096        0.83587460956028       31.99397789256493
H            7.85403753653194        1.29692511474219       32.95644464496669
C            9.17793716207019        7.53013561908140       27.93702939832889
H           10.03843924259883        8.03283626992251       28.38086965489828
H            8.46841441983402        7.30727535223454       28.72646708966200
H            8.71233680161919        8.21275173226002       27.22778108061769
C           10.37781861077447        7.22230186657177       24.97024340737062
H           10.39957937808795        6.94767959711159       23.91687724631378
C           10.63943445888123        8.48132327564315       25.30420614744401
H           10.65418222710139        8.77005857496682       26.33594811143297
H           10.86295978993847        9.25082278683950       24.58342704335764
C           12.20728112807009        3.36757714136995       21.95460484848168
H           12.15320743184615        4.42418397262656       22.19482626221090
H           11.61973086425539        3.19361668688214       21.05081836659870
H           13.25112885644367        3.14273823192144       21.73404601906245
C           12.01155126896815        0.17802771388447       22.10627868620857
H           11.73629113234417       -0.86097310526827       22.25893062485077
C           12.70657678725850        0.46782600611173       21.00863782183691
H           13.01835282170727        1.46401652474803       20.77457985738574
H           13.00351379098724       -0.28166151513508       20.29246912249719
C            9.53489940748414       -3.23658358557550       25.27909534002234
H           10.56267911603367       -3.52985382078120       25.04884483452485
H            9.06686244059060       -2.96125915534526       24.32979356357387
H            9.01866167612480       -4.11160835186093       25.66708851371146
C            8.26545855960058       -3.22407643620436       28.22980650799186
H            8.97064602950722       -4.01913351277159       28.48550349287492
H            7.49690354805732       -3.67386725810654       27.59599002103643
H            7.78020220437892       -2.90872885437822       29.15233639300901
O            7.58422962238661        2.29511474713151       26.19428926561526
H            7.35356295612343        3.18827708635998       25.93063192613651
H            6.88642905100102        1.64163239245603       26.12127265678590
C           15.52232867286617        2.63316874221346       27.56023102114709
H           16.16514672943890        1.76547809902900       27.41957368730568
H           15.91390778110545        3.22069105466432       28.38952120143439
H           15.55129459948909        3.23698657389413       26.65951724104192
N           13.78216134382878        1.43289494691629       28.90538807259211
H           14.42457809916708        1.08141037974375       29.59820779861050
C           14.12470539662359        2.21158758301568       27.83186823299522
C           12.44416819477934        1.23591250230875       28.86325456118663
H           11.91803421424150        0.65063448086836       29.59145773374793
N           11.91364301612708        1.84539902629722       27.82922859262358
C           12.94996825034526        2.45355373885210       27.17845229860706
H           12.77354443177498        3.01686523158312       26.28603872251558
78
 energy: -116.040386429969 gnorm: 0.022413132826 xtb: 6.7.1 (edcfbbe)
Fe           9.83999840420877        2.05193414846701       26.96179334757988
N            9.05141614957863        2.16426944447088       28.80229435076796
N            9.92548165413773        4.04260022312761       26.82346010905938
N           10.64373881079526        1.95299827274132       25.05085688396628
N            9.62461329504546        0.06417800343091       27.00012492443678
C            8.65112858372471        1.12585437377185       29.58868159130627
C            8.13300642793937        1.62776341184882       30.84697903265258
C            8.22637741079879        2.98915115853409       30.79101976798376
C            8.81295089145313        3.30923203623877       29.50458331726859
C            9.51285968802268        4.93762056178345       27.76709837441864
C            9.60492743009415        6.28935380376184       27.25889371727123
C           10.09877582682347        6.19367597808283       25.97950135288187
C           10.30615723440842        4.78107925736131       25.74680560526144
C           11.07065814265293        2.98284836283087       24.27260090698778
C           11.67516412511405        2.50634679927147       23.05854831279011
C           11.59610631871758        1.13044593252706       23.10681647985782
C           10.94189621435604        0.82170649833426       24.37408075866682
C            9.93382167196043       -0.77467625606088       25.97594640664477
C            9.47357589256171       -2.11140519434298       26.27076631453458
C            8.93403035312720       -2.07458834234594       27.51921047968963
C            9.06364291610027       -0.70398098103683       27.97523788848663
C            8.67975616282266       -0.21289903994560       29.21807752633500
H            8.34991127231423       -0.93047227500572       29.95913238395892
C            9.05574350183178        4.59340880731033       29.03738048466707
H            8.85695333978668        5.40872707256040       29.72074627839571
C           10.89567670162708        4.31887258620430       24.58686118408284
H           11.24040371013884        5.05598590970921       23.88066757767963
C           10.61397829106691       -0.44860698532982       24.81059710378974
H           10.89665100392727       -1.26835057456618       24.16684071297380
C            7.80220539145025        3.92796413162716       31.87030977053076
H            8.58340354217610        4.00654947275846       32.63032825860363
H            6.90358564720627        3.55749382748509       32.36300161900537
H            7.59484204545484        4.92520215963070       31.49435804343846
C            7.56906704781677        0.84465224310982       31.98659795755552
H            7.90645304250795       -0.18777846184271       31.97908850625198
H            6.47736806946801        0.84278220254207       31.95903206526447
H            7.86942669413159        1.29427190968782       32.93294878593611
C            9.16766786453334        7.52390928750289       27.96176337343783
H           10.02228443769255        8.03117169371895       28.41222250248113
H            8.45186324032424        7.30133904718257       28.74664446777506
H            8.70564041841217        8.20833459634965       27.25113778836446
C           10.37168547850819        7.22844349535079       25.01299346109929
H           10.37057668203131        6.93188935812027       23.96817975107198
C           10.64323268624448        8.49797205617390       25.31242682657361
H           10.69833562486559        8.82161360395170       26.33722829246864
H           10.85187670750871        9.24380931365765       24.56387844466007
C           12.20012858501011        3.38027280249868       21.97274688949537
H           12.11998050459195        4.43300422731163       22.22421707638157
H           11.63736718341174        3.20312499938628       21.05265495841958
H           13.25367797303453        3.17739524280523       21.77704210380290
C           12.01470967152314        0.17411731066627       22.11775583226104
H           11.72879691969335       -0.85608183659298       22.29937660550096
C           12.70178162969681        0.43146022364052       21.00324759221597
H           13.03532646529927        1.41482905767508       20.73570305337518
H           12.97736151252752       -0.34090147036509       20.30584918180204
C            9.53416369906238       -3.24222333660655       25.29733712903732
H           10.56593800542900       -3.51993256504248       25.07943273656812
H            9.06465893432210       -2.95314304645514       24.35600639930922
H            9.01778597406948       -4.11486982281186       25.68692867224333
C            8.27141061507896       -3.20708209041695       28.23402505917945
H            8.99022734676738       -3.98925533945330       28.48209099234547
H            7.50801662533099       -3.65398693316142       27.59544101987068
H            7.79209077898232       -2.87810723048225       29.15125916180607
O            7.65587129922808        2.28562865579478       26.16745312934384
H            7.36432904609465        3.17836252819521       25.94395621788852
H            6.93745782384527        1.64614599041533       26.14298942293409
C           15.51768215851741        2.62987249987946       27.56200113597587
H           16.16117045699693        1.76257984646406       27.42109760487645
H           15.91296712932827        3.21663999614666       28.39018662664453
H           15.54994737338528        3.23520805687486       26.66265341046817
N           13.76450449979737        1.43451938814489       28.89823477534677
H           14.40084209832683        1.07452547031120       29.59272846976168
C           14.11667620941397        2.21537025969613       27.82849691051010
C           12.42281467003540        1.25060479432302       28.84694882067592
H           11.88781612339796        0.66741126622568       29.56856799703607
N           11.90215756380215        1.86666211200068       27.81530022654289
C           12.94534130217584        2.46846494701180       27.17312173177860
H           12.78008377635518        3.03669106517933       26.28240596768854
78
 energy: -116.044409214287 gnorm: 0.035729810189 xtb: 6.7.1 (edcfbbe)
Fe           9.85396539099266        2.05157505359924       26.94995122213819
N            9.05733162580711        2.16470443582444       28.79001315244156
N            9.92477524768418        4.04685098174619       26.83209618220170
N           10.64652420360153        1.93723617542867       25.05176363994275
N            9.62700167385165        0.07275719215149       26.98105398067224
C            8.65855862587421        1.12907271039300       29.57234156228285
C            8.15690461428390        1.62493167251970       30.83482571569624
C            8.25152234792660        2.98371632110851       30.78228383717004
C            8.82318835903387        3.30425823467034       29.49681449020161
C            9.50636584859395        4.93610142194928       27.77636744268188
C            9.60591111930176        6.28745459989412       27.28667880029460
C           10.11065666847318        6.20033246852695       26.01266593670399
C           10.31119260124559        4.78548944425235       25.76247531419032
C           11.06146521707378        2.97604482969684       24.27978402169641
C           11.66387577978196        2.50680069210549       23.06331351947715
C           11.59544973138632        1.13183546629550       23.10524730778850
C           10.94192078705130        0.80995902995670       24.36720757001842
C            9.93084868264042       -0.77343451366046       25.96261631942281
C            9.47457761847306       -2.10906584239827       26.26852991516922
C            8.93042041115824       -2.05967821367103       27.51728563037580
C            9.05566216134865       -0.68719577103480       27.95786356257019
C            8.66418816167073       -0.20538250636127       29.19438658529583
H            8.30629293419609       -0.92422881841633       29.92099457888350
C            9.04398326472467        4.58938093903532       29.03660085625729
H            8.81751252868847        5.40111378021334       29.71451258941114
C           10.88855846890922        4.31188668980256       24.60194885593270
H           11.22689857605147        5.04788055733265       23.89125547698722
C           10.60147884723659       -0.46101228238831       24.79348271318183
H           10.85557377588502       -1.28878573388486       24.14585800154319
C            7.82032717568423        3.93104096003451       31.85028721294559
H            8.59435549923934        4.02344965681081       32.61592757797423
H            6.91663351583863        3.56051187343960       32.33333856357659
H            7.61379850167425        4.92219022684097       31.45576118776998
C            7.58982548884156        0.83581316645166       31.96500142059848
H            7.92557376702248       -0.19717957052069       31.94815632876578
H            6.49819383799394        0.83974324147643       31.92419774728310
H            7.88607188107249        1.28005210240605       32.91475059240481
C            9.15868490303213        7.51912785346797       27.99179000420878
H           10.00581677110086        8.02800084989533       28.45549425728224
H            8.43206084109583        7.29195672297260       28.76782455612486
H            8.70396607892515        8.20588457490319       27.27735016364520
C           10.37326750367513        7.24090281615622       25.05135995854408
H           10.33943882958152        6.93248828160208       24.01185550588301
C           10.65513736483692        8.51336540666031       25.32576650555186
H           10.73295061334681        8.87135146269668       26.33947827499369
H           10.83226065790548        9.23874289481670       24.54763968828324
C           12.19841318924791        3.38150829099709       21.98381405007055
H           12.09307017749421        4.43309747311850       22.23877698981842
H           11.65997790920131        3.20164657047064       21.05038040131188
H           13.25785624604035        3.18738067347903       21.81095018221108
C           12.01409995722084        0.16710636039330       22.12529800232068
H           11.72679425001187       -0.85701340972351       22.33347283805639
C           12.70048765648797        0.39932236746059       21.00528745981139
H           13.04441871188354        1.37482857971350       20.71304010047218
H           12.95295432980920       -0.39857906289030       20.32562376645901
C            9.53748260188292       -3.25046244437411       25.31696668703806
H           10.57133739047187       -3.52295304340030       25.10835233079667
H            9.06708298164773       -2.96639878876401       24.37583950282447
H            9.02290160339810       -4.12055327728585       25.71354002373456
C            8.27890338409719       -3.18829697953134       28.24061436382597
H            9.00721071376454       -3.96076104674747       28.48844493919572
H            7.51601036153420       -3.64296124581250       27.60757930297245
H            7.80405350538912       -2.85256521082293       29.15648566531709
O            7.74468145933686        2.25788907531718       26.07935839562097
H            7.38587751961010        3.16424181032274       25.97629452301313
H            6.97413594173373        1.66013374263122       26.18386403987111
C           15.51150210452968        2.62674115291392       27.56556892784843