72
 energy: -105.980694716512 gnorm: 0.000079630599 xtb: 6.7.1 (edcfbbe)
Fe           3.30258491196370       -2.91076556052937       15.29880375555059
N            1.94770576343036       -3.06632832752811       16.74962779008941
N            3.97800624543194       -4.74659791118431       15.71883922746476
N            4.71257210094625       -2.72106096650743       13.86972638793779
N            2.69180265443313       -1.03848573057641       14.92720209859542
C            1.00867128621418       -2.14871954917661       17.09275115243395
C            0.18966197030248       -2.63622076497552       18.18205890946039
C            0.66903757020230       -3.86807306817913       18.49699510469071
C            1.76843838968014       -4.11878675287023       17.58980418588597
C            3.54445109508511       -5.56599904203739       16.71459955439360
C            4.28317502358608       -6.80260752907365       16.71981887675219
C            5.18215530389364       -6.71824097669042       15.69049368685327
C            4.98060360367981       -5.41387682626746       15.09025593016113
C            5.58447033783849       -3.68332732449517       13.45438614792944
C            6.40351429820666       -3.19867515723549       12.37524846520101
C            6.01350648237661       -1.90502726687144       12.14645712762629
C            4.94133337349490       -1.63772190709840       13.08229727243140
C            3.20238186578618       -0.17566014422552       14.00826347648661
C            2.46818548689187        1.07020513109484       14.01507090542553
C            1.48818324287357        0.93053169787547       14.94724264300263
C            1.64540596419481       -0.39322565623972       15.50680150634000
C            0.84790394540934       -0.90598284283615       16.51057833602063
H            0.04936899167692       -0.28176737529919       16.87996366583931
C            2.51100676886304       -5.28155914019847       17.59000617442384
H            2.26012871219615       -6.03110760833744       18.32429077554207
C            5.70779660071643       -4.94257780894349       14.01454810933147
H            6.45268628995109       -5.59907686351949       13.59295822911974
C            4.26056319026751       -0.43724698738270       13.15984686723067
H            4.55964608738569        0.34986765879082       12.48587054988110
C            0.21054787725786       -4.82272676147542       19.54464632665185
H           -0.63253615742091       -4.41496722847473       20.09659966769791
H            1.01485245157032       -5.02922917786745       20.25077647978130
H           -0.09724106315523       -5.76770120013378       19.09609337317457
C           -0.93604061119496       -1.87465807613486       18.79196277303776
H           -1.68244808622687       -1.62344309734424       18.03817614434906
H           -0.57445182406650       -0.94542698240900       19.23271644490769
H           -1.41928703520383       -2.45769183714896       19.57192565505110
C            4.11273378329379       -7.89648292232732       17.71440466108759
H            3.26775608387962       -8.53559636333054       17.45189743626281
H            3.93119261247878       -7.48755794029953       18.70704167684438
H            5.00984294718694       -8.51103546673675       17.74917500436912
C            6.17713377565922       -7.67788149687036       15.26431541496250
H            7.10098717210264       -7.25829248082412       14.88357861459361
C            6.03554834214587       -8.99857986949084       15.30067486830805
H            5.12353912731110       -9.46862949675467       15.62520473122070
H            6.82439555745389       -9.65841580164414       14.98005878014149
C            7.41785192719315       -4.00405254162882       11.64217941991983
H            7.07426938591437       -5.02897052909175       11.51005759776587
H            8.36244974315515       -4.03217512859410       12.18807233218305
H            7.60094340883762       -3.56859211087150       10.66210563918713
C            6.50482312378146       -0.96250433157449       11.16516986700005
H            5.76580792817670       -0.28235405709001       10.75852130305215
C            7.76346025731185       -0.87292400980425       10.74898452333122
H            8.05993344690390       -0.15431120889350       10.00325200755449
H            8.54630377121079       -1.49128115135677       11.15250389779812
C            2.77676649767050        2.23108364387136       13.13415368655073
H            2.66031619352845        1.95587337392934       12.08574703218229
H            3.80343507083662        2.56582489773255       13.28411203254973
H            2.11059946004730        3.06376973242845       13.34515109231050
C            0.43592070940013        1.89835274273224       15.36528652521955
H           -0.55616679668896        1.48111398640722       15.19278262560066
H            0.51926355339783        2.82603491823850       14.80481395521245
H            0.52624644035270        2.12874440054173       16.42709408513864
O            4.80841992840995       -2.01295786208118       16.70081938206950
H            5.62013349690084       -2.14826840023015       16.19836556219483
H            4.58661997718220       -1.07693823172659       16.63349030973619
C            0.79383829440588       -5.03685057397870       14.41392055644431
H            0.33619392069372       -5.62966852408543       13.62790838284172
H            0.03073463993411       -4.51807438342146       14.98470325057880
H            1.39310202373941       -5.65226029990521       15.07623407971645
S            1.84463150716078       -3.74820135937904       13.65631186407063
H            2.69462958049948       -4.60798219240917       13.08320402524274
