72
 energy: -105.908809415029 gnorm: 0.233636403565 xtb: 6.7.1 (edcfbbe)
Fe           3.37100000000000       -2.91400000000000       15.28800000000000
N            2.01800000000000       -3.06000000000000       16.78800000000000
N            4.10100000000000       -4.73200000000000       15.85800000000000
N            4.78900000000000       -2.64000000000000       13.90600000000000
N            2.66100000000000       -1.05100000000000       14.86200000000000
C            0.96100000000000       -2.18200000000000       17.01000000000000
C            0.14200000000000       -2.72000000000000       18.08100000000000
C            0.68000000000000       -3.88800000000000       18.46099999999999
C            1.86600000000000       -4.13700000000000       17.66800000000000
C            3.70500000000000       -5.53800000000000       16.89500000000000
C            4.52900000000000       -6.73200000000000       16.86100000000000
C            5.37400000000000       -6.62800000000000       15.81600000000000
C            5.11000000000000       -5.35600000000000       15.17500000000000
C            5.60800000000000       -3.65700000000000       13.47700000000000
C            6.31100000000000       -3.21200000000000       12.30000000000000
C            5.93300000000000       -1.94800000000000       12.05400000000000
C            4.97600000000000       -1.57100000000000       13.07100000000000
C            3.25100000000000       -0.14700000000000       14.00000000000000
C            2.49900000000000        1.08100000000000       14.07000000000000
C            1.49900000000000        0.92700000000000       14.93800000000000
C            1.58100000000000       -0.43100000000000       15.44400000000000
C            0.72600000000000       -0.98600000000000       16.36300000000000
H           -0.19400000000000       -0.45000000000000       16.59600000000000
C            2.70400000000000       -5.23700000000000       17.79100000000000
H            2.56100000000000       -5.89900000000000       18.64500000000000
C            5.74800000000000       -4.89900000000000       14.04700000000000
H            6.43300000000000       -5.59000000000000       13.55600000000000
C            4.34700000000000       -0.36400000000000       13.20000000000000
H            4.74000000000000        0.48000000000000       12.63200000000000
C            0.15200000000000       -4.81300000000000       19.58100000000000
H           -0.95100000000000       -4.70400000000000       19.66300000000000
H            0.61500000000000       -4.53000000000000       20.55100000000000
H            0.39300000000000       -5.87000000000000       19.33900000000000
C           -1.15600000000000       -2.09300000000000       18.65500000000000
H           -2.03300000000000       -2.47500000000000       18.09100000000000
H           -1.11600000000000       -0.98800000000000       18.55300000000000
H           -1.26600000000000       -2.37200000000000       19.72500000000000
C            4.41000000000000       -7.88400000000000       17.87000000000000
H            3.82200000000000       -8.71200000000000       17.42000000000000
H            3.89000000000000       -7.52900000000000       18.78500000000000
H            5.42200000000000       -8.26100000000000       18.13000000000000
C            6.45000000000000       -7.61900000000000       15.33000000000000
H            7.27000000000000       -7.25000000000000       14.69700000000000
C            6.45300000000000       -8.92900000000000       15.63400000000000
H            5.65900000000000       -9.35800000000000       16.26300000000000
H            7.24900000000000       -9.58800000000000       15.25700000000000
C            7.31200000000000       -4.07800000000000       11.50300000000000
H            7.13900000000000       -5.15100000000000       11.73300000000000
H            8.35100000000000       -3.81100000000000       11.79100000000000
H            7.16600000000000       -3.91500000000000       10.41400000000000
C            6.36800000000000       -0.99600000000000       10.93200000000000
H            5.95300000000000        0.02200000000000       10.89300000000000
C            7.24000000000000       -1.34300000000000        9.98200000000000
H            7.40100000000000       -0.69500000000000        9.10800000000000
H            7.80800000000000       -2.28100000000000       10.06200000000000
C            2.87500000000000        2.32300000000000       13.24600000000000
H            2.83800000000000        2.07500000000000       12.16400000000000
H            3.90500000000000        2.64800000000000       13.50600000000000
H            2.15400000000000        3.14300000000000       13.45300000000000
C            0.41100000000000        1.95100000000000       15.32200000000000
H           -0.46200000000000        1.83500000000000       14.64500000000000
H            0.81300000000000        2.98200000000000       15.21900000000000
H            0.08200000000000        1.77400000000000       16.36800000000000
O            4.79000000000000       -2.18900000000000       16.67700000000000
H            5.24400000000000       -2.96000000000000       17.01700000000000
H            4.94300000000000       -1.34400000000000       16.90800000000000
C            0.52900000000000       -4.32600000000000       14.24500000000000
H            0.07000000000000       -5.16100000000000       13.67400000000000
H           -0.14200000000000       -3.44500000000000       14.16400000000000
H            0.59600000000000       -4.63400000000000       15.31000000000000
S            2.17700000000000       -3.91900000000000       13.60600000000000
H            2.74800000000000       -5.03300000000000       14.04000000000000
72
 energy: -105.951039962762 gnorm: 0.090911763330 xtb: 6.7.1 (edcfbbe)
Fe           3.37139604246742       -2.89543845631528       15.29801867582567
N            1.99662157594424       -3.07551316969917       16.77278367959616
N            4.10374875715556       -4.72824807843215       15.83971757687952
N            4.77756877370513       -2.65565830966653       13.89082474044998
N            2.67294596926723       -1.04435481320262       14.87143513151355
C            0.95748111060894       -2.20545076402577       17.01055760015610
C            0.12708381063022       -2.72463502546952       18.08121656201906
C            0.68094037940888       -3.89547839227910       18.47785948664942
C            1.86256672838527       -4.11906628379577       17.66762065454188
C            3.72388484232624       -5.53034751283650       16.88246906362852
C            4.53111454293868       -6.73891060395943       16.86938296135240
C            5.38573061341310       -6.64567829606721       15.80870405979103
C            5.10851245006252       -5.36821353422541       15.17348985090178
C            5.60167191835140       -3.65579689841023       13.45676809932770
C            6.32932506803156       -3.21407223245104       12.28766447918618
C            5.96291685406735       -1.92310745642625       12.05156064593461
C            4.98507132425245       -1.58323077450279       13.07302087029233
C            3.24919545545477       -0.14126382776718       14.01959017010814
C            2.50698984161042        1.09872787759023       14.06475725448276
C            1.48397515498942        0.93035508070675       14.93167581189985
C            1.59018288095690       -0.43085339347171       15.43326599420501
C            0.73712262860698       -1.00154591000887       16.36075968962857
H           -0.16644187456375       -0.45489070742621       16.61068666315914
C            2.70723924185141       -5.21899776956409       17.77475059694496
H            2.54491690419831       -5.89241221521488       18.61092847543969
C            5.74703038492095       -4.90038060909743       14.04094917931350
H            6.44104139458174       -5.58188509615642       13.56727754309514
C            4.34464357918054       -0.36847519796364       13.20917722904382
H            4.71606566541834        0.46581775149024       12.62401682412225
C            0.15997184181740       -4.80810079010835       19.56736169855995
H           -0.92643865609667       -4.70741217556579       19.65620378999824
H            0.60961027487294       -4.54010256573239       20.53023959990931
H            0.39197897361988       -5.85273451387075       19.34395326365287
C           -1.13698061133951       -2.09793868235136       18.64047456127323
H           -2.01364418119315       -2.46782197986762       18.09580232944833
H           -1.11163032244635       -1.00855776144778       18.55350406129998
H           -1.25532166108874       -2.36199142953672       19.69599694745010
C            4.40620895976666       -7.86859776455725       17.86267128755130
H            3.82572363794644       -8.69287273610895       17.43021252415445
H            3.89938838648652       -7.53438233440972       18.77141975755658
H            5.39856688494296       -8.24764409689279       18.12832907294774
C            6.42446250327910       -7.61161261587491       15.34629293982992
H            7.22744365285743       -7.22677008679293       14.71809143442963
C            6.44319992905654       -8.91155743738124       15.63684420145799
H            5.66973302439531       -9.36556200985111       16.23967341447515
H            7.22801208754099       -9.56296891237261       15.26417268326714
C            7.29891417557427       -4.08126413465423       11.51701770166712
H            7.14138304125843       -5.13967816138182       11.73576494256421
H            8.32967474778149       -3.81847737056029       11.78397994157860
H            7.15714725441036       -3.94186958107594       10.44251785553001
C            6.37318835249850       -1.01363518490423       10.94926350175436
H            5.91993120050850       -0.02375365098688       10.91036347593523
C            7.24119939441761       -1.33236729973603        9.99107329102278
H            7.41514240878851       -0.68068911200126        9.14208236694483
H            7.80681383646901       -2.24856441592504       10.02836866020531
C            2.87240482056428        2.31650379997277       13.25257222707186
H            2.83983023342377        2.07974490416192       12.18381304166723
H            3.88569990087991        2.64762410723239       13.50347564565938
H            2.17065829307646        3.13130667887334       13.44851736074260
C            0.42077693156749        1.93467173993960       15.31828068680731
H           -0.44741543471158        1.83488406833594       14.65687165842783
H            0.80609102715706        2.95502393303115       15.22509824136745
H            0.09185006094546        1.77784247229371       16.34929163235551
O            4.78615609645303       -2.19494677160979       16.69007112505308
H            5.26219381226060       -2.94870183528658       17.03674783270281
H            4.97074560129346       -1.30804033211477       16.93961140519259
C            0.50931617045125       -4.34220582406940       14.25347679187042
H            0.07546032218096       -5.16199039365305       13.67280630585183
H           -0.12603967148875       -3.45735014975833       14.16278468332221
H            0.58984701091505       -4.62715174453099       15.30527580377370
S            2.15556328240739       -3.92385285008007       13.61654136919304
H            2.73464038827739       -5.05143038014219       14.02115931498796
72
 energy: -105.963887309554 gnorm: 0.022707129670 xtb: 6.7.1 (edcfbbe)
Fe           3.37191003440336       -2.88549710197571       15.30241179730377
N            1.98784429414113       -3.08115676218962       16.76278653671249
N            4.11274260922784       -4.72038799662215       15.82717786675104
N            4.77257802580414       -2.66862289269058       13.88215754801309
N            2.69147499816543       -1.04126209112120       14.88755519568457
C            0.95714628560984       -2.22426945786097       17.00325824259933
C            0.12118584472757       -2.72954899074422       18.07364383074692
C            0.68608231922594       -3.90074014872688       18.48173315200691
C            1.85933272935903       -4.10699111588546       17.65425080387652
C            3.73474799419530       -5.51953849520527       16.86778592821523
C            4.52390583865009       -6.73449089695695       16.87418628539368
C            5.38452834632114       -6.65334235170074       15.80277887656813
C            5.10854416707622       -5.37410546977674       15.17063011112551
C            5.59479883734880       -3.65877276697546       13.44232844024538
C            6.33839260223528       -3.22195839575476       12.28219792888403
C            5.98055093516118       -1.91362068672441       12.05377119740818
C            4.99204650953961       -1.59586440993664       13.07839706470473
C            3.25535671312972       -0.14181686520574       14.04097512278591
C            2.51822191174105        1.10497882068242       14.06647235237858
C            1.47904400080073        0.92492775350929       14.92841957620998
C            1.60422335064601       -0.43365502722690       15.43023079527510
C            0.75201282252598       -1.01332144627384       16.35879123782417
H           -0.13351916537983       -0.45371247041346       16.62956027587736
C            2.70264781696294       -5.20725852540822       17.74783396777142
H            2.52097825033331       -5.89269614124594       18.56579797411062
C            5.74780293149627       -4.90266251632146       14.03592105215654
H            6.45687643737472       -5.57461301709109       13.57926607664616
C            4.34323213481584       -0.37902398317953       13.21598904763018
H            4.68852770617261        0.44554203166177       12.60776508852940
C            0.17417928274918       -4.80441990579410       19.55285571833513
H           -0.90485028780503       -4.70583242119217       19.64321873878434
H            0.61613208580295       -4.54938471127077       20.51603035653972
H            0.40091720609120       -5.84399535216018       19.33741756619573
C           -1.11801610012051       -2.10346299665493       18.62203983960131
H           -1.99761146080236       -2.46285952879181       18.08634272516687
H           -1.09320032400170       -1.02131173768302       18.54037607804414
H           -1.23938933876278       -2.35950839409982       19.67195566993608
C            4.39794560654501       -7.84668390508703       17.85807032390587
H            3.82074823405555       -8.66955857603809       17.43376976310941
H            3.89816094782420       -7.52140949279166       18.76476058896092
H            5.38189373063326       -8.22913610951570       18.12325172403218
C            6.38998354995955       -7.59506686143288       15.35855958082709
H            7.18172988322939       -7.18983238058350       14.73827076570990
C            6.42581534986527       -8.89564053870100       15.63459263369334
H            5.66769664263734       -9.38041467688916       16.21867561497117
H            7.21455737601758       -9.53232588680515       15.26870260270558
C            7.28814309078378       -4.08446608427133       11.52783147009020
H            7.13897034326379       -5.13384604455859       11.75724868223353
H            8.31787935287119       -3.82155850256040       11.77391981693134
H            7.14364768986521       -3.96366246801896       10.45829470755112
C            6.37253411539718       -1.03437042189150       10.97616724059251
H            5.87704111910981       -0.06978149819027       10.94052021637961
C            7.24896978434197       -1.31285897766739       10.01041474665857
H            7.42748774196740       -0.64124401886057        9.18773493527122
H            7.81823374723843       -2.21938950537042        9.99666127277878
C            2.87248198590225        2.30853034597180       13.26255479419445
H            2.84154945407388        2.07840884291294       12.19908362551762
H            3.87827469035712        2.64763580743647       13.50490720690256
H            2.17852914839543        3.12081727939611       13.45324688410824
C            0.42985458161360        1.91402948836257       15.31257140476992
H           -0.44049797613916        1.82470701461825       14.66240722034958
H            0.80972827394173        2.92916432516634       15.22321877130959
H            0.10400108850711        1.76692438854144       16.33816627471414
O            4.76510486267981       -2.18533532056278       16.72952162973110
H            5.29854605116813       -2.90982667748163       17.06595139742777
H            5.00755710836210       -1.28835210107144       16.96445034315783
C            0.48722170881877       -4.36039790862317       14.26260408333464
H            0.07409049799366       -5.17426412126655       13.67693426976298
H           -0.12791519193073       -3.47396192790752       14.16055383383208
H            0.57332485527463       -4.63029177900019       15.30751200219137
S            2.13342988068195       -3.92908243460380       13.62028836438932
H            2.71390232973141       -5.07720280764903       13.98327114186600
72
 energy: -105.968505450143 gnorm: 0.030884013552 xtb: 6.7.1 (edcfbbe)
Fe           3.38231410104670       -2.87886049660814       15.31190351616081
N            1.98178731333601       -3.08614995624071       16.74672466905318
N            4.11421587493402       -4.71286041549178       15.81930595938869
N            4.77794544165173       -2.67562470012852       13.88663832977511
N            2.70644636951000       -1.04395689304137       14.89882047546324
C            0.95794232244281       -2.23008693987045       16.99324512650099
C            0.12247684969383       -2.73360137983891       18.06149768358572
C            0.68844536901130       -3.90440201445992       18.47077246169883
C            1.85621932387855       -4.10547065889937       17.63829740490855
C            3.73096301269945       -5.51042927176889       16.85641036039105
C            4.50739642280446       -6.72544129749548       16.87233879679662
C            5.37080546020965       -6.65150830298676       15.80094790717003
C            5.10624089807044       -5.37323559280745       15.16845087549960
C            5.59694570802362       -3.66495221755667       13.44359231901530
C            6.34258570025838       -3.23302203057917       12.28773233685675
C            5.98383806627611       -1.92278633384062       12.05878024223038
C            4.99606716649541       -1.60620753387798       13.08377052162356
C            3.26677788567802       -0.14722701603001       14.05170345971281
C            2.52977197224255        1.09961677803504       14.07037334462730
C            1.48677892027417        0.91592314825923       14.92852269849547
C            1.61673138450473       -0.43722867988760       15.43391985098404
C            0.76380023648075       -1.01334392685824       16.36087439790355
H           -0.10853092694229       -0.44302975506698       16.64759958649086
C            2.69298000526664       -5.20548731241381       17.72738410502150
H            2.49319964197142       -5.90545810898663       18.52732223288364
C            5.75284975885778       -4.90660470768984       14.03787500258406
H            6.47346339243067       -5.57355578089110       13.59192093475947
C            4.34488028271178       -0.39060698234502       13.21613385631264
H            4.66840748992416        0.42619227370418       12.58622825705797
C            0.18562183176273       -4.80864659572514       19.54113708709990
H           -0.89328685146330       -4.71030770222357       19.63517474892308
H            0.63096902937879       -4.55802786456090       20.50457466523875
H            0.41309715037381       -5.84834051314046       19.32425342969453
C           -1.10934128112428       -2.10134198778941       18.60659696125160
H           -1.99163332056119       -2.45368344573203       18.06984725344626
H           -1.07519967801056       -1.01922795217779       18.52396254837390
H           -1.23160609020638       -2.35648112493807       19.65666112453687
C            4.38298550102645       -7.82890144568837       17.86006243379063
H            3.80305500648974       -8.65271140424501       17.44101682109404
H            3.88854179638163       -7.49919779190948       18.76857478986411
H            5.36818276960676       -8.21203645585018       18.12083396887164
C            6.37290635400700       -7.58611409141033       15.36465051228734
H            7.15982658754587       -7.16734439646300       14.74840876562627
C            6.41828627902067       -8.88931917971251       15.63117707339171
H            5.65520320310000       -9.39659430724022       16.19240384931149
H            7.21438259606835       -9.51228803024431       15.26133556964347
C            7.28280040890465       -4.09959289252412       11.53287641555178
H            7.14431931391848       -5.14612836443445       11.78570574268450
H            8.31649862219441       -3.82584520579308       11.75391409704144
H            7.11946978309805       -4.00074145356696       10.46230107123970
C            6.36443962182170       -1.04159154264978       10.98924556429093
H            5.83925212860601       -0.09228322308674       10.96335297423442
C            7.25674418513066       -1.27689899054383       10.02314600326419
H            7.43952260899667       -0.56707895586609        9.23193593169756
H            7.85536277886824       -2.16634288809872        9.97968543946669
C            2.87849237502924        2.30319552692921       13.26872693169276
H            2.84555803674322        2.07580670287287       12.20427658706015
H            3.88378795805089        2.64823073530576       13.50767117361540
H            2.18223421769848        3.11365531528347       13.46205951550198
C            0.43526166059903        1.89835324336051       15.31050451084005
H           -0.43829141678972        1.80682141713738       14.66437906168955
H            0.81312435766280        2.91411908591422       15.21843409447472
H            0.11291669176958        1.75236622801899       16.33781842907764
O            4.72525954753259       -2.16464108703912       16.81122642718006
H            5.36023357468974       -2.85641046640222       17.07875114968679
H            5.05822628400261       -1.26253103415684       16.97093222980715
C            0.46578539848244       -4.37859602281690       14.27078990745671
H            0.06484154657002       -5.19527708138632       13.68112529593520
H           -0.14871598891663       -3.49339378832355       14.16113826326455
H            0.54964331906716       -4.64446825793765       15.31650522038047
S            2.11442559518828       -3.93315489446335       13.63194526050240
H            2.68507106394206       -5.11160171102122       13.93079438696551
72
 energy: -105.971067041471 gnorm: 0.029664985366 xtb: 6.7.1 (edcfbbe)
Fe           3.38638503817667       -2.88170165356801       15.31856755497413
N            1.97961952463063       -3.08889797312948       16.73271300213399
N            4.11858921408300       -4.70155745147200       15.81731528234859
N            4.78820454186192       -2.68149350895056       13.89961407071725
N            2.72142754948325       -1.05014820799787       14.91025913843336
C            0.96008841948929       -2.23095775816399       16.98511150375246
C            0.12511060640115       -2.73644425774167       18.05009602899983
C            0.68777604683754       -3.90795529669195       18.45566362388144
C            1.85094750433632       -4.10876968299535       17.62121681825333
C            3.72405560989295       -5.50175444196990       16.84664555233373
C            4.49050775970672       -6.71621453043565       16.86893137737527
C            5.35745555261868       -6.64723154415285       15.80252844964172
C            5.10815401895957       -5.36851210227351       15.17086289950072
C            5.60588212475432       -3.67149067910864       13.45157600958570
C            6.34567247067264       -3.24310751330066       12.29468730065568
C            5.98185651698797       -1.93632239610660       12.06439920496019
C            4.99843247078018       -1.61684782956129       13.08984658801875
C            3.27965637850827       -0.15489802962341       14.05944706159634
C            2.54222617386544        1.09065919218098       14.07500676369438
C            1.50008052216560        0.90666558868294       14.93099376845053
C            1.63083909016832       -0.44071246478655       15.44189435767692
C            0.77544719134393       -1.00866821859032       16.36632053975396
H           -0.08585115201438       -0.42948992680800       16.66466288442839
C            2.67812481641773       -5.21065724056517       17.70673917566095
H            2.46324871069437       -5.92401370287052       18.48936838460880
C            5.76438159792633       -4.91047993560552       14.04540683287164
H            6.49005557417679       -5.57602385868002       13.60620058728295
C            4.34614219294318       -0.40339476785023       13.21379114716622
H            4.65031732762447        0.40610319654012       12.56578144818488
C            0.19543082049825       -4.81645110392758       19.52904403646244
H           -0.88384731401779       -4.71952863341069       19.63229432285381
H            0.65147780026756       -4.56780204926873       20.48928268305645
H            0.42471157569258       -5.85608561942934       19.30612363162880
C           -1.10465813898151       -2.09538709599341       18.59231689711887
H           -1.98799044178189       -2.43919511170599       18.04987086455807
H           -1.05731765907747       -1.01247374294496       18.50860844388725
H           -1.23083045671076       -2.35139484187250       19.64246924558771
C            4.36581213838282       -7.81315963603824       17.86446745127222
H            3.77822888644553       -8.63724104168054       17.45448704411479
H            3.87989643509928       -7.47230730432132       18.77535412234348
H            5.35307917542069       -8.19790242535836       18.11921608117369
C            6.36085962310377       -7.58297560489792       15.36547290051563
H            7.15433417891412       -7.15252202288299       14.76558695901224
C            6.40527450604917       -8.88926611010104       15.61712248905199
H            5.64441436483994       -9.40726646594924       16.17240587478972
H            7.21789129581032       -9.49706790235191       15.25557033966321
C            7.28216823686844       -4.10668033160690       11.52825382204024
H            7.15946670115108       -5.15307209402739       11.79880272329058
H            8.31892162353206       -3.82173594226756       11.72448575483209
H            7.09643372394170       -4.01731632325629       10.45865336742075
C            6.36159959579005       -1.04077861476432       11.00413792895529
H            5.80750788609566       -0.10743425815358       10.97972111843985
C            7.27643278589732       -1.23668705515594       10.05086219581074
H            7.44635670152104       -0.50096265334574        9.27983980984936
H            7.88330777650251       -2.12209076517504        9.97949042677826
C            2.88719037503957        2.29683396183822       13.27294672349922
H            2.85031107580535        2.07172633090831       12.20682580701293
H            3.89319485562592        2.64544228230895       13.50953440650045
H            2.18735237476175        3.10501009122374       13.47178694037575
C            0.44059572791415        1.88358600249452       15.30962349931876
H           -0.43496647444569        1.78046980230088       14.66634224893566
H            0.81204279034789        2.90215156645496       15.21101431501730
H            0.12315148108376        1.73779548545397       16.33991273423741
O            4.71097588896848       -2.13782860833322       16.86550111229238
H            5.38380201592245       -2.79870764518585       17.10494305642533
H            5.10087882888207       -1.24489541987066       16.97157870012963
C            0.44376308247110       -4.39639481583641       14.27749004385214
H            0.05242090588103       -5.21873161551518       13.68732643625775
H           -0.18029892260027       -3.51735345820543       14.16431146060322
H            0.52496329230697       -4.66244867549549       15.32502522364848
S            2.09023406274209       -3.93541340304307       13.63286242490219
H            2.65259342454546       -5.13614013601864       13.87238697554133
72
 energy: -105.971521455203 gnorm: 0.027963078785 xtb: 6.7.1 (edcfbbe)
Fe           3.39125234501950       -2.88708741099681       15.32537375727716
N            1.98187585812182       -3.08919922282713       16.72421320425030
N            4.11871657926759       -4.69512088299506       15.81331175014173
N            4.79622113876579       -2.68877522870023       13.90854957714574
N            2.73058499172137       -1.05872340877092       14.91625690534431
C            0.96355708957109       -2.22897193688077       16.98117704896770
C            0.12717379808413       -2.73748363487494       18.04256280301836
C            0.68353638989770       -3.91180111109858       18.44128454761170
C            1.84419357041876       -4.11484360690346       17.60661465189987
C            3.71528293612187       -5.49812750215487       16.83701722434847
C            4.47820292456044       -6.71165212851433       16.86455272705845
C            5.35034015532938       -6.64437765714855       15.80609294396982
C            5.11053175575580       -5.36588243808549       15.17260958959399
C            5.61633187709054       -3.67841960698895       13.45794335407604
C            6.34790220010178       -3.25072410271956       12.29745739360282
C            5.97684251320748       -1.94916642917499       12.06500646517219
C            4.99852615800070       -1.62706830644252       13.09153444660264
C            3.28853938130657       -0.16381671035678       14.06162651994383
C            2.55264207432468        1.08156354688199       14.07806200724918