78
 energy: -116.058074233440 gnorm: 0.000065303501 xtb: 6.7.1 (edcfbbe)
Fe          28.16282943349588       93.94823805092372       53.03784950124411
N           29.10319700402673       95.62971086649289       52.45092833562657
N           29.23895251538683       93.93285018411953       54.71689625579995
N           27.17828067976206       92.31971611824662       53.62975803651383
N           27.04542941452343       94.01348846719166       51.36419608877928
C           28.92803599229081       96.30505034640188       51.28275928514921
C           29.82451399120292       97.43606612733670       51.20718854858133
C           30.55219629709355       97.42577177741865       52.35695877457673
C           30.09104599645525       96.28764429247252       53.11884642783567
C           30.19197451614988       94.82916604098911       55.09166035913507
C           30.76572454727000       94.46842523087658       56.36350893349960
C           30.14058233821598       93.31398341421671       56.75225029252854
C           29.18120560080077       93.00808734693575       55.70738615464237
C           27.39919082782886       91.60810250382575       54.76696937138563
C           26.50950884014880       90.47634984728937       54.84650411471691
C           25.73477713291593       90.51702147690426       53.71861467302205
C           26.17305855363138       91.68451004097535       52.97659851672641
C           26.07547006171522       93.13257316130432       50.99798197966987
C           25.53293949946767       93.47827003694324       49.70371560091412
C           26.20500204045185       94.58721870207751       49.29170772485875
C           27.14798286932280       94.90421854070230       50.34032032614019
C           28.01945047977969       95.97589205876804       50.29379158776054
H           27.99325668021475       96.60091233587791       49.41453135799969
C           30.59634797430884       95.92884555320988       54.35317693642993
H           31.37905342041352       96.54689077680948       54.76616785645133
C           28.34273584574252       91.91173894179748       55.73106808848077
H           28.42355416897021       91.24144155802642       56.57306746631047
C           25.65608609803386       92.04884853156555       51.74665377328700
H           24.87516718990156       91.43182483040214       51.32904793779672
C           31.61944473590514       98.36327346595884       52.80825052543610
H           31.33982332814803       98.83829619432268       53.74895996190196
H           31.78800742695420       99.14236168790434       52.06892135232004
H           32.55813761978864       97.83115173924729       52.96548659241032
C           29.88351510859079       98.38721283839178       50.06135101214300
H           28.92056441651684       98.87878698244974       49.92006849485324
H           30.13198748125888       97.86116283108369       49.13930356726719
H           30.63619896462572       99.15296345425304       50.23218000566863
C           31.78166282782312       95.26691266765555       57.10389386109228
H           31.59181530950224       96.33305842881816       56.98912593872000
H           32.78786557962367       95.06110051077822       56.73400637961751
H           31.74902665066409       95.02003656781424       58.16303087049022
C           30.32533857077487       92.53714460679656       57.95777932761010
H           29.43528110695826       92.05530562755352       58.34499228533753
C           31.47698390857637       92.37239919212286       58.60067421657150
H           32.40102382254662       92.78779455465536       58.23781136723089
H           31.53908235995211       91.79002202623835       59.50501312846934
C           26.43080946429606       89.52602750805059       55.98961983537472
H           26.55532978436105       90.05144024002638       56.93514682141333
H           27.21165015067898       88.76682332419779       55.91961375654859
H           25.46422524604863       89.02641234013544       55.99397558238471
C           24.66653703196341       89.63274677200690       53.30808998202307
H           23.85203550849764       90.10150839614427       52.76772018990595
C           24.61915293828356       88.32386817995192       53.53436883942388
H           25.42037515628902       87.79821358366300       54.02387175281013
H           23.78238337225038       87.72610489673508       53.21269793639202
C           24.44831533109171       92.72080513440075       49.01773031382061
H           23.54371506077304       92.71030938696126       49.62636101970350
H           24.75129043631864       91.68760506508060       48.84626448819884
H           24.20912649613504       93.17120417217241       48.05752317685094
C           26.05428171394397       95.36904857717980       48.03192103392974
H           25.28275565597385       94.93765377612480       47.39896154309631
H           26.99051038430957       95.37906107755741       47.47335659775876
H           25.78057247912495       96.40170184007253       48.25042068045077
O           26.58371735092967       95.32478377135261       53.97307953076361
H           27.03274977405525       96.17173933704231       53.87743953220580
H           25.90454889885319       95.28516869944086       53.29092148579198
C           30.81746611332106       90.11666306869246       49.98195344932782
H           31.44220325404831       89.39190354831717       50.50382684099451
H           31.35271551446247       90.45061838351880       49.09318223536992
H           29.90020427276060       89.62584764580761       49.67240647173549
N           31.45636526264151       92.07723827106130       51.40303951865023
H           32.44906300029779       91.98422237447124       51.26344480461140
C           30.49261873605459       91.26508943965624       50.86516394851228
C           30.83179424922459       93.01420817099246       52.15139722529639
H           31.33855582007046       93.78656222075061       52.69236641865511
N           29.53219757516547       92.84483439160053       52.11972892342472
C           29.30576821242439       91.76069489957800       51.32355169737459
H           28.31165652763354       91.41205097110925       51.13490117419224
