78
 energy: -115.934091176746 gnorm: 0.370148344836 xtb: 6.7.1 (edcfbbe)
Fe          28.18700000000000       93.94799999999999       52.99499999999999
N           29.25500000000000       95.61300000000000       52.37600000000000
N           29.29600000000000       93.89000000000000       54.74200000000000
N           27.14000000000000       92.29799999999999       53.65699999999999
N           27.07400000000000       93.98799999999999       51.25200000000000
C           28.97100000000000       96.36000000000000       51.30499999999999
C           29.70600000000000       97.53199999999998       51.30399999999999
C           30.41800000000000       97.51100000000000       52.49000000000000
C           30.06200000000000       96.34199999999998       53.12100000000000
C           30.17800000000000       94.80899999999998       55.12499999999999
C           30.80000000000000       94.47499999999999       56.30700000000000
C           30.28900000000000       93.19799999999999       56.62400000000000
C           29.33600000000000       92.90800000000000       55.64800000000000
C           27.45000000000000       91.51899999999999       54.71300000000000
C           26.56100000000000       90.45600000000000       54.83100000000000
C           25.65300000000000       90.62800000000000       53.74999999999999
C           26.13500000000000       91.70199999999998       53.01199999999999
C           26.12300000000000       93.10899999999999       50.90100000000000
C           25.71200000000000       93.31699999999999       49.59200000000000
C           26.39500000000000       94.45600000000000       49.17399999999999
C           27.18200000000000       94.85400000000000       50.25699999999999
C           28.02300000000000       95.98300000000000       50.32200000000000
H           27.93000000000000       96.67400000000001       49.48599999999999
C           30.48800000000000       95.95500000000000       54.39200000000000
H           31.16400000000000       96.65199999999999       54.88600000000000
C           28.50100000000000       91.78500000000000       55.60500000000000
H           28.69100000000000       91.02100000000000       56.35900000000000
C           25.66900000000000       92.09500000000000       51.75500000000000
H           24.82100000000000       91.52400000000000       51.38000000000000
C           31.37800000000000       98.55200000000001       53.00200000000000
H           30.93000000000000       99.07199999999999       53.87499999999999
H           31.58299999999999       99.29800000000000       52.20500000000000
H           32.32500000000000       98.06499999999998       53.32000000000000
C           29.71200000000000       98.61700000000000       50.23200000000000
H           28.72000000000000       98.65200000000000       49.73400000000000
H           30.48900000000000       98.38900000000000       49.47099999999999
H           29.91600000000000       99.60399999999998       50.69900000000000
C           31.87300000000000       95.34699999999999       56.95500000000000
H           31.51100000000000       96.39500000000000       57.01800000000000
H           32.79800000000000       95.32200000000000       56.34100000000000
H           32.08800000000000       94.97799999999999       57.97999999999999
C           30.62500000000000       92.30199999999999       57.64500000000000
H           30.00200000000000       91.40300000000001       57.74600000000000
C           31.71200000000000       92.41000000000000       58.60599999999999
H           32.39100000000000       93.27500000000001       58.58600000000000
H           31.86700000000000       91.62800000000000       59.36400000000000
C           26.53500000000000       89.49200000000000       56.03100000000000
H           26.51500000000000       90.07599999999998       56.97599999999999
H           27.44500000000000       88.85499999999999       56.02099999999999
H           25.62600000000000       88.85599999999998       55.98200000000000
C           24.49400000000000       89.92800000000000       53.35699999999999
H           23.86000000000000       90.40300000000001       52.59600000000000
C           24.01500000000000       88.63199999999999       53.83600000000000
H           24.57900000000000       88.07599999999999       54.59900000000000
H           23.08500000000000       88.19900000000000       53.43900000000000
C           24.75300000000000       92.46400000000000       48.76300000000000
H           23.70500000000000       92.70699999999998       49.04100000000000
H           24.93900000000000       91.38699999999999       48.96400000000000
H           24.89800000000000       92.67899999999999       47.68299999999999
C           26.30300000000000       95.10599999999999       47.80500000000000
H           25.29300000000000       94.92799999999998       47.37700000000000
H           27.06400000000000       94.66300000000000       47.12700000000000
H           26.46800000000000       96.20099999999999       47.89700000000000
O           26.69800000000000       95.63000000000000       53.94800000000000
H           27.08400000000000       96.47799999999999       53.73000000000000
H           25.94800000000000       95.49599999999998       54.40599999999999
C           30.77700000000000       90.22899999999998       49.75100000000000
H           31.11500000000000       89.26399999999998       50.18600000000000
H           31.58100000000000       90.63100000000000       49.09800000000000
H           29.85600000000000       90.05200000000001       49.15500000000000
N           31.19700000000000       91.58499999999999       51.92300000000000
H           32.09300000000000       91.20699999999998       52.15199999999999
C           30.48300000000000       91.21700000000000       50.87200000000000
C           30.56200000000000       92.50200000000000       52.60200000000000
H           30.94100000000000       92.98099999999999       53.50400000000000
N           29.42100000000000       92.72600000000000       52.00899999999999
C           29.33100000000000       91.96299999999999       50.95500000000000
H           28.45400000000000       91.98999999999998       50.32000000000000
78
 energy: -116.016610185303 gnorm: 0.153061196731 xtb: 6.7.1 (edcfbbe)
Fe          28.15913761910362       93.96333222755358       53.00238177861284
N           29.21164620439076       95.60391659149815       52.38632047772020
N           29.27430437836275       93.89463166141299       54.72494829984075
N           27.16412995262528       92.30566043332837       53.64136915305890
N           27.06852279416365       93.99881653366866       51.28314584976752
C           28.95158113063943       96.34552633827825       51.28567805833453
C           29.70850873215576       97.54644749042987       51.29754663661822
C           30.42233736262599       97.52957761069507       52.47592842386117
C           30.06427713652646       96.33068105878741       53.13111205659651
C           30.17321292436812       94.82289811528528       55.11492281753258
C           30.81489932370433       94.46620447067939       56.31695340827954
C           30.31150915115889       93.20128065930354       56.64383779930208
C           29.32679250483681       92.90402930482634       55.64330199992314
C           27.45636233790600       91.53093623277591       54.71857255361429
C           26.54317007061761       90.45256391561823       54.83754704584594
C           25.64810161250230       90.59564815212046       53.76308061321372
C           26.12664270978061       91.71621179540041       53.01254465538180
C           26.12966293050901       93.09522815214507       50.91563414194895
C           25.70951745781261       93.32327103202586       49.57814513835123
C           26.38284733696692       94.45534974188575       49.16259712142659
C           27.20100598976402       94.85908051663957       50.25772113330178
C           28.02763622125962       95.98288201791844       50.30271835235137
H           27.93262391454757       96.67362239414793       49.47544437913533
C           30.49711455949874       95.96555326844187       54.39531540514147
H           31.17123534368211       96.65608156591058       54.88386506547753
C           28.50285593762488       91.78353960091604       55.60786234995509
H           28.68172611314212       91.02422568154115       56.35936603257776
C           25.65877450271574       92.09177171819037       51.75646436775271
H           24.82527812456611       91.51953265933643       51.36990923361341
C           31.37616068568842       98.55579857340101       52.99801806786348
H           30.94075165364576       99.06993625967304       53.86545399329232
H           31.58832953455534       99.29337608588629       52.21865911115881
H           32.31323369689525       98.07890442572345       53.31334504676693
C           29.71114260252727       98.61388813377690       50.23763077119600
H           28.73575323231489       98.65553226712119       49.73977277761730
H           30.47764063420825       98.39633765902704       49.48202897303451
H           29.91541217135584       99.59170474183114       50.68747548939047
C           31.86478666690263       95.33614256078494       56.95805092331529
H           31.51498394189380       96.37528274048690       57.01791726890759
H           32.78425092383306       95.31946862249579       56.35650677262728
H           32.08726557852520       94.99270163958903       57.96946247830196
C           30.65588266951935       92.30399042232605       57.68698171854118
H           30.03027714847081       91.41368401060116       57.76388945822830
C           31.68596275363566       92.40510763221563       58.58666701255431
H           32.37281019738219       93.24378702619204       58.58041191446472
H           31.85100990698617       91.64040213027661       59.33867391309649
C           26.53041375747102       89.50146903912808       56.01608557106071
H           26.51574299757079       90.06888808074144       56.95666935885590
H           27.42690461309555       88.86596240573361       56.01625339456218
H           25.64233647768838       88.86620458038998       55.98801341863603
C           24.47775457335906       89.87944104789246       53.37784795953205
H           23.86144579625358       90.36997838847525       52.62061036152826
C           24.02657535495342       88.66344599928441       53.82707157078728
H           24.57009637687163       88.09196641017714       54.57107543888437
H           23.10972961436667       88.22584018169538       53.44272749861574
C           24.75908785171416       92.47404487011124       48.77000488757048
H           23.71842370714020       92.70242624456077       49.03733245933386
H           24.93651302362766       91.40738006185207       48.95955719225422
H           24.89476130981610       92.67275304501592       47.70115702351453
C           26.29889676842829       95.10364203125405       47.81038496804054
H           25.30646431835182       94.93407959058021       47.37798827709718
H           27.05251048522520       94.67469427999661       47.13552242687325
H           26.46702785952505       96.18381456496968       47.89059662798619
O           26.72910593499575       95.61277184724217       53.93231715655557
H           27.08000574775669       96.47768494836946       53.73174129203259
H           25.93266049817037       95.49433875737137       54.41512641512999
C           30.78425782097533       90.22648258306583       49.75926207150091
H           31.11633685028580       89.26968535804170       50.17816423429088
H           31.57155371988263       90.62079802665799       49.10465010440585
H           29.87748375711557       90.05820143322686       49.16873629336435
N           31.21643635572816       91.56926920957888       51.90920510112953
H           32.11556886362924       91.18908237710929       52.14004412871822
C           30.46824615545617       91.20729147501999       50.84932671694938
C           30.56993177946428       92.50306120033137       52.60707007054005
H           30.94897893550369       92.97333402429922       53.49463688185105
N           29.41196942534821       92.74480310689889       52.03559259469009
C           29.32343843493751       91.96642892305809       50.95348847511114
H           28.45627245939426       91.99019003570109       50.32155998970358
78
 energy: -116.036964928493 gnorm: 0.052395258289 xtb: 6.7.1 (edcfbbe)
Fe          28.15023448133703       93.96571704406543       52.99966265825321
N           29.15514228680845       95.60897016153640       52.40513603590949
N           29.24792159998987       93.90806988970509       54.71635542829711
N           27.17450088679800       92.32200062288861       53.63142053444356
N           27.06210691552711       94.01215356364254       51.31437574730015
C           28.92372316828304       96.33879790711616       51.27886554325539
C           29.70586611125169       97.55255188417556       51.29521088822163
C           30.41642959406875       97.53769619345978       52.46142533918789
C           30.04797276669301       96.32618350864624       53.14193141128113
C           30.16213967397056       94.83718970955778       55.10585120846562
C           30.82081201435052       94.45438634884827       56.31807147325787
C           30.32487952965033       93.20663932938577       56.64642591309827
C           29.31489474435465       92.90828654614748       55.63680123674080
C           27.45923991732269       91.55156984995747       54.72060074938456
C           26.52679054952268       90.46258934804020       54.83888830593074
C           25.65077543431531       90.58421480353179       53.77571416513367
C           26.12177628476645       91.73156969549198       53.01296648812897
C           26.13300368126978       93.09189672016500       50.93652529798349
C           25.71100298516455       93.33198070530140       49.57733402821760
C           26.37510351336795       94.45248199344083       49.16356247340721
C           27.21266960024290       94.86429305734394       50.26659541176678
C           28.02790279843770       95.98522923259731       50.28513675329412
H           27.94581652181813       96.66375427610157       49.44941783281399
C           30.49902139510049       95.97900861589136       54.39776080635941
H           31.18720200083835       96.65935071487965       54.87373076819640
C           28.50071946992845       91.78883090657655       55.61112929024394
H           28.66644284791076       91.03400182083791       56.36607194040920
C           25.64841724550081       92.08819354715844       51.75834734797861
H           24.83172637384146       91.50629123916610       51.35690103185500
C           31.37091482432201       98.55428103036128       52.98965645291089
H           30.94702092594036       99.06672673415866       53.85508870037723
H           31.59514686633221       99.29302148574388       52.22676739782746
H           32.30239358240043       98.08504332101599       53.30401541352474
C           29.70943000569738       98.60759027688736       50.24145557292819
H           28.74469077983590       98.65900213596237       49.74260268075889
H           30.46980808285573       98.39841129265234       49.48790452171675
H           29.91859523180182       99.58121527113254       50.67856187697002
C           31.85370053652312       95.32090207711668       56.96080061815795
H           31.50871422236154       96.35426007344523       57.01427685035688
H           32.77378840768269       95.31092565501834       56.37204437219020
H           32.08191089985607       94.99870206920997       57.96781862891086
C           30.67606949248187       92.30330085476429       57.70941295241221
H           30.04006313715606       91.42589241561973       57.77556630804247
C           31.66773143260582       92.39942594456372       58.57105009228376
H           32.36644359928948       93.21646423539212       58.57805068054942
H           31.83642589212056       91.64637885415505       59.32255515807815
C           26.52462641929612       89.51642071033068       55.99781893313880
H           26.51914518743063       90.07245887336059       56.93697831201529
H           27.41310459517267       88.88166764808952       55.99742752323069
H           25.64959568470602       88.87800556967690       55.98677240483164
C           24.47067077273640       89.84827586127555       53.39407016535022
H           23.86669714291373       90.35173022423002       52.64271248190047
C           24.04259790865130       88.68183086996969       53.82134411586921
H           24.56881858616909       88.09228325043439       54.55108403338031
H           23.12811895346929       88.24680634680875       53.45065296114050
C           24.76731992920482       92.48573703114580       48.78313158105687
H           23.73009356123217       92.70391107889708       49.04288855583954
H           24.94105895636406       91.42597344138936       48.96606568260097
H           24.89506566352975       92.67176264907819       47.71905654415548
C           26.29694555880173       95.10107958224177       47.82128683729057
H           25.31641552724852       94.93845199129919       47.37995759019632
H           27.04693868914445       94.68358467416873       47.14668572616532
H           26.46714335136200       96.17256072863104       47.89124329743947
O           26.75842247198788       95.57574113721905       53.92901366778776
H           27.06241784223095       96.46422316076168       53.73856922261890
H           25.93513667342518       95.49376925448288       54.40932060798170
C           30.78828489845881       90.22468133113576       49.76540821903021
H           31.12109861018451       89.27580295885735       50.17944758029768
H           31.56985716723144       90.61194364262283       49.11267806832908
H           29.89541760346993       90.05483556829694       49.17170483182478
N           31.23986979586725       91.55078468778211       51.88772987997799
H           32.14099348377270       91.16600426542152       52.11472755746233
C           30.45208684176055       91.20185190120321       50.82955401375895
C           30.59191560996448       92.49243445074069       52.60292697027239
H           30.97789722695155       92.95515405402554       53.48175211610372
N           29.42324006681099       92.75476416555291       52.06106952538318
C           29.32232006263859       91.96952324911811       50.96002897007948
H           28.45760284611788       91.99450267889573       50.33204763667821
78
 energy: -116.041947515347 gnorm: 0.021997131495 xtb: 6.7.1 (edcfbbe)
Fe          28.15235046120457       93.96755598775030       52.99759247738758
N           29.11593376755529       95.62583998056962       52.41813157951064
N           29.23731651236120       93.92037794396633       54.71258492692495
N           27.17253298215001       92.33724287861033       53.62508785197795
N           27.05966171057464       94.02288582457189       51.32794197467430
C           28.90082385328164       96.34664954038067       51.28119934702249
C           29.69590713416050       97.55823256642350       51.29305258726170
C           30.40376771401611       97.54446373325463       52.45564153388069
C           30.02313822077332       96.33623974803753       53.14899043238765
C           30.15575237647523       94.84677253287741       55.10116329280828
C           30.81989086768220       94.45043539897333       56.31413228712498
C           30.32101632363043       93.21107829413175       56.64180860603088
C           29.30442816934783       92.91882976545263       55.63204144924986
C           27.45276361389550       91.57350563838038       54.71970907016293
C           26.51663880179139       90.48189090673013       54.83861371452405
C           25.65027751200568       90.59391185973081       53.77817529002747
C           26.11875936067540       91.74373349976018       53.01030528902975
C           26.13336492198747       93.09971016292633       50.94863303226896
C           25.71169659109819       93.34008713140247       49.58490993086637
C           26.37351246798075       94.45467899573600       49.16880399395258
C           27.21347971743146       94.86951005497394       50.27283721320175
C           28.02695385174452       95.98838022735492       50.27224768755045
H           27.97114999230891       96.64363388464356       49.41390397645361
C           30.49400978847759       95.99072578935927       54.39762016104525
H           31.20550278602295       96.65982134279523       54.85768102227032
C           28.48855959298417       91.80373532810056       55.61412822977711
H           28.64057255208927       91.05446059120550       56.37749871206780
C           25.64412298289764       92.09006424594597       51.75653674156114
H           24.84431136354692       91.49370069083430       51.34024713975435
C           31.36679321828356       98.55448941005037       52.98052380388800
H           30.94961953930130       99.06805596789422       53.84772880383795
H           31.59921719011239       99.29558612144184       52.22218910228123
H           32.29593782938858       98.08049982795295       53.29111862962656
C           29.70689319947605       98.60661284125663       50.23533065647372
H           28.74352737515212       98.66573268699689       49.73650419062229
H           30.46598836673835       98.39193959230749       49.48317016687540
H           29.92551318698072       99.57972668216928       50.66820699819436
C           31.84544613879508       95.31363365658490       56.96602239902794
H           31.49705432555021       96.34496165618378       57.00729649266617
H           32.77303350785863       95.29854978980185       56.39078784742382
H           32.06283249392362       95.00261870349667       57.97891229025772
C           30.66533685930918       92.30336336887339       57.71129001977633
H           30.02130861829662       91.43443964530307       57.78043536873611
C           31.67447732292898       92.38469880377049       58.57361469453150
H           32.39445275112557       93.18219223642033       58.57668611354713
H           31.82819826003758       91.63245523351090       59.32773205926381
C           26.52180379323779       89.53410803943611       55.98954427983123
H           26.52922433674938       90.08742543695651       56.92889665130539
H           27.40798166111328       88.89842771402820       55.97106375976411
H           25.64639587032174       88.89704809738218       55.98749145749280
C           24.46950681701619       89.84966384128741       53.40019762258486
H           23.85847354608926       90.35531890807734       52.66082568350195
C           24.04605039782802       88.66417389343935       53.82749720176650
H           24.58157192195823       88.05636891054030       54.53431094698605
H           23.12706719301370       88.23833478183545       53.46126105386706
C           24.76862374190955       92.49303518828549       48.79860864729498
H           23.73259814662854       92.70950123256013       49.06074006784932
H           24.94747123709230       91.43595092148146       48.98386931218364
H           24.89376154052156       92.67547864673377       47.73431630255736
C           26.29741366248316       95.10404124168963       47.82878553612554
H           25.31960115274728       94.94249750732537       47.38197152860578
H           27.05020161467064       94.68961686178049       47.15676807258699
H           26.46743004405858       96.17450137830258       47.89878963406590
O           26.78156681261726       95.53205415974705       53.96011425051086
H           27.03664221824401       96.43277454837823       53.73729033672497
H           25.92680066043959       95.47041793548019       54.39775753724786
C           30.78959317716850       90.21880520569970       49.76276823023724
H           31.12661458210218       89.27541748420408       50.18560309096535
H           31.57560346881657       90.60275565676561       49.11416699757991
H           29.90506625670908       90.03930733047754       49.16127643510250
N           31.26408478422060       91.53652535004498       51.86513867134279
H           32.16757384724848       91.14396299829761       52.07502492598429
C           30.44762295520135       91.19978243636878       50.81876875176340
C           30.62888771170940       92.47903647010597       52.59715615618355
H           31.03505025025394       92.93375217514026       53.47220420667302
N           29.45065750554386       92.75714783444322       52.08240260825129
C           29.32804923447623       91.97381669968775       50.97444582345828
H           28.45518368440050       92.00524034512300       50.35717503181916
78
 energy: -116.044459908435 gnorm: 0.038608587780 xtb: 6.7.1 (edcfbbe)
Fe          28.15383585342925       93.97353731598685       53.00201535979553
N           29.08771116811752       95.64088506233436       52.42689111013948
N           29.24418770934094       93.92448946728223       54.70112455530137
N           27.16914526848243       92.35046300251911       53.61666336223102
N           27.06539668678973       94.02796300448342       51.33610171039363
C           28.88285006676961       96.35472354114017       51.28510120559211
C           29.68514883819155       97.56332480652563       51.29062536973836
C           30.38917446933825       97.55135115415507       52.45218880587893
C           29.99952386404099       96.34689498093555       53.15424151528484
C           30.16045837251906       94.85007697623961       55.09126608826007
C           30.82273041501839       94.44600776373413       56.30704357677389
C           30.31977258939662       93.21230740508723       56.63332245852078
C           29.30051101464984       92.92726761596026       55.62368715579806
C           27.44370841836509       91.59746003301782       54.71807161945247
C           26.50676374598499       90.50443896938734       54.83996369923295
C           25.64912773621527       90.60438101327780       53.77703350505962
C           26.11746389899047       91.75179569142354       53.00396723486603
C           26.13691593208565       93.10809235180415       50.95810223299399
C           25.71192060890518       93.34890223575796       49.59440611541925
C           26.37461927056410       94.45841083900524       49.17513509515211
C           27.21688859832958       94.87205460777403       50.27846923282210
C           28.03204171949969       95.98747813601773       50.25946518860886
H           28.00499503326296       96.61636514100816       49.37839385641303
C           30.49380792482799       95.99860507642914       54.39337461093202
H           31.22353493507569       96.65912805620154       54.83803121768183
C           28.47317286968173       91.82226463150712       55.61804447942959
H           28.60622727086395       91.08173667944016       56.39336274402852
C           25.64361845504683       92.08899746542708       51.75025730452674
H           24.85759607063737       91.48349004013447       51.32238538118589
C           31.36193148184267       98.55486659254127       52.97180819594833
H           30.95258953343097       99.06942193656941       53.84291435620609
H           31.59695908501693       99.29710638167998       52.21329643889695
H           32.29045265442029       98.07193194479790       53.27369316523080
C           29.70266922223262       98.60504851761243       50.22484624024669
H           28.73821503322715       98.67206379830478       49.72746163907469
H           30.45959198500646       98.37872718607338       49.47250792396684
H           29.93376717647317       99.57908798462032       50.65286598127308
C           31.83839706099825       95.30682686045027       56.97564129843173
H           31.48959174879809       96.33912432711108       57.00015654924778
H           32.78058212420726       95.28169399637184       56.42295915392282
H           32.02782176418300       94.99615747522478       57.99683232296654
C           30.65365737942572       92.30337120377442       57.70758713018783
H           29.99040951709409       91.45247285802145       57.79851795195604
C           31.67576931204882       92.36820225541543       58.56408148050258
H           32.41750600119379       93.14650124761711       58.55626118646776
H           31.80802528906676       91.61359000674098       59.32167300197377
C           26.51837075398090       89.55404392958593       55.98609567356239
H           26.54570108142136       90.10324028136472       56.92801839242809
H           27.39995643210484       88.91174906495780       55.94335979129752
H           25.63492212486410       88.92593893198256       55.98776005440099
C           24.47016416370518       89.85237898193411       53.40694527367715
H           23.83550711727303       90.36075413315019       52.69248540922830
C           24.06468287050096       88.65219549334070       53.82634819412921
H           24.61371964451972       88.03621150906139       54.51486217716521
H           23.13576187112391       88.23798974706668       53.46998425536094
C           24.76439180160244       92.49970966885330       48.81822807859312
H           23.73003055650234       92.71563846611465       49.08889393086947
H           24.94992526964239       91.44370281121391       49.00624657049048
H           24.88315916900376       92.68107740065604       47.75217502816765
C           26.29940687831699       95.11152181107657       47.83717471556765
H           25.32276674266388       94.94775429011358       47.38626116169082
H           27.05697473583554       94.69985325796820       47.16757916388521
H           26.46533899445648       96.18315259155753       47.91147960666801
O           26.81840488490156       95.47310712986777       54.05173295960083
H           26.97917463739849       96.38268395057446       53.71956804659302
H           25.88683119790087       95.43893010280817       54.36322772096702
C           30.78830793950815       90.21442776265556       49.75974598690685