87
 energy: -124.720506458873 gnorm: 0.000047777048 xtb: 6.7.1 (edcfbbe)
Fe           2.63954181075914       20.96504861513338       13.22177757969946
N            4.07204408828012       19.86998110725383       12.36368955617148
N            2.06733350717767       21.63830332219172       11.42211204035548
N            1.20319882701722       22.06779106541053       14.09159273972032
N            3.25901509922854       20.35796173620743       15.02708828397274
C            4.95849336523565       19.05082707133380       12.98419448456823
C            5.81038061103771       18.39088525712769       12.01831835187511
C            5.41738035118229       18.83810330317836       10.79700152008798
C            4.32994155184648       19.76346198418475       11.03468186962560
C            2.62418964531517       21.32755706084867       10.22205636859930
C            1.95449035471196       22.01956212016499        9.15090424171778
C            0.96310244582213       22.76406995133452        9.73345433887401
C            1.06315835133354       22.51350339932318       11.15830167391925
C            0.28913841845111       22.85910931399269       13.46429666540452
C           -0.58996881502078       23.48340044805827       14.41900858194303
C           -0.17240790649747       23.06634537566193       15.65540315281745
C            0.96451669406833       22.19782817025770       15.42114436905897
C            2.75942286457844       20.73576702880949       16.23277745593596
C            3.49052215360200       20.10636986769779       17.30979214471502
C            4.44637072227358       19.33694957947407       16.72293950453924
C            4.28527484223806       19.50895177554893       15.29606060409107
C            5.07246952132610       18.87792242460367       14.35059858980411
H            5.83716026707579       18.20491402789784       14.70759281044786
C            3.67192310472047       20.44344268541705       10.03127817660778
H            3.99445231827529       20.26591205172732        9.01683233713888
C            0.21372022029263       23.06660729077036       12.09712114874112
H           -0.56939358484747       23.71666798855005       11.73782044928821
C            1.68448997502854       21.58147582088001       16.42816064281452
H            1.38323157579152       21.77188168425616       17.44674735281504
C            5.94768948278866       18.49207913924496        9.44810254727247
H            6.75910583059869       17.77233088876345        9.52393370180503
H            6.32478941525552       19.38228879781857        8.94370781435600
H            5.16208158301729       18.05965607940343        8.82843815053999
C            6.88644695540160       17.42144770514043       12.37005319044442
H            6.47198680967622       16.57165024623751       12.91248666895475
H            7.63846797346121       17.89268771401761       13.00403392621082
H            7.37908535481953       17.04913781427322       11.47524925637175
C            2.34501436434612       21.96022939331229        7.71550320616943
H            1.93250548606455       21.07083517191728        7.23597684224515
H            3.42857604525262       21.92624013663231        7.61274914231218
H            1.97211157893363       22.83741442347719        7.19045388783151
C            0.00508478711795       23.65533361534335        9.11819577667154
H           -0.27670735937038       24.52039967184587        9.70780334092409
C           -0.54477293855039       23.48859639829727        7.91964038587773
H           -0.34003183114661       22.62569578549481        7.31036980388470
H           -1.24363258265848       24.20251293893289        7.51619820916721
C           -1.67486008102955       24.44713644688083       14.08554554621881
H           -2.57776433267559       23.92391900361665       13.76544242921180
H           -1.36782607954448       25.11074758577756       13.27831104900202
H           -1.91838752229539       25.05057983214397       14.95760837043550
C           -0.69543548862302       23.40738032558230       16.95967868159063
H            0.03734754151722       23.47435163108533       17.75564907410804
C           -1.97515068367383       23.62759986361074       17.24300771613290
H           -2.75127657510884       23.52805457608909       16.50422288614779
H           -2.29475999751726       23.89125980879145       18.23759267272404
C            3.19312367302393       20.30329852962965       18.75651252824115
H            2.17846062537097       19.97704477661416       18.98670431955012
H            3.27857162314377       21.35624316430453       19.02622967339247
H            3.88340919087940       19.73433154301778       19.37457210266164
C            5.47626139654819       18.46329908769544       17.35343827544180
H            5.34606149034301       17.42812446720434       17.03659615524096
H            5.40350432467722       18.50044104385394       18.43757803660477
H            6.47920049759632       18.78032705985909       17.06587485169397
C            5.01657248590855       26.01394014435050       13.17349438979505
H            5.81136716937353       26.19911029324765       12.45097245496362
H            5.31792493040886       26.44295641056765       14.12914932564148
H            4.11538102690597       26.51589561119630       12.83567469286673
N            5.71595008230543       23.67014373180920       13.71243396756813
H            6.66626313466205       23.90041904915230       13.95224409997222
C            4.75429457447069       24.55870867103590       13.30773386983135
C            5.15606927645563       22.43985721143432       13.72936495901393
H            5.67591140316575       21.54653334704119       14.00739342997387
N            3.89984232470677       22.49550583623416       13.36062699834649
C            3.63504816095855       23.80620034009569       13.09505809407964
H            2.66465635439522       24.11928892014513       12.77080929784484
C            1.19366898378916       17.61544717145907       15.35354597357425
H            0.73961483249211       17.41461722664139       16.32192382619721
H            2.21813420719034       17.93932058166902       15.51032616804507
H            1.20774949871234       16.69585167457651       14.77334387630686
C            0.40784632544072       18.68776333955219       14.62433791736482
H            0.37660332879730       19.61296013232088       15.19723104403169
H           -0.60628233707679       18.34728823480239       14.41517570625133
S            1.18839691821018       19.05332090910114       12.99898204896556
C           -0.30394899026624       19.62457234673035       12.12961509571676
H           -0.72778839101823       20.47885815045596       12.64776297224347
H           -1.01740193447947       18.80640854560963       12.07520535738220
H            0.00265369656142       19.91675592756765       11.13138717930289
