87
 energy: -124.720697720873 gnorm: 0.000035051565 xtb: 6.7.1 (edcfbbe)
Fe          -7.97361929381082       -3.22327057876681       -9.57318143514761
N           -8.37155385211210       -3.04884890242878      -11.52510034468193
N           -8.99996372013303       -4.93314258502716       -9.51836840285560
N           -7.52961654551813       -3.42631089225951       -7.63212580544064
N           -6.91736623086392       -1.52248112544807       -9.63490238470985
C           -7.88835812295077       -2.10533401485593      -12.37600569078338
C           -8.39238163147792       -2.31997434357489      -13.71475693143014
C           -9.20145229230237       -3.41074983267527      -13.64665544370445
C           -9.16588753525976       -3.85720230529420      -12.27150485395537
C           -9.72781226062608       -5.48125370193401      -10.52479970840909
C          -10.35343743744453       -6.71188900727569      -10.09176869960460
C           -9.96741580920536       -6.90218664131056       -8.80250199363520
C           -9.12576312165868       -5.77580739841905       -8.46159726248029
C           -7.81677484313174       -4.48659880104944       -6.83810910495592
C           -7.32236751808259       -4.26884382280409       -5.49317758790356
C           -6.72238498495754       -3.03743234111448       -5.50561077414347
C           -6.85231178470355       -2.54033408276823       -6.85108119218383
C           -6.33301020084612       -0.88498902850507       -8.58805446983612
C           -5.67899930450777        0.33201435669297       -9.02979081719770
C           -5.85084849595786        0.37806820141785      -10.38838042221614
C           -6.62872345332847       -0.78167784503479      -10.73857977995572
C           -7.06125928449763       -1.05759034159802      -12.02461626340625
H           -6.75676512868373       -0.38097851132396      -12.80838416641604
C           -9.82737955257657       -4.97963860077998      -11.80849954523204
H          -10.44113695688079       -5.52238327357952      -12.51106853629853
C           -8.55834686016025       -5.59166211436612       -7.21609711727439
H           -8.73773542071721       -6.35152854713604       -6.47084970201210
C           -6.32954159517643       -1.33202155046635       -7.28070076167008
H           -5.84930159070477       -0.70918666725731       -6.54146905932021
C           -8.05574698100873       -1.46415568860898      -14.88765157294259
H           -6.97807123998065       -1.44550781413866      -15.05203493405671
H           -8.38981123437865       -0.43904631469325      -14.72406932509534
H           -8.53323936475573       -1.83894402082888      -15.78967655709995
C           -9.98948653939856       -4.07203156772887      -14.72498659131688
H          -11.04846319944416       -4.08911382864958      -14.46735214469445
H           -9.66008952014501       -5.10194408369349      -14.86697701598663
H           -9.87493484770647       -3.54333929762875      -15.66813423897941
C           -5.31026227281339        1.37180888086414      -11.35614463017645
H           -4.46232928665790        1.89548420804712      -10.91918671381663
H           -6.06929599359979        2.10914916464302      -11.62369144316591
H           -4.98246424487264        0.87906456606479      -12.27032773366999
C           -4.97086791651565        1.25034786936951       -8.16640578498340
H           -4.47935663206733        0.80556476303419       -7.30868388269896
C           -4.89217337689097        2.56596562646247       -8.33935870819494
H           -5.39868583092200        3.07000991019455       -9.14386889716980
H           -4.33494525378872        3.19064757487435       -7.66106725755976
C           -5.99532458939097       -2.35086834673439       -4.40230837044245
H           -6.62452876941722       -1.59232568616543       -3.93309733142791
H           -5.09864759808223       -1.85886783603102       -4.77676026498987
H           -5.70349376182070       -3.07275114627548       -3.64229195292787
C           -7.45591937382767       -5.21138098633062       -4.40472524444697
H           -7.41997629997214       -6.25781328056256       -4.68558387668922
C           -7.62409757630921       -4.89282706344667       -3.12545752879976
H           -7.71542105664822       -3.87233456596225       -2.79651622130608
H           -7.70342713729104       -5.64888250165389       -2.36192506218612
C          -10.30971753043231       -8.00961506235654       -7.86598578867127
H          -10.83542707127176       -7.62309989354936       -6.99252733946644
H           -9.40642941376038       -8.51342518485634       -7.52083744458255
H          -10.94703061652187       -8.74443060284177       -8.35179840956187
C          -11.23193819607216       -7.55580097837205      -10.95037968817279
H          -12.08304399512740       -6.97722939611382      -11.30925387457440
H          -11.60878460710923       -8.41130340064063      -10.39526677836246
H          -10.68419512494761       -7.92481974780919      -11.81836632602357
C           -2.77834637070981       -5.22387386369218       -9.86285848716362
H           -2.22496655903427       -5.08056117108067      -10.79090724444903
H           -2.60767302089549       -6.24379627003390       -9.51829977432827
H           -2.39199887446811       -4.53583150765667       -9.11750076911781
N           -4.98114610452368       -5.68960150293367      -10.95978486436792
H           -4.64586356005255       -6.43497314358511      -11.54770692466828
C           -4.22714689865013       -4.97215388922908      -10.06816242734886
C           -6.24572605857714       -5.21525823863450      -10.90221410331283
H           -7.05668624423554       -5.58891045642692      -11.49233391508707
N           -6.33758107612107       -4.24242526423891      -10.02936230042020
C           -5.09120454249791       -4.07906542130139       -9.50234532682951
H           -4.90012083819146       -3.33547034679332       -8.75689281357930
C          -10.87083894887642       -2.75856220657091       -6.63857869680834
H          -10.95987173152135       -2.50950105492421       -5.58303435624890
H          -10.27297369901460       -3.66080955561851       -6.73411275382035
H          -11.86208917623837       -2.95707194525690       -7.03915940548149
C          -10.21712709115555       -1.61657243119307       -7.39135668534110
H           -9.22934307800772       -1.39266144070803       -6.99077772245189
H          -10.84063059006840       -0.72254448558498       -7.36108620432977
S          -10.02048730705107       -2.06517756151303       -9.16342065079789
C           -9.81802429250742       -0.38219457538136       -9.82229502580515
H           -9.00689047213617        0.12234458925879       -9.30706828157483
H          -10.75168732630984        0.16088740300540       -9.70039930805257
H           -9.57743485793560       -0.48416562882662      -10.87490476749140
