72
 energy: -105.873947741698 gnorm: 0.254178604856 xtb: 6.7.1 (edcfbbe)
Fe          13.92800000000000       11.59200000000000       25.17200000000000
N           13.47500000000000       13.32000000000000       26.23100000000000
N           13.80600000000000       10.53000000000000       26.90300000000000
N           13.94600000000000        9.87200000000000       24.11700000000000
N           13.62000000000000       12.60300000000000       23.43600000000000
C           13.14200000000000       14.54800000000000       25.69300000000000
C           12.72900000000000       15.43100000000000       26.76700000000000
C           12.81900000000000       14.73200000000000       27.91000000000000
C           13.28600000000000       13.40700000000000       27.59600000000000
C           13.74600000000000       11.07800000000000       28.16500000000000
C           13.91900000000000       10.01900000000000       29.12800000000000
C           14.06600000000000        8.87500000000000       28.44800000000000
C           13.98900000000000        9.17800000000000       27.03100000000000
C           14.07200000000000        8.59300000000000       24.65300000000000
C           14.26200000000000        7.66000000000000       23.57000000000000
C           14.23600000000000        8.34700000000000       22.42400000000000
C           14.03800000000000        9.74800000000000       22.73700000000000
C           13.78800000000000       12.09800000000000       22.16200000000000
C           13.72900000000000       13.20100000000000       21.22800000000000
C           13.53500000000000       14.33400000000000       21.91300000000000
C           13.45700000000000       13.97600000000000       23.32200000000000
C           13.23300000000000       14.86100000000000       24.35300000000000
H           13.11600000000000       15.91100000000000       24.08400000000000
C           13.52700000000000       12.39400000000000       28.48500000000000
H           13.54700000000000       12.65700000000000       29.54300000000000
C           14.06300000000000        8.27300000000000       25.99600000000000
H           14.11900000000000        7.21700000000000       26.25900000000000
C           13.97100000000000       10.78000000000000       21.84600000000000
H           14.07200000000000       10.53200000000000       20.79000000000000
C           12.48800000000000       15.18700000000000       29.34400000000000
H           11.97100000000000       16.17000000000000       29.31100000000000
H           13.42600000000000       15.29200000000000       29.93000000000000
H           11.81900000000000       14.44400000000000       29.82800000000000
C           12.26100000000000       16.89900000000000       26.59700000000000
H           11.94300000000000       17.06800000000000       25.54600000000000
H           13.09800000000000       17.59000000000000       26.83500000000000
H           11.40000000000000       17.09900000000000       27.27000000000000
C           13.91000000000000       10.28600000000000       30.65100000000000
H           13.25800000000000       11.15800000000000       30.87100000000000
H           14.94100000000000       10.51000000000000       30.99900000000000
H           13.51400000000000        9.39600000000000       31.18600000000000
C           14.30500000000000        7.46100000000000       29.00200000000000
H           14.26600000000000        6.58300000000000       28.34000000000000
C           14.56400000000000        7.27800000000000       30.29500000000000
H           14.57300000000000        6.26500000000000       30.72500000000000
H           14.77200000000000        8.13700000000000       30.95000000000000
C           14.43500000000000        6.13800000000000       23.70700000000000
H           14.04200000000000        5.80700000000000       24.69200000000000
H           15.51300000000000        5.87500000000000       23.64200000000000
H           13.86900000000000        5.62200000000000       22.90200000000000
C           14.40900000000000        7.69400000000000       21.04000000000000
H           14.62100000000000        6.61700000000000       20.97100000000000
C           14.31400000000000        8.37200000000000       19.91000000000000
H           14.88700000000000        8.06200000000000       19.02300000000000
H           13.66100000000000        9.25500000000000       19.84200000000000
C           13.87900000000000       13.06100000000000       19.70000000000000
H           12.98400000000000       12.55000000000000       19.28500000000000
H           14.78100000000000       12.45600000000000       19.46500000000000
H           13.96600000000000       14.06700000000000       19.23800000000000
C           13.44900000000000       15.75100000000000       21.29700000000000
H           12.87400000000000       15.70800000000000       20.34700000000000
H           14.47100000000000       16.13000000000000       21.08200000000000
H           12.93100000000000       16.43600000000000       22.00200000000000
O           11.11400000000000       11.65700000000000       25.18800000000000
H           10.87100000000000       12.44700000000000       25.67200000000000
H           10.55400000000000       11.07100000000000       24.82300000000000
C           16.79600000000000       12.82500000000000       23.90300000000000
H           16.66900000000000       12.37700000000000       22.89399999999999
H           17.85900000000000       13.12900000000000       24.01300000000000
H           16.15200000000000       13.72800000000000       23.96099999999999
S           16.34400000000000       11.65100000000000       25.20499999999999
H           17.08200000000000       10.66000000000000       24.72800000000000
72
 energy: -105.929778317416 gnorm: 0.105909520851 xtb: 6.7.1 (edcfbbe)
Fe          13.79872901736082       11.56989862378331       25.16395815496058
N           13.46486697933342       13.31703960017482       26.22412882693271
N           13.81852242882269       10.53142920409263       26.90306863750035
N           13.95431987720556        9.85805146760106       24.11237043228028
N           13.64087399605125       12.62020516605256       23.43807409718433
C           13.15142554846428       14.54503094495485       25.70001778195077
C           12.73218816595967       15.44155812889704       26.76376827677827
C           12.82464902804485       14.73832795392096       27.92026567656138
C           13.29468623916087       13.41454082641959       27.58105718056037
C           13.76050969763635       11.06622373503711       28.16163697133734
C           13.92550158611719       10.01677490980116       29.14363662147180
C           14.07969797269921        8.85102853617794       28.45686318942434
C           13.99237359988358        9.18418259005214       27.04089732607734
C           14.07938117828996        8.59370297300437       24.64372870767227
C           14.24287902286997        7.63942773357171       23.57153755999961
C           14.19662580643380        8.32838805893747       22.39961251680144
C           14.03311995844277        9.73272063318934       22.74412178032181
C           13.79161192627726       12.11862058155840       22.17263441808397
C           13.73337769053599       13.20163806093859       21.21379621831998
C           13.53799319137586       14.34691125923980       21.90783115283272
C           13.47036661409370       13.97799045861193       23.31390147149816
C           13.23845408064919       14.86018979236389       24.35321723300607
H           13.10864348655983       15.90339782048748       24.08547479903864
C           13.53347717926586       12.39235680228262       28.47739480376175
H           13.53222487543161       12.65486850545856       29.53030829613005
C           14.06777435396054        8.28168832455079       25.99512247120609
H           14.12934810034983        7.23111130748174       26.25639857930306
C           13.97274044518319       10.78858890427244       21.85739096230707
H           14.08283084969266       10.55754742668947       20.80927946745302
C           12.49136418705777       15.18499738152024       29.32737284600113
H           11.98267224755175       16.15418711269776       29.31043317187902
H           13.40878540006290       15.28757143592140       29.91857786693928
H           11.83571588005501       14.45632611632103       29.81761334366953
C           12.26842415602514       16.87754030625408       26.59280279410191
H           11.94876531710184       17.06271770189348       25.56273888264204
H           13.08300222444473       17.57202624165341       26.83205648430599
H           11.42334216880423       17.09094822087503       27.25725399151224
C           13.90249110072969       10.28852821027716       30.63457514626202
H           13.26771471269955       11.14922710088864       30.86282412082247
H           14.91787480796076       10.50361860269835       30.99222036878619
H           13.50197353454185        9.42840914842001       31.17800735265590
C           14.29827724735047        7.48419992777694       29.00547558341705
H           14.23373667662529        6.62609835734878       28.33694157561119
C           14.57072972569313        7.27073940282505       30.28981959365835
H           14.59827724299152        6.27061275858357       30.70897628381742
H           14.77812502310621        8.09284413255752       30.95581972170401
C           14.42718314646808        6.14796380430047       23.71519388810508
H           14.04728891215252        5.80564186875400       24.68102196519262
H           15.48944201291746        5.88227990130890       23.64248821345509
H           13.87924298325734        5.62877950341055       22.92229687100624
C           14.40423749131250        7.71500056676561       21.05693433215293
H           14.69022412362385        6.65995883180908       21.01877150486510
C           14.30502628625280        8.36764250753634       19.89938436214673
H           14.81689910485006        8.01900917404810       19.00559046715356
H           13.70927868966573        9.26690990738214       19.81803670579580
C           13.87677905023750       13.05656268508375       19.71447343629837
H           12.99800113601563       12.55424739399667       19.29305141728612
H           14.76590937677714       12.46587535120408       19.46887115161779
H           13.96787527613691       14.04221624882731       19.24823497166236
C           13.44563414678712       15.73722009145394       21.31072122875480
H           12.88261741989421       15.70748437147220       20.37103645326308
H           14.45002883137288       16.12177304847500       21.09354280641706
H           12.94161977805562       16.42723591605803       21.99268889856133
O           11.17734933520038       11.66454538319097       25.19756380066667
H           10.88566497443059       12.44307274299729       25.66838605866630
H           10.56142673795038       11.06260856268989       24.81720808751704
C           16.80476743311018       12.83147400263254       23.88946450886293
H           16.66337178683051       12.37657082794257       22.90389018397789
H           17.85223262379171       13.12650829242598       24.01390507776054
H           16.16063692890346       13.71216894361443       23.96733670283885
S           16.32260226033222       11.68249204934543       25.20960268507583
H           17.04619560471942       10.66672553515807       24.72930148235891
72
 energy: -105.951631075572 gnorm: 0.030446320506 xtb: 6.7.1 (edcfbbe)
Fe          13.71313298750370       11.56588991137495       25.15993005233067
N           13.44020387553132       13.30981228183855       26.21393141106300
N           13.81004364786928       10.53267402140693       26.89600283069839
N           13.93491537059936        9.85153868391256       24.11110495418667
N           13.63603011871932       12.63184756122222       23.44667299663056
C           13.14900874956265       14.53750865562817       25.70082659181892
C           12.73991129507898       15.44531230710655       26.75816326974343
C           12.83439588525120       14.73941533472488       27.92307075519775
C           13.29201205661197       13.41358175625431       27.56278731258126
C           13.76377778784838       11.05881449960064       28.15105698379298
C           13.92994346316230       10.02267881080558       29.14738355071460
C           14.08848639063273        8.84077862077016       28.45941656424462
C           13.99227597443963        9.19244072494349       27.04363198905230
C           14.06938935006649        8.59912882827251       24.63518922149117
C           14.22301271933265        7.63217962976770       23.57309844774034
C           14.17316398245711        8.32477726298488       22.38400126878997
C           14.01231090243084        9.72615664569700       22.75530227879903
C           13.79286104276491       12.13388322228679       22.19212621104538
C           13.74015513681676       13.19959534550409       21.21246798252128
C           13.54216707888658       14.35359876564882       21.91014509411434
C           13.47618170856159       13.97861026809890       23.31192558883246
C           13.23754985812774       14.86080951176899       24.35342584598041
H           13.09968007513816       15.89930133844723       24.08786199929988
C           13.53029883456797       12.38975537558702       28.46477195539183
H           13.51307221121859       12.65404757029863       29.51273937613167
C           14.07218928423850        8.29187136144088       25.99255299831441
H           14.15068008613105        7.24573196153186       26.25264672329727
C           13.97228824851853       10.79885303042986       21.87568124598839
H           14.09810497619480       10.58709334912239       20.83169201579398
C           12.50137302600306       15.18142548968065       29.30932830220118
H           11.99699406557976       16.14355252756340       29.29882487931252
H           13.40562124861050       15.28184869894189       29.90828699386377
H           11.85101015640281       14.46069127039160       29.80244583165902
C           12.28129075573541       16.85663843004595       26.58828068546921
H           11.95769358544290       17.04998108721571       25.57001647652082
H           13.08295183052181       17.55541089294492       26.82811540786251
H           11.44575717173015       17.07431784732628       27.25187530843761
C           13.89585744480066       10.29044710242517       30.61492814788516
H           13.27461361507694       11.15131372592155       30.84293069645938
H           14.90142215958426       10.49545051478468       30.98646100630698
H           13.48794561375713        9.44642176337505       31.16222668428770
C           14.28803638612924        7.51672502733511       29.00269674230738
H           14.18669792660549        6.67569259449415       28.32546994432014
C           14.58117823799331        7.26351523017654       30.27938039377549
H           14.63237710265143        6.26432476802537       30.67610004603705
H           14.78613140782037        8.05239908436720       30.97138925838847
C           14.41354793105513        6.16097020997936       23.72250310462770
H           14.04503453769821        5.80743582891982       24.67896688095812
H           15.46955626053399        5.89741034579111       23.64792385029260
H           13.88148829693089        5.63180824111176       22.93570640654191
C           14.40940739412033        7.74876722159981       21.07994079843380
H           14.76554448447906        6.71587632516191       21.07827996279772
C           14.29173225391026        8.35470656948850       19.89284743506617
H           14.73006825665133        7.94695039559653       18.98961221222528
H           13.75186947284012        9.27548045550863       19.78440223679256
C           13.87669929630832       13.04984394908029       19.73378545890748
H           13.00643706709299       12.55117126120611       19.30826077922361
H           14.75809731891946       12.46571641887212       19.47881463525445
H           13.96964568419991       14.02405337232918       19.26192205100366
C           13.44462097595749       15.72420936174909       21.32737980085212
H           12.88736205988084       15.70152872130092       20.39284398688060
H           14.43924834345624       16.11559508338229       21.10898745896911
H           12.94812055454224       16.41697561678026       21.99782439828784
O           11.27430479229336       11.64716573908544       25.20904609502554
H           10.92288846674255       12.42430080345439       25.65093053977679
H           10.60932313122464       11.07217298921010       24.81720873713918
C           16.80765880865097       12.84275612493425       23.87958009369795
H           16.65179865777247       12.37162045690734       22.91552769214862
H           17.84788342794490       13.12208426351598       24.00893902383904
H           16.16863437280734       13.71341502569450       23.96738027178429
S           16.32525490043914       11.71819075344483       25.23025545538989
H           16.99157842083874       10.65795177440241       24.73676631340378
72
 energy: -105.959823162297 gnorm: 0.029358443343 xtb: 6.7.1 (edcfbbe)
Fe          13.68054154711027       11.57205574858950       25.16290069276428
N           13.42176695258360       13.30482366079644       26.20282415811152
N           13.79613850551594       10.53521220836484       26.89007609140818
N           13.90133378481064        9.85504489092711       24.11671297718079
N           13.62725221180314       12.64005710007046       23.45898985724392
C           13.14137270869455       14.53452735261356       25.69485922326200
C           12.74904019905487       15.44355271511416       26.75254897844185
C           12.84397599181299       14.73742305686245       27.91616576362460
C           13.28386515295250       13.40924871013292       27.54959638121277
C           13.75696298765172       11.06230059256126       28.14236226758046
C           13.93157151462824       10.03610106562730       29.14143044874410
C           14.08876539372620        8.85027466876083       28.45762489071281
C           13.98620023036378        9.19837663025307       27.04181930818478
C           14.04321145383285        8.60442112760885       24.63671937820411
C           14.20269750432893        7.63996600642438       23.57797011489505
C           14.16453797791486        8.33799277051466       22.38803307188308
C           13.98617109615942        9.73296718060034       22.76543717634176
C           13.79024737824121       12.14032878560514       22.20876635534981
C           13.74791417581013       13.19966224238935       21.22411730656075
C           13.54692732469507       14.35567507261946       21.91806868586918
C           13.47244649704453       13.98419770111951       23.31633273491751
C           13.22956088929646       14.86803206899403       24.35272910221333
H           13.08959326512043       15.90572470981673       24.08988105916652
C           13.51927287764210       12.39104799095917       28.45458007720628
H           13.49200044090258       12.65807967489364       29.50013268313377
C           14.06833984280552        8.29722068685269       25.99376760186821
H           14.17797995431168        7.25372821710949       26.25303227047792
C           13.96665107213006       10.80757357485801       21.88958027976387
H           14.11538653015973       10.60714288569405       20.84598970871623
C           12.51490928538614       15.17937096109017       29.29953082611597
H           12.01275404749613       16.14321789517696       29.28649283203248
H           13.41788970600941       15.27700903569400       29.90189207831246
H           11.86205144419068       14.45889116412937       29.79104596620180
C           12.29394036141016       16.85129433535693       26.58355761690833
H           11.96551849261906       17.04302199610038       25.56608381630824
H           13.09656591001994       17.54999515238043       26.82166579876993
H           11.46147700050921       17.06491261487828       27.25294878403150
C           13.88489630039308       10.30192766495668       30.60492001379388
H           13.27620789508815       11.17534072482966       30.82399016693068
H           14.89015167215614       10.48694321075983       30.99044996176091
H           13.45319834256106        9.46399178000942       31.14617810598863
C           14.27522638766698        7.52917758845927       28.99681901230876
H           14.13567225395654        6.70162629338991       28.30790827389661
C           14.59525879323302        7.24132163468013       30.26260815829808
H           14.66938340261093        6.22942149152530       30.62511487181579
H           14.82825292380976        8.00304735051134       30.98162974331104
C           14.39965157602916        6.17082616104903       23.73016247570269
H           14.03374496979010        5.81264578392509       24.68735926573122
H           15.45868862992555        5.91502034583062       23.65762524671420
H           13.87436073921488        5.63323333433460       22.94311682025063
C           14.42904280732124        7.77030631609082       21.09067297001894
H           14.83661570052237        6.75515937122691       21.12040677412012
C           14.27997842468407        8.33097178867322       19.88353815485033
H           14.64402501534911        7.85366389501851       18.97043262075998
H           13.77975841182880        9.27459328066427       19.74848750989490
C           13.88074049876048       13.04028948417207       19.74860540421780
H           13.00842062297318       12.53928086523948       19.32779464923668
H           14.76111379976049       12.45379775762519       19.49192249465293
H           13.97320870687052       14.01272989930966       19.27161013499517
C           13.44489505258248       15.72472885190971       21.34078049437356
H           12.88630814032474       15.70074808464207       20.40671569129425
H           14.43897518405903       16.11983960597733       21.12399170728419
H           12.94735608105154       16.41445651146911       22.01480201208316
O           11.36702166363622       11.60439981601066       25.23501466858800
H           10.98513999955931       12.40295506598392       25.62135973396411
H           10.68163070031629       11.07345409696030       24.80477995463086
C           16.80692421281894       12.85171094241156       23.87866553260851
H           16.63027407142544       12.36139557780384       22.92696109117806
H           17.85245122030026       13.11786299516041       23.99385530242690
H           16.17793997547524       13.72953002330501       23.96282103295487
S           16.32171898088727       11.75531306257937       25.25814548965714
H           16.91693513431155       10.65381709196327       24.74848809598834
72
 energy: -105.964077272444 gnorm: 0.028651861394 xtb: 6.7.1 (edcfbbe)
Fe          13.69113883703690       11.58586980609633       25.16857545416552
N           13.40677484912572       13.30012260394353       26.18981765666948
N           13.78699753221299       10.54170174545368       26.88304193347389
N           13.87858169582835        9.86497524725994       24.12512923106942
N           13.61927206128915       12.64693991803310       23.47301594233994
C           13.13341159614460       14.53350086923275       25.68718657642819
C           12.75776037908772       15.44267199231626       26.74632667138478
C           12.85297459288162       14.73625041511492       27.90675862700890
C           13.27513858745748       13.40571234122329       27.53636097650558
C           13.74632643167065       11.06828737810031       28.13428980320836
C           13.92713658821160       10.04802466102225       29.13346408349263
C           14.08247908142965        8.86283000700048       28.45317425141208
C           13.97748888358289        9.20594497523289       27.03798699097372
C           14.01763554239390        8.61216573271593       24.64007402445215
C           14.18899126900375        7.65222350501161       23.58300626291363
C           14.16894564193569        8.35506312065190       22.39567506167005
C           13.97311630825495        9.74372812969229       22.77556917467036
C           13.78935101248451       12.14492054665654       22.22417883237109
C           13.75503174844727       13.20036673063409       21.23760617552656
C           13.54969791304930       14.35729739569284       21.92580187905034
C           13.46623959670850       13.99064555245884       23.32122799214793
C           13.21950951538221       14.87759410180874       24.35095373418844
H           13.07783596897884       15.91512978952549       24.09131358973115
C           13.50471924189871       12.39421049011221       28.44479103066838
H           13.46767448583909       12.66548131475540       29.48784379141631
C           14.06273336024784        8.30360381726179       25.99482548369306
H           14.20326128336109        7.26320571607185       26.25243790294709
C           13.96716743593768       10.81542800812630       21.90086439405624
H           14.13086276519722       10.61974268884187       20.85798780164532
C           12.53202705915156       15.17894365085165       29.29107108814962
H           12.03451000082659       16.14576439398504       29.27686593984856
H           13.43656909271197       15.27178620495930       29.89231487808322
H           11.87584672872661       14.45998476348329       29.78147468746418
C           12.30860755178189       16.85198325358867       26.57840571743239
H           11.97445587295614       17.04153961048288       25.56196488910669
H           13.11506178397028       17.54797281614686       26.81137501657068
H           11.48024304340104       17.06498967510577       27.25343690717063
C           13.87611904206318       10.30316092924825       30.59771814917301
H           13.28023059968395       11.18705684941284       30.81529480910608
H           14.87976521605264       10.46912083506055       30.99597516969635
H           13.42806118494120        9.46289105313287       31.12361808536325
C           14.26615373520856        7.53830376601052       28.98568110964456
H           14.08214603025418        6.72336786022537       28.29005780237202
C           14.62157626880706        7.22404343862040       30.23510627603473
H           14.69816518017172        6.20052209543125       30.56488917007498
H           14.85881242473442        7.96421927885833       30.97917006809889
C           14.38504510057410        6.18284907389503       23.73900820371796
H           14.01635297165356        5.82618265386056       24.69673418124275
H           15.44610812867663        5.93166237714234       23.67164440512543
H           13.86387194158774        5.64075573943483       22.95160499816427
C           14.44058863406153        7.78164236882750       21.09984739229279
H           14.88707900147276        6.78703283802972       21.15811544414971
C           14.25239403033773        8.29436309372160       19.87853812376717
H           14.59698709536066        7.79576333259932       18.98990728699117
H           13.77329495388523        9.24179056226916       19.70652488947188
C           13.88719101856944       13.02872077533684       19.76376160955529
H           13.01260209501399       12.52263277766293       19.35184577430751
H           14.76725980368336       12.43918165481349       19.51031819595923
H           13.97814262353895       13.99802289442168       19.27925165726516
C           13.44465748219451       15.72872026547512       21.35427139014127
H           12.88474805324152       15.70624470129791       20.42080710661068
H           14.43777979220753       16.12867831385542       21.14105443640493
H           12.94461987063783       16.41212742118295       22.03410335319591
O           11.43649941441647       11.54096367603132       25.26536400034334
H           11.04624631674391       12.37121731060431       25.58278781229596
H           10.73716992825186       11.06546852578771       24.78282620050803
C           16.80261358406348       12.86038043033715       23.87945800037303
H           16.60065165270570       12.35233385423147       22.94120451375998
H           17.85592755579582       13.10921447200786       23.97215088505899
H           16.19154623031329       13.75257487199203       23.95563991583865
S           16.31836900348531       11.79336090650952       25.28704968326146
H           16.83764869700228       10.65482603401727       24.76647544753010
72
 energy: -105.965841782446 gnorm: 0.026399796254 xtb: 6.7.1 (edcfbbe)
Fe          13.69644680692180       11.59786785742758       25.17513349366005
N           13.39966369915178       13.29988759960946       26.18080912181393
N           13.78800737622649       10.55027248535652       26.88008940062101
N           13.87692956106538        9.87756182119518       24.13472802368964
N           13.61470628410565       12.65237186204742       23.48249954487448
C           13.12825486064657       14.53659555507375       25.68081511229733
C           12.76415506080150       15.44477176687349       26.74199944388407
C           12.85918262460125       14.73787889239283       27.89871276539077
C           13.26927596091993       13.40568707440470       27.52865552038503
C           13.73819197768554       11.07611146536234       28.13138179434813
C           13.91756181340735       10.05581834817336       29.12782559183023
C           14.07156339451055        8.87462366146271       28.44951226871031
C           13.97477909384297        9.21375469139310       27.03548247671742
C           14.00711754906252        8.62087086859371       24.64651138776335
C           14.18495183117289        7.66544968073420       23.58904149559834
C           14.18644216421692        8.37305221174805       22.40830451441504
C           13.98065539192833        9.75696687472492       22.78452073622946
C           13.79498972518257       12.14799334901162       22.23319896106647
C           13.76284709119642       13.20290635813480       21.24832474078116