72
 energy: -105.979946348996 gnorm: 0.000095300029 xtb: 6.7.1 (edcfbbe)
Fe          13.71202939795798       11.68493071413531       25.20450677698236
N           13.27859378849272       13.33732081614576       26.21326012465235
N           13.78945109369732       10.64276117583138       26.90420529760474
N           14.06199698594835        9.99791003594179       24.15561804031887
N           13.57400723417950       12.70237159190149       23.47716124603931
C           13.10877415709003       14.58501155001102       25.70801229000411
C           12.81527713245634       15.53061341521529       26.76498265991149
C           12.80757303241256       14.81760746253843       27.92064225982445
C           13.10799556353063       13.44869494511396       27.55467658352195
C           13.55191971500601       11.11446104463064       28.15512526297586
C           13.73022257357463       10.07539811419849       29.13780562755245
C           14.10411778878131        8.95343377930339       28.44872033477102
C           14.11715040351303        9.33250341101424       27.04858524454541
C           14.36351010298218        8.77268549064577       24.67111824124936
C           14.56105993984967        7.81393362071970       23.61927780253348
C           14.32639081976934        8.47425635732802       22.44154194506495
C           14.04623394006339        9.84753360819861       22.80211147393638
C           13.71576586214714       12.20791555307851       22.21594936094753
C           13.64180012227917       13.27126729527576       21.24077558406799
C           13.45424766218896       14.42158095303154       21.94328599410658
C           13.40912724088465       14.04468163675740       23.33730493459180
C           13.19187275380214       14.93214585184170       24.37384186774516
H           13.06179914427336       15.97217794768161       24.11857571825361
C           13.22183029383053       12.42087722924542       28.46667266774677
H           13.06296852612143       12.65974510562005       29.50662010343515
C           14.42390333006726        8.46465184877448       26.01953996818251
H           14.69625666044179        7.45379635069786       26.27985358384143
C           13.91038749886253       10.87897696367264       21.89013977597279
H           14.00601762727127       10.63025950904312       20.84549056518854
C           12.55740816599523       15.27766468216412       29.31496765366220
H           12.33943806317963       16.34244085445938       29.33763213324739
H           13.43034948081293       15.09228862243765       29.94101510858179
H           11.71073507005242       14.74423132912807       29.74701566968629
C           12.57412992006721       16.98445608315521       26.54721815502110
H           11.72008551662359       17.13683233904687       25.88701139153656
H           13.44523940524056       17.45204131526144       26.08790841348554
H           12.37264525423218       17.48770603438560       27.48940780953798
C           13.48201299657295       10.22703184509565       30.59700215004979
H           12.61122566455080       10.85596799067421       30.77468358298782
H           14.33889566715226       10.68788871770855       31.09089014195447
H           13.30732014192002        9.25286350728118       31.04902488559707
C           14.39847229037895        7.62780377552193       28.94697685487401
H           14.11427152339495        6.80802187902335       28.29745982249241
C           14.98397122739030        7.35614412503128       30.10853553781317
H           15.16192711120053        6.34211142906571       30.42578781765422
H           15.32932822528420        8.13078008745176       30.77058331448820
C           14.88694490853790        6.37577890444066       23.82416996538196
H           14.06175581918217        5.86194573345488       24.31881372140525
H           15.77372386794554        6.26743771250884       24.44893510179161
H           15.06880809402761        5.88532136585422       22.87122996531714
C           14.35197453043306        7.90968654104641       21.10796725678414
H           15.11604973250452        7.15875574342439       20.93850021916707
C           13.50782076670440        8.20377354966416       20.12590395274750
H           13.58429019158796        7.73579304221817       19.15872201411383
H           12.69701233081220        8.90063953768487       20.25601756758009
C           13.75959057546004       13.06912599220926       19.76956817070866
H           12.97364135119319       12.40524874334518       19.40872494080668
H           14.72082138419070       12.61927055508211       19.51986253276509
H           13.67632486983460       14.01577146204514       19.24178451324519
C           13.31037478279343       15.81869372527389       21.44709137101618
H           13.40141831700437       15.85591520099932       20.36442021401382
H           14.07924799731340       16.45928193359359       21.87919630239222
H           12.33744481825949       16.22537727570407       21.72399827458161
O           11.53286824809323       11.20670840699933       24.95847208690700
H           11.30931242950857       11.75336610892228       24.19635806090256
H           11.57807337281478       10.29420780484531       24.65035761862697
C           16.74984587386621       12.10614226283234       23.73327678346157
H           16.31535200099535       11.30707070401211       23.14292991797314
H           17.82733346910055       11.99934829951901       23.81094951103929
H           16.49951712477885       13.06540785825708       23.29279979361691
S           16.02529172068482       12.09667709204663       25.41083050384171
H           16.39742530686313       10.84347644953890       25.69459786154723
