78
 energy: -115.984506214895 gnorm: 0.232752582056 xtb: 6.7.1 (edcfbbe)
Fe           9.81800000000000        2.39700000000000       26.32900000000000
N            8.82900000000000        2.54600000000000       28.08200000000000
N            9.78300000000000        4.46500000000000       26.19000000000000
N           10.44100000000000        2.34300000000000       24.36200000000000
N            9.49600000000000        0.51100000000000       26.34500000000000
C            8.40800000000000        1.49600000000000       28.89000000000000
C            7.87000000000000        1.95800000000000       30.13500000000000
C            7.96400000000000        3.29900000000000       30.09600000000000
C            8.53000000000000        3.67200000000000       28.81600000000000
C            9.34000000000000        5.29800000000000       27.13400000000000
C            9.45400000000000        6.64200000000000       26.66000000000000
C            9.96600000000000        6.62000000000000       25.40700000000000
C           10.21300000000000        5.17600000000000       25.12800000000000
C           10.86000000000000        3.37100000000000       23.60500000000000
C           11.42000000000000        2.86900000000000       22.41600000000000
C           11.30600000000000        1.49100000000000       22.46300000000000
C           10.68100000000000        1.18300000000000       23.72000000000000
C            9.80000000000000       -0.37700000000000       25.37800000000000
C            9.32500000000000       -1.68700000000000       25.74100000000000
C            8.79700000000000       -1.60500000000000       26.93900000000000
C            8.92100000000000       -0.20700000000000       27.31600000000000
C            8.44800000000000        0.19000000000000       28.56800000000000
H            8.11100000000000       -0.55800000000000       29.28500000000000
C            8.78400000000000        4.97100000000000       28.39700000000000
H            8.54200000000000        5.78700000000000       29.07800000000000
C           10.74800000000000        4.69800000000000       23.93900000000000
H           11.10600000000000        5.43200000000000       23.21700000000000
C           10.38500000000000       -0.09000000000000       24.15200000000000
H           10.62400000000000       -0.92300000000000       23.49100000000000
C            7.52000000000000        4.23500000000000       31.18500000000000
H            7.61800000000000        3.73100000000000       32.17000000000000
H            6.45700000000000        4.51600000000000       31.02800000000000
H            8.15800000000000        5.14500000000000       31.18100000000000
C            7.29600000000000        1.14200000000000       31.27500000000000
H            8.10600000000000        0.88000000000000       31.98800000000000
H            6.84800000000000        0.20600000000000       30.87800000000000
H            6.52400000000000        1.73500000000000       31.81000000000000
C            9.10500000000000        7.91100000000000       27.40600000000000
H           10.03700000000000        8.46200000000000       27.65600000000000
H            8.57200000000000        7.65800000000000       28.34800000000000
H            8.46400000000000        8.55700000000000       26.76900000000000
C           10.35500000000000        7.76200000000000       24.55200000000000
H           10.60600000000000        7.54600000000000       23.50400000000000
C           10.44000000000000        9.05400000000000       24.91000000000000
H           10.20800000000000        9.36500000000000       25.93900000000000
H           10.74300000000000        9.81700000000000       24.17800000000000
C           11.99800000000000        3.75000000000000       21.33200000000000
H           13.07800000000000        3.91900000000000       21.52800000000000
H           11.47500000000000        4.73000000000000       21.32700000000000
H           11.88400000000000        3.25400000000000       20.34500000000000
C           11.75500000000000        0.46300000000000       21.52900000000000
H           11.48000000000000       -0.58200000000000       21.73100000000000
C           12.47600000000000        0.68200000000000       20.44200000000000
H           12.78800000000000        1.70200000000000       20.17500000000000
H           12.77200000000000       -0.15400000000000       19.79100000000000
C            9.41700000000000       -3.01400000000000       25.05100000000000
H           10.11100000000000       -3.67600000000000       25.61100000000000
H            9.80600000000000       -2.87500000000000       24.02000000000000
H            8.41400000000000       -3.49000000000000       25.01800000000000
C            8.19300000000000       -2.78100000000000       27.72200000000000
H            9.00400000000000       -3.47100000000000       28.04000000000000
H            7.48100000000000       -3.33600000000000       27.07500000000000
H            7.66900000000000       -2.40100000000000       28.62500000000000
O            7.68900000000000        2.55100000000000       25.55900000000000
H            7.13300000000000        2.62700000000000       26.33400000000000
H            7.41400000000000        2.54300000000000       24.71300000000000
C           15.33000000000000        2.99600000000000       26.95700000000000
H           15.93400000000000        2.09400000000000       26.72200000000000
H           15.72200000000000        3.45900000000000       27.88800000000000
H           15.41000000000000        3.71400000000000       26.11300000000000
N           13.49800000000000        1.72600000000000       28.10900000000000
H           14.11300000000000        1.27600000000000       28.75600000000000
C           13.89800000000000        2.60200000000000       27.15200000000000
C           12.17600000000000        1.56700000000000       28.04600000000000
H           11.59000000000000        0.99000000000000       28.76000000000000
N           11.70400000000000        2.24600000000000       26.94600000000000
C           12.79200000000000        2.94900000000000       26.46500000000000
H           12.66800000000000        3.65300000000000       25.65100000000000
78
 energy: -116.027019160765 gnorm: 0.091085403097 xtb: 6.7.1 (edcfbbe)
Fe           9.77938435472310        2.40772600284597       26.32197442786118
N            8.84957881870676        2.54542809553530       28.11881071698431
N            9.79716341132811        4.45984350052880       26.19413850032714
N           10.44761006214771        2.33161380935785       24.39383494943085
N            9.50452524151746        0.48960375593296       26.35692600888496
C            8.41919210523676        1.50642476034898       28.90825768487451
C            7.86783667477570        1.97586244585608       30.14651430792798
C            7.96251031382632        3.32603559803876       30.10288385762546
C            8.55679653648228        3.67864417042634       28.82849164058070
C            9.33823322130201        5.30658241684978       27.13743650779495
C            9.46286858421403        6.66200181850132       26.66963698394178
C            9.99686857947149        6.62787566017359       25.41179185568726
C           10.20597328383837        5.19236967700708       25.12981775421768
C           10.86436203620243        3.36226870234070       23.61943402572469
C           11.42394359561154        2.86426296039128       22.40343738930560
C           11.31973820702648        1.48920688710180       22.45288998932491
C           10.69423929298133        1.18560572347019       23.72154362295368
C            9.79524858914099       -0.39341902690795       25.36444640037997
C            9.34164018352060       -1.71485091628921       25.73052209060228
C            8.79569515443763       -1.62373744000827       26.95610684188705
C            8.91872850596502       -0.23407676779970       27.33442195855331
C            8.45652718886023        0.18652247017318       28.56865099198521
H            8.10772357970500       -0.55220791434644       29.27454478579324
C            8.79613707071395        4.96796060115809       28.38637764603600
H            8.53901008558082        5.77831018339683       29.05713888439613
C           10.74255253297668        4.70388887578580       23.95197259198502
H           11.09538235493203        5.43058383735794       23.23006424459741
C           10.38619150182587       -0.09101507135540       24.15217948105979
H           10.61772320538071       -0.91731647670939       23.49410781906769
C            7.52065250661402        4.25291002633073       31.18373451208992
H            7.61318946378795        3.75443289391219       32.15448509193357
H            6.47122550530238        4.53155359582229       31.03515990511336
H            8.14066057977188        5.15191906589289       31.19045542091390
C            7.30157175452345        1.14776895779267       31.26394434582713
H            8.09062347136449        0.88072094135460       31.97770675812895
H            6.85259258449036        0.22364868252534       30.88705141247579
H            6.53483622407080        1.71725198869790       31.79742980943749
C            9.09577864315296        7.90394847334098       27.41927716659481
H           10.01092965830980        8.44990889644607       27.67787321253590
H            8.56408762085038        7.66998649402968       28.34336197030250
H            8.46613739846654        8.54499925285656       26.79227569876719
C           10.35700467089442        7.75196717281964       24.55264046138655
H           10.60225918497650        7.51993010035907       23.51709359396093
C           10.43689631504814        9.04018502233578       24.89958890205974
H           10.22947074978284        9.37867858342714       25.90250876025579
H           10.73951936514514        9.79531601475955       24.18385975721322
C           11.99359294836303        3.74640835196890       21.33405258918096
H           13.06229792284327        3.91813624210279       21.51656118490352
H           11.48647807520015        4.71517560673804       21.32311819703942
H           11.87261908711619        3.28736758802670       20.35113437930783
C           11.75536644040820        0.47056915586206       21.52004625552490
H           11.47594693950066       -0.55880580322732       21.74088130241626
C           12.48569690752995        0.67575897590275       20.42961891772116
H           12.82062772027193        1.66427673264773       20.15844826425132
H           12.77554399757642       -0.14615036856728       19.78827251065247
C            9.43341606013823       -3.01930801615165       25.02136758466916
H           10.10544060319549       -3.67802579035251       25.58353028296778
H            9.80770823150643       -2.89803943604130       24.00468956548534
H            8.44306859222903       -3.48801637235643       24.99866732216294
C            8.19499228448240       -2.76737291175320       27.72831087312475
H            8.98798233805150       -3.45818687574796       28.03726657247205
H            7.49417571788988       -3.31944920826259       27.09321200391933
H            7.66759373281244       -2.41605324483771       28.61703105378659
O            7.69228209717104        2.54809156346435       25.57103022431779
H            7.10951105485527        2.63004582137574       26.32380717137796
H            7.38531734960045        2.54560732063776       24.68301789139524
C           15.32510356994353        2.99285162529958       26.95982506562407
H           15.93246327281508        2.11072873054540       26.72694567209771
H           15.72251270071916        3.45589444055668       27.87040438169839
H           15.40874001904159        3.70147215300378       26.13277433213439
N           13.49497076202143        1.73313528786678       28.11479581260173
H           14.10965599368700        1.27814968146636       28.76846450517607
C           13.89833752352360        2.60113916023892       27.14602410721478
C           12.16389902672890        1.56796798897065       28.02229062124493
H           11.58366598147552        0.98750268430160       28.71816096640157
N           11.67716477848276        2.28969231757512       26.99686793904048
C           12.77053259695303        2.93621933340202       26.46219421283475
H           12.65147570488088        3.62909276347830       25.64938749846654
78
 energy: -116.039617563492 gnorm: 0.028714226118 xtb: 6.7.1 (edcfbbe)
Fe           9.75136710346367        2.42135483080823       26.31313663861069
N            8.87282661259820        2.54563014351018       28.14766473483387
N            9.79430774072721        4.45230455734524       26.19545592869130
N           10.45816917965258        2.32093528069314       24.42297609466151
N            9.50763388312978        0.47119426716513       26.36287991118651
C            8.44157772810897        1.51684254379183       28.92529370722111
C            7.87521391189386        1.99457549726920       30.15712623091513
C            7.97228703822912        3.35086804783705       30.11143073752758
C            8.58727954596681        3.68322953892124       28.84129480328964
C            9.34018047820293        5.31291755499793       27.14291201577981
C            9.47360787648457        6.67468057120297       26.68374656217847
C           10.02176962069044        6.62653995827995       25.42433198226569
C           10.20682874989489        5.20272176346347       25.13995849989298
C           10.86887397754914        3.35545026512198       23.63814475439139
C           11.42552096111366        2.86545147224625       22.40254033400723
C           11.33546177471290        1.49190524749772       22.45212199102180
C           10.71065258172785        1.18604697577511       23.72805460911342
C            9.79260330910112       -0.40935038293587       25.35890941728831
C            9.35695162456715       -1.73834523076178       25.72485443964259
C            8.80391501206100       -1.64245892233220       26.96370869581093
C            8.92194683799100       -0.26028283075760       27.34638765887294
C            8.47255455949752        0.18817777020599       28.56893208757932
H            8.10029135969306       -0.54071106638041       29.26776018207538
C            8.81197319919580        4.96664926509767       28.38053731064034
H            8.53215754139834        5.77426512109466       29.04044286098092
C           10.74286165996116        4.70328570348070       23.96896689105824
H           11.08533630454201        5.42366828245988       23.24120658245760
C           10.39176120182982       -0.09262249279335       24.15688368722040
H           10.60928871868125       -0.91497036737720       23.49495205963713
C            7.52365477655010        4.28097802904736       31.18189100747728
H            7.60904091807040        3.78832350094862       32.14742003374666
H            6.48064001784423        4.56026006804824       31.03658159058623
H            8.12888090130945        5.17951243572365       31.19707108616466
C            7.30600738618271        1.15900021115276       31.25562222021427
H            8.08448148899213        0.88312549989548       31.96806292483102
H            6.86005421228056        0.24391012713966       30.87690657203836
H            6.53875060829358        1.71199773727088       31.79079699175194
C            9.08826315361677        7.89733561555092       27.43839768690729
H            9.98663739911243        8.44940160241615       27.71408687529861
H            8.54626337235553        7.66385637378464       28.34628261219076
H            8.46572726673952        8.53747021368820       26.81584689110720
C           10.36844239379513        7.72900869950404       24.55637231092002
H           10.59935778825217        7.47444913035822       23.52831140802877
C           10.44903299125218        9.01920432691580       24.88617536703692
H           10.25441268541443        9.39076370918265       25.87095210362315
H           10.72882779714827        9.76643132925588       24.16441088934033
C           11.98329142990773        3.74717671324321       21.33771389513666
H           13.04868780922919        3.91408753037395       21.50558737470434
H           11.48806880465101        4.71363647419339       21.33331652997573
H           11.85283584678815        3.30690221981188       20.35546019657581
C           11.76285845613480        0.48272875348253       21.51587450915545
H           11.46208220118884       -0.53213863967317       21.74490640235414
C           12.50289268001416        0.66960009212036       20.42354708987299
H           12.86327158674279        1.63584250343729       20.13843616337545
H           12.77480180063707       -0.15023529121243       19.78511438296904
C            9.45103541087852       -3.02603065848000       24.99005394635270
H           10.11319889637086       -3.69500778320817       25.53919620044157
H            9.81739471240859       -2.90879185712388       23.98028625240363
H            8.46816636512892       -3.49473456637846       24.96181770338260
C            8.20154395439471       -2.76358276564798       27.73100746018602
H            8.97896970057189       -3.46046046532773       28.04296929826896
H            7.50163007018501       -3.31212511313374       27.10276543408555
H            7.67035760169405       -2.42222507068294       28.61116412532784
O            7.68749732802260        2.53607656257776       25.57175756147002
H            7.06242805937163        2.63791407778626       26.29143157143251
H            7.35708946067550        2.55471335922841       24.67393179868460
C           15.31410677757371        2.98808968744427       26.95888447434843
H           15.92454588228238        2.11623253996006       26.72824072159231
H           15.71115943659325        3.44966058377934       27.86139709716158
H           15.39986439464449        3.69520409354783       26.14246456601052
N           13.48236759482110        1.73970155294080       28.12258972814735
H           14.09222291890354        1.27899030875699       28.78060337506989
C           13.89001758412215        2.60244725262292       27.14277528197954
C           12.14303242735913        1.58964062573506       28.01461929899887
H           11.56139553461685        0.99220580041158       28.68510756754764
N           11.66812059691419        2.29698528448566       27.01637005613474
C           12.74730314322900        2.94095369215637       26.47266772422811
H           12.63308628406344        3.61456052796081       25.64914223250893
78
 energy: -116.044218855114 gnorm: 0.019977274103 xtb: 6.7.1 (edcfbbe)
Fe           9.72989897419600        2.42899928244220       26.30520643499312
N            8.89250282344640        2.55034614646573       28.16255917809244
N            9.79022293001474        4.44687104737981       26.20289028306860
N           10.46260965317675        2.31446947983526       24.43766003288683
N            9.50887943983516        0.45815702894693       26.36297586716546
C            8.46043861316982        1.52380600878046       28.93528351421269
C            7.88932803940247        2.00794642060272       30.16573562731407
C            7.98849333272204        3.36592308842193       30.12055645017046
C            8.60821023120590        3.68794418655501       28.85264030176153
C            9.34638337349703        5.31600041913382       27.15265511328710
C            9.48789167678575        6.67808276881843       26.70095255531113
C           10.04150911519276        6.62134493415605       25.44301004571280
C           10.21255244012074        5.20324754910038       25.15508517073931
C           10.86995795205607        3.35269266518514       23.65381506925596
C           11.42769293005701        2.87037116463351       22.41303210258235
C           11.34829995644481        1.49710276600378       22.45927615328567
C           10.72331542353793        1.18418512181268       23.73607096324902
C            9.79795128799026       -0.42076141179907       25.35959298963961
C            9.37231399702030       -1.75342703478465       25.72237689401680
C            8.81999500770560       -1.65832845165735       26.96506222274397
C            8.92923305273958       -0.27670729799944       27.35137657116744
C            8.48487688963987        0.19233104337063       28.56983633516719
H            8.09525735087717       -0.52916888008712       29.26910927398517
C            8.82150030611620        4.96970311593876       28.38596483882450
H            8.52632910819109        5.77615718676078       29.04042994234090
C           10.74375683414212        4.69889571162597       23.98378772645982
H           11.08303988021067        5.41626658629767       23.25223176634652
C           10.40077138414937       -0.09511845000835       24.16088454138538
H           10.61036032200959       -0.91545474016704       23.49283474883968
C            7.52924412060226        4.30949677500648       31.17833732276225
H            7.60588629461806        3.82839230404750       32.15075302601699
H            6.48681845379598        4.59034974644726       31.02403548537965
H            8.12875572848904        5.21370503335111       31.19328240966047
C            7.31021806102499        1.16940228415484       31.25400981211789
H            8.08398477465510        0.88227733947107       31.96776111707512
H            6.86380132044342        0.26031109874644       30.86027550098688
H            6.54039992136702        1.71839733931798       31.79047719904199
C            9.08144936046551        7.89168944620905       27.45960227498454
H            9.96604778770646        8.45231865476067       27.76617672308439
H            8.51733348894038        7.64413378123379       28.35280121441478
H            8.46600911123862        8.53541779906656       26.83239459903974
C           10.37831576740643        7.70652470863373       24.55521578577675
H           10.59975762766888        7.42496501086364       23.53180507888366
C           10.45732307713247        9.00359329548477       24.85696853305041
H           10.29241368592811        9.40188379120315       25.83989953405534
H           10.72862447372100        9.73476200171922       24.11442814644518
C           11.97030152483871        3.75379694634497       21.34344331182405
H           13.04091773882401        3.91099130010364       21.49033532687019
H           11.48296413243284        4.72512868907066       21.35444403098541
H           11.81733613330488        3.32086196037161       20.35916803503365
C           11.76850962984921        0.49367265745814       21.51400638595642
H           11.44350466407189       -0.51348100203429       21.74206472552883
C           12.51794315525946        0.66177680077922       20.42367887045587
H           12.92547314769625        1.61286495510326       20.13521178914306
H           12.77063192720904       -0.16849777941469       19.78780415133937
C            9.46956853698634       -3.02985287329327       24.96132120924486
H           10.13327469782037       -3.71539700766525       25.49006823311271
H            9.83520380805690       -2.89653397734561       23.95119580339001
H            8.48791735328826       -3.50209724260119       24.91792024806607
C            8.20975046263217       -2.77395242555220       27.73427839034006
H            8.97813933979916       -3.47807633661127       28.05499904309006
H            7.50681674222920       -3.31979675016210       27.10531801619209
H            7.67511501550164       -2.42614769008166       28.61158585078494
O            7.66119094738583        2.50384074520117       25.56053356876296
H            7.00280815472925        2.66108450638873       26.24758975642685
H            7.32593900251286        2.57800091208761       24.66176166338330
C           15.29816703739816        2.98644441680107       26.96200950615440
H           15.90802192213357        2.11424990041659       26.73068069312420
H           15.69616854816972        3.44740159640272       27.86487569146194
H           15.38469435591050        3.69448947904683       26.14556558533668
N           13.46495250280129        1.74069410784218       28.12856522116983
H           14.07075924830610        1.27752900500986       28.78772073555145
C           13.87429186146206        2.60443500299325       27.14520764378967
C           12.12307248417641        1.59634560763874       28.01391473650903
H           11.53856540981248        0.97671202961144       28.66347977477702
N           11.65267234886976        2.32391140122599       27.03546471906119
C           12.73161598697274        2.95085083362452       26.47875686054573
H           12.62275679869180        3.61225236575463       25.64491394580518
78
 energy: -116.046516380107 gnorm: 0.034427024081 xtb: 6.7.1 (edcfbbe)
Fe           9.71462798313665        2.43412873006222       26.30400043820110
N            8.90007728430499        2.55589275489830       28.16746627879130
N            9.77462924284488        4.44153428611497       26.20942545295960
N           10.45811076193683        2.30914627458104       24.44850309837425
N            9.51208442939883        0.44473313267105       26.36410725724697
C            8.47198700483377        1.52778631769872       28.93985829706900
C            7.90460790606394        2.01682149685113       30.17354656669031
C            8.00573942012930        3.37493041728042       30.12935274597614
C            8.62116781244629        3.69159200054444       28.86124918170904
C            9.34733186405095        5.31882651023252       27.16222033217473
C            9.50165262364552        6.67992645166369       26.71680211798722
C           10.05765893340349        6.61541527453839       25.46083476048353
C           10.21166471770621        5.19970019248800       25.16944102320032
C           10.86428580220663        3.35042297101864       23.66814023615710
C           11.42858456506876        2.87468433867772       22.42839173685531
C           11.35951162491616        1.50213634241816       22.47178941609348
C           10.72979585565401        1.18129454858056       23.74540444921024
C            9.80488597946580       -0.43137929255191       25.36267327838656
C            9.38873680975733       -1.76749705059014       25.72230194353761
C            8.83877984489484       -1.67547447505983       26.96664641802820
C            8.93742721238894       -0.29181632313386       27.35567626112116
C            8.49375199750120        0.19514444497262       28.56957875768243
H            8.09574716948922       -0.51930928292162       29.27354022242841
C            8.82659936190366        4.97357353082770       28.39581507665666
H            8.52866073400557        5.77670522004223       29.05172756080952
C           10.74037587973068        4.69316979456761       23.99759759766784
H           11.08587010629653        5.40810661220444       23.26685166054962
C           10.40855757046701       -0.09842690900078       24.16514753354360
H           10.61922825507134       -0.91642693969880       23.49332946057895
C            7.53987059234070        4.33572695602457       31.17218577755580
H            7.60530965322578        3.87311926275201       32.15576913667900
H            6.49888664643742        4.61979425645180       31.00261245001223
H            8.13925775829238        5.24255971096363       31.17962912215177
C            7.31680436084340        1.17734079388561       31.25588491957694
H            8.08547367682816        0.87635096406291       31.97060156671698
H            6.86408430818811        0.27570026825934       30.84888702403722
H            6.54866898925369        1.72834268669907       31.79393044161315
C            9.07961017004766        7.88953636422865       27.47530390215967
H            9.95075870263660        8.45470875084253       27.81525950059430
H            8.48846781635138        7.62910195152975       28.35103234678458
H            8.47696397210432        8.53913581849119       26.83990448195747
C           10.39507548509610        7.68317662382873       24.55420430337135
H           10.59294885998918        7.37784760225023       23.53194371416609
C           10.48144308262055        8.98404190845723       24.83112964870842
H           10.32292361258465        9.40165175181128       25.80814600622917
H           10.72414663477907        9.70087458367123       24.06081515672433
C           11.95674958153611        3.75465467941541       21.34871644836882
H           13.03308912607362        3.90298127485560       21.46899153858298
H           11.47850656129801        4.73183207126792       21.37118208162798
H           11.77820571225722        3.31772736720793       20.36829710250392
C           11.77692850985158        0.50619798442804       21.51650705368547
H           11.41571535788422       -0.49426218667774       21.72630256786621
C           12.54218579969255        0.66183706029489       20.43627467098206
H           12.97704950095347        1.60110182007931       20.14314056001448
H           12.76560510349381       -0.17546628360167       19.79330929951212
C            9.49099946362335       -3.02936619094373       24.93211173032973
H           10.15968528530659       -3.73128553327010       25.43580338596337
H            9.85755140652560       -2.86623985939846       23.92297132365848
H            8.51074841369728       -3.50566546964424       24.86903007611110
C            8.22152461206088       -2.78943039595863       27.73834645565928
H            8.98294782622944       -3.49795435541507       28.06833789348153
H            7.51698520814788       -3.33333501915958       27.10774504506135
H            7.68468481081953       -2.43096793711224       28.61224993089970
O            7.62385128194660        2.43078844814751       25.54629907895815
H            6.94789594682351        2.71186079368427       26.19739021753549
H            7.28964521166223        2.63894842274720       24.64899366727679
C           15.28068305039317        2.98383712719419       26.96733698682348