78
 energy: -116.057982795713 gnorm: 0.000107877975 xtb: 6.7.1 (edcfbbe)
Fe           9.57884402524125        2.40657232849365       26.19525320312901
N            8.77521488906448        2.53024453745811       28.03857341316183
N            9.67148830833772        4.41740250449235       26.11539720510885
N           10.31718047068400        2.29312413942335       24.34824948991277
N            9.42537720746420        0.42057241738759       26.27106958400786
C            8.38778697282668        1.49666278560709       28.83394669289907
C            7.90729209509002        1.98292965048345       30.10688388281625
C            8.02422073681889        3.33808900334496       30.06753787917154
C            8.56982363246668        3.66163533917400       28.76881386642817
C            9.34225287129051        5.29502004601093       27.10458259106042
C            9.60134582689906        6.65017121185116       26.69402274592770
C           10.10941215079856        6.57800713415906       25.42313082875224
C           10.13828167871029        5.16930130312303       25.08393791060205
C           10.67911034721308        3.33132548740229       23.54623837569316
C           11.18745583044421        2.85338828507272       22.28446156618221
C           11.13300767184850        1.48693466960591       22.34300588276860
C           10.57544009538186        1.16481978240860       23.64363719621030
C            9.81502074820699       -0.45941942066083       25.31365783062049
C            9.56573492976502       -1.82102755215138       25.73610742916579
C            9.01033068139535       -1.74044212392925       26.97405009991300
C            8.93548809057929       -0.33087709872000       27.29260488446930
C            8.44648971591914        0.15824739426232       28.48959901397512
H            8.09475887012586       -0.55842643843002       29.21607912690387
C            8.82994315057555        4.94926777426687       28.34372218541716
H            8.62731431616621        5.74954815605232       29.03865112062678
C           10.60759036300180        4.67174217269051       23.88322541768419
H           10.96409877341725        5.38492503235481       23.15572628091211
C           10.36304753307184       -0.12493027240192       24.09114642871823
H           10.63434062554256       -0.93485369835143       23.43149566165911
C            7.67797705555584        4.34586929603334       31.10945533683660
H            7.29262702783531        3.86162613011850       32.00338198133697
H            6.91901448210236        5.03599308777178       30.73966595812009
H            8.55709395751533        4.92817956524157       31.38633874679831
C            7.39760754492890        1.10982309688651       31.20211543641980
H            8.17208033116510        0.41801175225822       31.53480382009339
H            6.54591828351282        0.52206377794483       30.85889702565902
H            7.08104477768509        1.70443342663982       32.05548067913237
C            9.29122949036594        7.86457351509402       27.49783601939757
H           10.08353793056480        8.06577435360980       28.22078818952615
H            8.35935951800542        7.73702854162542       28.04695338296989
H            9.19472255235909        8.72958112227161       26.84471823302432
C           10.51913545205637        7.64688457874671       24.53954807664869
H           10.34718420382831        7.47310352383506       23.48347777923675
C           11.08261230086123        8.78902527871953       24.91971699458039
H           11.32115104046442        8.99589012622606       25.94836845264607
H           11.35064927750397        9.54982604956470       24.20546020680296
C           11.60489283063401        3.71711094257727       21.14570139696208
H           12.62397138435727        4.08221183338106       21.28521315849030
H           10.94699823972957        4.58025141057776       21.05557334990112
H           11.56658949893430        3.15248335135498       20.21644000938955
C           11.50256481840842        0.51353527047704       21.33937888332783
H           10.89849019656204       -0.38593632439689       21.31539754836474
C           12.50503568645762        0.63895357560383       20.47573831915692
H           13.16643909978858        1.48773958824091       20.48482529546517
H           12.71571110473650       -0.12188472114469       19.74244435936913
C            9.87517466845045       -3.02593279934067       24.91598204420401
H           10.93607695629057       -3.05832044243673       24.66709077003715
H            9.30987235853761       -3.00837056921208       23.98404737370619
H            9.62074366139605       -3.93644214386830       25.45314550960035
C            8.54789821309942       -2.83287588415538       27.87674532625284
H            9.09401156802305       -2.81109353952570       28.82053053140420
H            8.70114780318095       -3.80545673103483       27.41583732605055
H            7.48624526875607       -2.72255089521717       28.09856160988101
O            7.43340172744112        2.60410830804994       25.40641525776131
H            6.94663601824863        2.42838223944344       26.21900267191337
H            7.39451853360489        3.55426420534379       25.25177944151683
C           14.97217682374026        3.18249767779516       27.36880903845234
H           15.65520085826321        2.34973376417672       27.20139482898428
H           15.22752126581592        3.64665437432668       28.32132400321111
H           15.11243515620774        3.91187537391524       26.57730468177142
N           13.08905210314908        1.80239800915662       28.27497266499717
H           13.62586060558111        1.36611497520601       29.00645411236955
C           13.56261440900325        2.71608537634079       27.37017834435210
C           11.78054337653008        1.59702664868324       28.00337230172309
H           11.15034122926670        0.92907552236210       28.55343680875669
N           11.39733550165747        2.32462032134665       26.98239395481116
C           12.49493241162680        3.02604012773526       26.57752759006123
H           12.44392878786739        3.70305938120904       25.75016737465717
