72
 energy: -105.881352611978 gnorm: 0.251641883273 xtb: 6.7.1 (edcfbbe)
Fe          13.70900000000000      -41.03300000000000      -18.27400000000000
N           12.91000000000000      -39.24199999999999      -18.93700000000000
N           13.37700000000000      -40.40600000000000      -16.33200000000000
N           14.64500000000000      -42.76000000000000      -17.59300000000000
N           14.18000000000000      -41.58300000000000      -20.21400000000000
C           12.79900000000000      -38.86100000000000      -20.26200000000000
C           12.13600000000000      -37.57200000000000      -20.30600000000000
C           11.88200000000000      -37.19700000000000      -19.03800000000000
C           12.38400000000000      -38.23400000000000      -18.15700000000000
C           12.91500000000000      -39.15800000000000      -15.93700000000000
C           13.06500000000000      -39.05700000000000      -14.49700000000000
C           13.62700000000000      -40.20400000000000      -14.06300000000000
C           13.82300000000000      -41.07600000000000      -15.21400000000000
C           14.64000000000000      -43.16700000000000      -16.27300000000000
C           15.09300000000000      -44.54999999999999      -16.23500000000000
C           15.39500000000000      -44.92599999999999      -17.49500000000000
C           15.13900000000000      -43.78200000000000      -18.36200000000000
C           14.95300000000000      -42.67700000000000      -20.56100000000000
C           15.23900000000000      -42.62800000000000      -21.98100000000000
C           14.58100000000000      -41.35699999999999      -22.48200000000000
C           13.95700000000000      -40.76100000000000      -21.32800000000000
C           13.22900000000000      -39.58700000000000      -21.35400000000000
H           12.96800000000000      -39.19400000000000      -22.33700000000000
C           12.34100000000000      -38.22199999999999      -16.78100000000000
H           11.80400000000000      -37.39800000000000      -16.31100000000000
C           14.29900000000000      -42.37800000000000      -15.20500000000000
H           14.41700000000000      -42.83300000000000      -14.22200000000000
C           15.33800000000000      -43.70000000000000      -19.72700000000000
H           15.85700000000000      -44.53699999999999      -20.19300000000000
C           11.19000000000000      -35.89800000000000      -18.57400000000000
H           10.91700000000000      -35.28600000000000      -19.46000000000000
H           11.88200000000000      -35.31300000000000      -17.93200000000000
H           10.26600000000000      -36.14600000000000      -18.00900000000000
C           11.85800000000000      -36.77000000000000      -21.59200000000000
H           10.80100000000000      -36.91800000000000      -21.90000000000000
H           12.52400000000000      -37.12499999999999      -22.40700000000000
H           12.03000000000000      -35.68900000000000      -21.40500000000000
C           12.69100000000000      -37.82899999999999      -13.61500000000000
H           11.70700000000000      -38.00600000000000      -13.13100000000000
H           12.62300000000000      -36.91900000000000      -14.24800000000000
H           13.46000000000000      -37.68600000000000      -12.82600000000000
C           13.98100000000000      -40.52499999999999      -12.59200000000000
H           13.26600000000000      -40.29600000000000      -11.78800000000000
C           15.15800000000000      -41.08700000000000      -12.25700000000000
H           15.90000000000000      -41.33200000000000      -13.03100000000000
H           15.39200000000000      -41.30799999999999      -11.20500000000000
C           15.21700000000000      -45.44000000000000      -14.97300000000000
H           14.58700000000000      -45.02000000000000      -14.16000000000000
H           16.27500000000000      -45.46500000000000      -14.63400000000000
H           14.86800000000000      -46.46900000000000      -15.20400000000000
C           15.92200000000000      -46.33300000000000      -17.90000000000000
H           16.50900000000000      -46.92700000000000      -17.18400000000000
C           15.68500000000000      -46.86100000000000      -19.11000000000000
H           15.10300000000000      -46.30300000000000      -19.85800000000000
H           16.07000000000000      -47.85799999999999      -19.36900000000000
C           16.05600000000000      -43.64700000000000      -22.80900000000000
H           15.48600000000000      -44.59699999999999      -22.89600000000000
H           17.02300000000000      -43.85200000000000      -22.30300000000000
H           16.23900000000000      -43.24200000000000      -23.82700000000000
C           14.56100000000000      -40.83400000000000      -23.93100000000000
H           13.67000000000000      -41.23700000000000      -24.45900000000000
H           15.47700000000000      -41.16799999999999      -24.46300000000000
H           14.50700000000000      -39.72400000000000      -23.92899999999999
O           15.93900000000000      -39.53000000000000      -18.61500000000000
H           15.63400000000000      -38.63600000000000      -18.77000000000000
H           16.78600000000000      -39.80000000000000      -18.59000000000000
C           10.53000000000000      -41.34000000000000      -19.17299999999999
H           10.09100000000000      -40.53300000000000      -18.54800000000000
H            9.70100000000000      -41.98500000000000      -19.53300000000000
H           11.02600000000000      -40.86600000000000      -20.04700000000000
S           11.70600000000000      -42.30800000000000      -18.24700000000000
H           12.16700000000000      -42.96700000000000      -19.30000000000000
72
 energy: -105.938612485686 gnorm: 0.107191832929 xtb: 6.7.1 (edcfbbe)
Fe          13.78852119974791      -40.99073457841843      -18.26509384169958
N           12.91834599284757      -39.24698169524610      -18.93613424233140
N           13.41832364712033      -40.38975081250702      -16.33236270032496
N           14.63950186239713      -42.76065203569189      -17.59575821090186
N           14.18983868044381      -41.56669757305309      -20.20153853310480
C           12.79126447449561      -38.87103028245301      -20.25197765768197
C           12.13895913039202      -37.57186956162063      -20.31401254146614
C           11.87656027539134      -37.19456338050029      -19.03599306856466
C           12.37587811277419      -38.24863426863356      -18.16771491943200
C           12.91463084814004      -39.17466993629325      -15.92838694076221
C           13.05712651042580      -39.05671671351876      -14.48715680072097
C           13.62255333040152      -40.21609485934294      -14.04398702479996
C           13.82401112940850      -41.06649592467962      -15.21340824974272
C           14.63577716113863      -43.17511123547508      -16.28675422728407
C           15.10235168328071      -44.55492428424787      -16.23056270007211
C           15.40993143943213      -44.93646200135150      -17.50420466025120
C           15.12460023006977      -43.78452391361299      -18.36195641910261
C           14.94007413501918      -42.65231902465555      -20.57940252066125
C           15.22199240491512      -42.59078234826097      -21.99817890499162
C           14.59271843526862      -41.40098445992831      -22.47179468146392
C           13.96367335544334      -40.79456785097899      -21.32460436896098
C           13.23344629888940      -39.60461526115283      -21.34477748188926
H           12.99153252747797      -39.19936566216720      -22.32380053279930
C           12.34272689027965      -38.23442449821585      -16.78128436518292
H           11.82682599460547      -37.39917955642310      -16.31565864890287
C           14.29510801062174      -42.37714911486929      -15.20617474995249
H           14.42014703456848      -42.82549890642292      -14.22516380047027
C           15.33017315377317      -43.68945399140100      -19.73362383651944
H           15.85982142184587      -44.51442049241850      -20.19630495126196
C           11.20062862045976      -35.91674326032827      -18.57841855419015
H           10.92390157307510      -35.30303584178559      -19.44227467826386
H           11.87064008126421      -35.32977251241762      -17.93931618829069
H           10.28741704067352      -36.14471478298892      -18.01644050332303
C           11.85973228386590      -36.78396877845750      -21.57768909288621
H           10.81779874960661      -36.91869692990195      -21.89373668598436
H           12.51209777181811      -37.11557130752507      -22.39086338804150
H           12.02860511830317      -35.71477904485864      -21.40818034679504
C           12.69406076146639      -37.84862730324482      -13.63342998434584
H           11.72473982022978      -38.00797696870927      -13.14489268887570
H           12.62809488410370      -36.93990759834446      -14.23992868703737
H           13.44573701400944      -37.69588269004752      -12.85058251288889
C           13.98663868698642      -40.53596769842086      -12.62340181633130
H           13.27163688917581      -40.28670389223733      -11.83722413076917
C           15.14677596968785      -41.08656325265980      -12.27314335559543
H           15.89623880182972      -41.32758405360522      -13.01767224967376
H           15.38402275706739      -41.30005171181087      -11.23346409798470
C           15.21245882477331      -45.42095907463658      -14.98757688871210
H           14.59649080782283      -45.02349600866028      -14.17489729033591
H           16.25377787174044      -45.46137254546480      -14.64430754351766
H           14.87831241061010      -46.44165046217726      -15.20495994333674
C           15.91274521760763      -46.29497692659345      -17.91282794965966
H           16.48227191933139      -46.87429492399303      -17.18316389296305
C           15.68177820243009      -46.84718239596862      -19.10179522439017
H           15.09625269160513      -46.33145267613219      -19.85152241431983
H           16.06213480214651      -47.83315335512020      -19.35642000639834
C           16.02895436773021      -43.61104780391534      -22.79100796427414
H           15.48832331334291      -44.56406768071347      -22.88703473273243
H           16.99081269080268      -43.83211637887450      -22.30780653199986
H           16.23052188813785      -43.24263138746554      -23.80240965031946
C           14.56525654784085      -40.85871601816457      -23.89237498041972
H           13.68906891968299      -41.23625683021657      -24.43901044266618
H           15.46001148384793      -41.16533594105877      -24.44525735037095
H           14.51384338799309      -39.76146412289206      -23.91217599416385
O           15.87987152007853      -39.55354702556375      -18.59523999246553
H           15.62424894040099      -38.64951809735119      -18.77015214370764
H           16.78452742381304      -39.81471359199939      -18.58928094336185
C           10.51877845783591      -41.33327793069766      -19.18866053430440
H           10.10343752319988      -40.54726568460812      -18.54938636965842
H            9.70369474360532      -41.98082864870147      -19.53053887750357
H           11.01500348552429      -40.86480155924696      -20.04364649688256
S           11.72462467475692      -42.28584829040275      -18.25305295706235
H           12.16061568910103      -42.97980278849675      -19.30206234189662
72
 energy: -105.959069018350 gnorm: 0.042076623979 xtb: 6.7.1 (edcfbbe)
Fe          13.81570211707189      -40.97115733813477      -18.26912168932424
N           12.93230397698601      -39.25324374546489      -18.93424370490413
N           13.46684969752223      -40.37459511275243      -16.34205689726612
N           14.64427954825340      -42.74652125514045      -17.59975776587977
N           14.21102806757203      -41.54519891585497      -20.18879558419448
C           12.79583016161244      -38.88118085077264      -20.24039500813477
C           12.14225240826428      -37.58267388401993      -20.31725178262916
C           11.87453599890670      -37.20410673734327      -19.03242434899094
C           12.38228582964000      -38.26316342114558      -18.17473144237226
C           12.93673219229671      -39.18594569367445      -15.93116642727166
C           13.04924608061106      -39.06392063603951      -14.48876990781062
C           13.62209679775766      -40.22900552678623      -14.04114662653047
C           13.84639499294512      -41.05421596756301      -15.22542428651989
C           14.64032050319770      -43.17009598139676      -16.30297779588226
C           15.10619211571312      -44.54598891182412      -16.23318098025845
C           15.41139885788751      -44.93148917289520      -17.51799108340938
C           15.11601826107791      -43.77179126939379      -18.36369846908380
C           14.94042103177613      -42.62733952807547      -20.58260545204778
C           15.20270843813996      -42.56010474823658      -22.00810262214837
C           14.60215623864377      -41.43767817893706      -22.45903610011292
C           13.97722387077805      -40.81005292562642      -21.31219845505305
C           13.24830814072393      -39.61537278374620      -21.33285110876378
H           13.02304455694354      -39.20292385410773      -22.30885700482671
C           12.36299875338856      -38.24278735015310      -16.78366960710700
H           11.85855979527958      -37.40327112017646      -16.32096931857151
C           14.30522302585137      -42.36997963908858      -15.21197882334478
H           14.42405785494313      -42.81588826622720      -14.23259926242855
C           15.32978738434242      -43.67215432461565      -19.73656892784976
H           15.85987479906767      -44.49109627230352      -20.19979949619240
C           11.21132694477816      -35.94315324460688      -18.58016657816579
H           10.93352870545451      -35.32864791841477      -19.43273735539170
H           11.86885395814676      -35.35443633127397      -17.94181959843196
H           10.30475249301662      -36.15825548288284      -18.01681837537537
C           11.86254861769511      -36.80394084259291      -21.56250521591390
H           10.82806289928277      -36.93099169824303      -21.88223134616357
H           12.50718365051384      -37.11863699326107      -22.37737135934068
H           12.02793255116944      -35.74055343077309      -21.39895745976029
C           12.69310499334069      -37.87471262281224      -13.65468806308226
H           11.73086674313922      -38.01892005708321      -13.16178848100635
H           12.63272765070543      -36.96679954533332      -14.24808063344025
H           13.43769133126976      -37.71738316270985      -12.87593150075292
C           13.98624044202746      -40.54336210836177      -12.66558039691065
H           13.26695856916372      -40.27351880412974      -11.89678394570714
C           15.13793592653163      -41.08643200808024      -12.29466867135303
H           15.89868175356814      -41.33224809909814      -13.01386528619438
H           15.37207237126091      -41.29206652789408      -11.26182121866677
C           15.21009776335247      -45.39639437221502      -15.00751235770669
H           14.60164805962286      -45.01054105068378      -14.19559646108619
H           16.24249235510739      -45.44880158169551      -14.65874382286577
H           14.88367370323870      -46.41352084515255      -15.21702748196893
C           15.89305761393514      -46.24309180894397      -17.92102087510451
H           16.45673852937783      -46.80011855595155      -17.17649792931872
C           15.67270502700597      -46.82789101614901      -19.09478508551335
H           15.08355253851248      -46.35353498219548      -19.85736414412196
H           16.05652599607233      -47.80696030296559      -19.33486598469552
C           16.00057984931097      -43.57518858461191      -22.77495435406964
H           15.46823134479927      -44.52515728533785      -22.86551485791529
H           16.95506071536609      -43.79465182402379      -22.29258430077125
H           16.21209339722537      -43.22540010989100      -23.78279174451119
C           14.56797064270071      -40.88597963595134      -23.85625057579887
H           13.69635071441246      -41.24938209037142      -24.40614847501619
H           15.45265393424102      -41.17990416226816      -24.41733249577208
H           14.52171375661287      -39.79667138603101      -23.86958265322583
O           15.81072725862574      -39.59767821198270      -18.52586801120573
H           15.61346075783044      -38.68813101870405      -18.77742129390264
H           16.74457171558619      -39.83479901152192      -18.60079364104669
C           10.50713220674064      -41.32394109293884      -19.20476771217666
H           10.11131213943335      -40.55692929386018      -18.54746450618225
H            9.70593591371674      -41.97996245451082      -19.52973661696060
H           11.00258107457118      -40.85976062598699      -20.04824976677564
S           11.72884467696277      -42.27728696413119      -18.25559101046808
H           12.15498721738030      -42.99631944287594      -19.29834837725252
72
 energy: -105.965978728765 gnorm: 0.041323296693 xtb: 6.7.1 (edcfbbe)
Fe          13.85339379866543      -40.94843331513595      -18.27175400045546
N           12.94291314880165      -39.26146835623933      -18.93316543210046
N           13.50606585551521      -40.36453858614506      -16.35866626018766
N           14.65291270229400      -42.72409037778087      -17.60365485614805
N           14.22765201544487      -41.52719212758216      -20.17756282604756
C           12.80130679481955      -38.88802763261481      -20.23472414468252
C           12.14406198772091      -37.59694041209678      -20.31332913023714
C           11.87770519807523      -37.22046986355200      -19.02894363601908
C           12.39252279502786      -38.27400394319127      -18.17564215405362
C           12.96042184136587      -39.18790698729853      -15.94455343975270
C           13.05132174779477      -39.07282613078262      -14.50474389020382
C           13.63066732777903      -40.23368439784736      -14.06006499391750
C           13.87360325010704      -41.04637300340076      -15.24323344380442
C           14.64987600370883      -43.15291643369411      -16.31176251952644
C           15.10802070652987      -44.52345747238242      -16.24165962327261
C           15.40398549457595      -44.90710420107203      -17.52875769815857
C           15.11394091250326      -43.74962293320278      -18.36673287082112
C           14.94924518799471      -42.61333115966138      -20.56842234352724
C           15.20380449531689      -42.55694728931883      -21.99465086504097
C           14.59091620374826      -41.43273825850495      -22.45216887040808
C           13.97958277169406      -40.80054276911262      -21.29967568670448
C           13.25707962324277      -39.61237212174843      -21.32740628909392
H           13.05066408911066      -39.19359739593261      -22.30324512127673
C           12.38331969314406      -38.24508682215465      -16.78824208308856
H           11.89231072424688      -37.39980062278433      -16.32447599311222
C           14.32239663556919      -42.35951374851877      -15.21821388104709
H           14.43452129628593      -42.80500425230099      -14.23891906275493
C           15.33591112720590      -43.65625575156116      -19.73408953434067
H           15.86756904240391      -44.47160528511644      -20.19963272523503
C           11.21734800503277      -35.96461104424613      -18.57303143270419
H           10.93930120953671      -35.35081816915910      -19.42614225302482
H           11.87875936664363      -35.37984607461777      -17.93449299481729
H           10.31275531980296      -36.18154202573056      -18.00663600722841
C           11.86157217146838      -36.82129589281266      -21.55567333012344
H           10.82661577547267      -36.95131581374302      -21.87347565026019
H           12.50724663392399      -37.13155655442559      -22.37209943099149
H           12.02537520571931      -35.75823936115290      -21.38721739678585
C           12.68722480430175      -37.89120772120286      -13.67194401047414
H           11.72369934740098      -38.03658453357507      -13.18146903364587
H           12.63114059550281      -36.98410412490095      -14.26728078541843
H           13.43301160658398      -37.73844517907642      -12.89316666643151
C           13.98541852614468      -40.54976870190217      -12.69209610774250
H           13.26135161912244      -40.26203074097604      -11.93528552846164
C           15.13322378682380      -41.09622482140933      -12.31052068652919
H           15.90400969676422      -41.34345112836343      -13.02028909337674
H           15.36132795472505      -41.28723124300598      -11.27504879153588
C           15.20982793506113      -45.37308219691570      -15.02036935676562
H           14.60032175287402      -44.98589614455126      -14.20943695574829
H           16.24271510561859      -45.42717060229187      -14.67196240801417
H           14.88287445627595      -46.38927861536752      -15.23454222613659
C           15.88391256583344      -46.20851749399583      -17.92976707001080
H           16.44759871395542      -46.74492291445233      -17.17179934763032
C           15.66420733596569      -46.81717292510691      -19.09309119885828
H           15.05194675479912      -46.37674037675726      -19.86254685947273
H           16.05742531477132      -47.79634737570822      -19.31104617595649
C           15.99038171823159      -43.56549819354661      -22.76185373641252
H           15.44622577305321      -44.50723793117399      -22.84272464773305
H           16.94120784721697      -43.77271883571719      -22.27199302346181
H           16.19480847042887      -43.21074398371427      -23.76882156127418
C           14.56085618227220      -40.89383416055674      -23.84382080411587
H           13.68707287163396      -41.26044713181238      -24.38440139487177
H           15.44716819944797      -41.19745675698949      -24.39605750452044
H           14.52319013102938      -39.80653467461650      -23.84211186927095
O           15.74319817538414      -39.64506430267115      -18.40557288234056
H           15.57294029242269      -38.75609991633758      -18.79584553500397
H           16.67496180554962      -39.89107497391177      -18.61262792887567
C           10.50523231516722      -41.31692549850652      -19.21540904234302
H           10.11548898735226      -40.55650381357952      -18.54735273415412
H            9.70683424540925      -41.98403839347843      -19.52594968008513
H           10.98715220535376      -40.84960646201649      -20.06487507422723
S           11.75122005102796      -42.25457999503185      -18.26799650445029
H           12.14715669820023      -43.01338155015591      -19.29906190369348
72
 energy: -105.968387401611 gnorm: 0.039028191728 xtb: 6.7.1 (edcfbbe)
Fe          13.82974788994077      -40.95467845669739      -18.27363444755666
N           12.95882364508698      -39.27380087019361      -18.93241459183326
N           13.54787279791709      -40.35596613660462      -16.38149927288682
N           14.66436688710671      -42.69097785843733      -17.60931723026345
N           14.25021901559758      -41.50057705558644      -20.15694031972809
C           12.81167336849948      -38.89528212871647      -20.22947789839736
C           12.14741508913005      -37.61513011276792      -20.30785841675495
C           11.88441079342783      -37.24198604277739      -19.02474244496545
C           12.40964066756503      -38.28681191940564      -18.17663611684951
C           12.99274037440363      -39.18870486669447      -15.96439741900017
C           13.05892954485967      -39.08278746003480      -14.52815545717715
C           13.64651441071398      -40.23637608034290      -14.08744617597524
C           13.91105231206316      -41.03558233799962      -15.26720613405498
C           14.66673632684937      -43.12660880828248      -16.32187274248404
C           15.11296259789491      -44.49119733261179      -16.25360990029979
C           15.39561363315057      -44.87199913692039      -17.54229293250629
C           15.11470486858801      -43.71760480991809      -18.37050573589376
C           14.96173613527396      -42.59313507683665      -20.54710299562919
C           15.20191250922298      -42.55250717699686      -21.97349993315521
C           14.57812103661448      -41.42305716934186      -22.43873403099217
C           13.98575253526175      -40.78489672778338      -21.28145620050739
C           13.27141130421270      -39.60548115695315      -21.32317594455338
H           13.08368371453070      -39.18323564277618      -22.29916702637431
C           12.41210789522300      -38.24558782758616      -16.79508753853936
H           11.93695306726550      -37.39389268966485      -16.32962635809064
C           14.34930494070184      -42.34377914825743      -15.22535892814615
H           14.45456028106343      -42.78812179058006      -14.24603057154473
C           15.34517925316144      -43.63588385384218      -19.73124630221247
H           15.87026139849154      -44.45271023613059      -20.20025716450758
C           11.22419269690944      -35.99114101170053      -18.56122904866936
H           10.94384267431523      -35.37665703945940      -19.41410816380638
H           11.89175603241706      -35.41150454951752      -17.92258018758660
H           10.32237361018072      -36.21308207145484      -17.99049307609836
C           11.85751282594654      -36.84290838393519      -21.54908307314126
H           10.82145891499465      -36.97986214342419      -21.86327167127578
H           12.50473846787583      -37.14907429956050      -22.36750237241850
H           12.01771052121518      -35.77922908500461      -21.37535167415463
C           12.68114042278547      -37.90840575877117      -13.69382506247454
H           11.71480084122524      -38.05939021695927      -13.20926055419119
H           12.62824196480417      -37.00161027335527      -14.29143617740758
H           13.42654287735530      -37.76029340662830      -12.91263568435513
C           13.99061227933298      -40.55175851736347      -12.72046582439795
H           13.25914619386411      -40.24899808413370      -11.97783009234376
C           15.13378117746938      -41.10373564322079      -12.32867295125461
H           15.90974552152848      -41.36309899161456      -13.03095425419352
H           15.34899219650245      -41.28778343574535      -11.28998854963659
C           15.21169881294224      -45.34260262647366      -15.03526950779275
H           14.60004540188709      -44.95239637807769      -14.22584629373625
H           16.24566792185627      -45.39719205403250      -14.68714443778963
H           14.88251169843140      -46.35767860345876      -15.25537058346044
C           15.87129182207318      -46.17184552767279      -17.94063981332555
H           16.44563933654401      -46.68131492564340      -17.17326009459777
C           15.64497269163935      -46.80561632902653      -19.08994129042344
H           15.02359199356714      -46.39281038335210      -19.87058573069826
H           16.05629278805652      -47.78240760943611      -19.28427677108011
C           15.97559501551424      -43.55631247104908      -22.74479560952954
H           15.41990686708058      -44.49046057607077      -22.81659520111852
H           16.92473468225694      -43.75408200233377      -22.25133648412928
H           16.17106635463568      -43.19687045336799      -23.75224686294949
C           14.54879329532387      -40.90316686851035      -23.82903687318867
H           13.67130318173712      -41.27202478890462      -24.35964140093371
H           15.43526714129101      -41.22131046031006      -24.37391753889734
H           14.52197349670044      -39.81727975316968      -23.81947257325614
O           15.69330649847628      -39.73076811938338      -18.46625351132110
H           15.52726521539486      -38.83526528352350      -18.69995980040392
H           16.62037296090030      -39.92052201264971      -18.53458746889303
C           10.49697703695784      -41.31143005776860      -19.22437769960131
H           10.11504916041904      -40.55642290839855      -18.54459510221457
H            9.69986430326016      -41.98353151868764      -19.52773133229796
H           10.97029344980292      -40.83898881879364      -20.07779266178936
S           11.74671993279201      -42.25338115512999      -18.27642385588734
H           12.13180142791663      -43.03242549218000      -19.29646285239260
72
 energy: -105.970612820845 gnorm: 0.016100322484 xtb: 6.7.1 (edcfbbe)
Fe          13.79333208871885      -40.97389383336638      -18.27665814462653
N           12.95892733547871      -39.28066236293650      -18.93553925145945
N           13.55122429481443      -40.35691041467793      -16.39145583679762
N           14.66360870008280      -42.68051748223749      -17.61326013513968
N           14.23744717844849      -41.50114646435294      -20.15312347646357
C           12.81368653937109      -38.89591729992377      -20.23195311039015
C           12.14678669498412      -37.61787524706992      -20.30862394148599
C           11.88616530968740      -37.24573623529140      -19.02502374755891
C           12.41477850162341      -38.28931892457643      -18.17987465687025
C           13.00277063696285      -39.18689914308970      -15.97304510535971
C           13.06848892396987      -39.07998989913576      -14.53772093618660
C           13.65889707252151      -40.23101518503010      -14.09588312205907
C           13.92327020784211      -41.02936436837667      -15.27495077697524
C           14.67565895332100      -43.11613769032083      -16.32507008255171
C           15.11946126795233      -44.48047094698162      -16.25738270501172
C           15.39849105125175      -44.86215654292259      -17.54611470479296
C           15.11634800810671      -43.70798350744577      -18.37246059550707
C           14.95922042444238      -42.58592428067507      -20.54501418754963
C           15.19701555601606      -42.54491262323089      -21.96975093426976