72
 energy: -105.979739584936 gnorm: 0.000144628284 xtb: 6.7.1 (edcfbbe)
Fe          13.83172008902386      -40.89653924536456      -18.25447696766657
N           13.02597067528098      -39.20093274225613      -18.90730426154266
N           13.57742306995259      -40.31831985672694      -16.37059757083944
N           14.67524460875527      -42.60995901163140      -17.61666370859153
N           14.20935406150196      -41.43969818164088      -20.15244579395322
C           12.92798965238321      -38.77600618416104      -20.19291126850713
C           12.23159041996589      -37.50911906036659      -20.26155189584171
C           11.90684121333429      -37.18376888714776      -18.98280990616297
C           12.42702568346465      -38.24690086644867      -18.14925405631815
C           12.93340817539880      -39.19991848087054      -15.95038736786773
C           12.95987634343147      -39.10442691893315      -14.51307598635876
C           13.67583073976220      -40.18094783022306      -14.06777880520521
C           14.01991356178867      -40.94678049903387      -15.25131726651498
C           14.86080602030020      -42.98696719536392      -16.32127791947772
C           15.37547448532045      -44.32725528050276      -16.25213988505975
C           15.46693693545040      -44.77626806788309      -17.54313872539803
C           15.04673704282703      -43.67266460347716      -18.38042561690652
C           14.77588710242958      -42.60488363371076      -20.57411281601301
C           14.94065468570857      -42.59962575677083      -22.00915559193113
C           14.46037833450390      -41.40323731668700      -22.44603726029580
C           14.00250572374011      -40.69534756654831      -21.27338773630313
C           13.40308108983193      -39.45006812702274      -21.30207165296993
H           13.28254334108173      -38.97775197403396      -22.26441356477076
C           12.35775150566845      -38.24729616933708      -16.77163450390154
H           11.85424552479464      -37.41979771445134      -16.29634045594394
C           14.59327975130199      -42.20186642423038      -15.21406479894794
H           14.80678297580780      -42.62201417182627      -14.24422242269477
C           15.13760173248727      -43.66233422691353      -19.76065535917143
H           15.55097965813465      -44.53746094852670      -20.23566267858456
C           11.18240911376908      -35.98968913640238      -18.46504768241088
H           10.85249520903281      -35.35289172118571      -19.28209888422823
H           11.83041774543453      -35.40343361593072      -17.81329731900199
H           10.30750012408635      -36.29162586483542      -17.88916772649888
C           11.95506067829771      -36.77075338094514      -21.52564400403065
H           11.35158755638978      -37.37738997087065      -22.20159984263086
H           12.88651158170658      -36.52222693405383      -22.03440847652378
H           11.41911412408577      -35.84683543538238      -21.32375289595955
C           12.36753119944797      -37.99224072779210      -13.72026389747890
H           11.31012374242404      -37.87342586500804      -13.95700612603894
H           12.87167451911975      -37.05165295776631      -13.94441416559166
H           12.46732383045422      -38.18602906592687      -12.65534402979524
C           14.02051425952842      -40.49282423110899      -12.69623641099215
H           13.25841550373094      -40.25554501389193      -11.96200220935549
C           15.18042792127595      -40.99122438878636      -12.28377833509182
H           15.99087033586550      -41.19213327889757      -12.96391675016999
H           15.36974506234542      -41.19077318692635      -11.24219329811453
C           15.67746567103262      -45.05986221365155      -14.99210117985357
H           14.76743975176809      -45.20902859233261      -14.41050416743366
H           16.37931715005491      -44.49571108193963      -14.37753488343220
H           16.10755306333786      -46.03434734799591      -15.20894027919718
C           15.89305688453356      -46.08968656258428      -17.98026044582906
H           16.69632542689675      -46.53213206452439      -17.40115425509571
C           15.35920479434938      -46.78446476740169      -18.97817463668239
H           14.52346940919964      -46.41675022780192      -19.54931118419345
H           15.72476220530723      -47.76276784458438      -19.24224659454695
C           15.53108895719259      -43.72320415882982      -22.78876881495169
H           14.93681034159476      -44.62909589695307      -22.66639435977604
H           16.54385427417458      -43.93709994404449      -22.44678550848090
H           15.57018633062324      -43.48037038354217      -23.84765253199614
C           14.38402854683496      -40.86531819070577      -23.83313473188059
H           13.34692995445170      -40.68957427698459      -24.12074367784041
H           14.82177220342225      -41.56294387643346      -24.54266688118441
H           14.91946260065974      -39.91869221030863      -23.90637886765520
O           15.89653854687600      -40.02464883296081      -18.23249304349420
H           16.22338155735589      -40.30626019888138      -19.09471309893728
H           16.31909996050765      -40.58513244897401      -17.57186933326940
C           10.80234930363147      -41.42194872294931      -19.70502085264959
H           10.38538126525577      -40.46370458139106      -19.41353119046961
H           10.00581046998345      -42.12723814267104      -19.92108805629707
H           11.45880023658659      -41.29235085852742      -20.55847607557589
S           11.76728286342747      -42.02851045773551      -18.27699728150824
H           12.20207152050950      -43.13530439748698      -18.88857017012980
