87
 energy: -128.331697820792 gnorm: 0.375335745598 xtb: 6.7.1 (edcfbbe)
Fe          18.26200000000000       22.85000000000000        6.99200000000000
N           18.20800000000000       24.91900000000000        6.96400000000000
N           16.66100000000000       22.77600000000000        8.30900000000000
N           18.29000000000000       20.78000000000000        7.00400000000000
N           19.96300000000000       22.95300000000000        5.80300000000000
C           18.93600000000000       25.74600000000000        6.19600000000000
C           18.56100000000000       27.06200000000000        6.41700000000000
C           17.67300000000000       27.02199999999999        7.49700000000000
C           17.35100000000000       25.68200000000000        7.65000000000000
C           15.92700000000000       23.82800000000000        8.69000000000000
C           14.78300000000000       23.43200000000000        9.37200000000000
C           14.86700000000000       22.03500000000000        9.43300000000000
C           15.97500000000000       21.69200000000000        8.69200000000000
C           17.42100000000000       19.95900000000000        7.59600000000000
C           17.73999999999999       18.63600000000000        7.39600000000000
C           18.80800000000000       18.66400000000000        6.49100000000000
C           19.11900000000000       20.00600000000000        6.31000000000000
C           20.52600000000000       21.87400000000000        5.24200000000000
C           21.49400000000000       22.25100000000000        4.33300000000000
C           21.60700000000000       23.64200000000000        4.42600000000000
C           20.49100000000000       24.03000000000000        5.17900000000000
C           19.95500000000000       25.31800000000000        5.34100000000000
H           20.39500000000000       26.09100000000000        4.71200000000000
C           16.29400000000000       25.16200000000000        8.41200000000000
H           15.64900000000000       25.91300000000000        8.86500000000000
C           16.33400000000000       20.39100000000000        8.35100000000000
H           15.67700000000000       19.60600000000000        8.72500000000000
C           20.14600000000000       20.53800000000000        5.50700000000000
H           20.75400000000000       19.79000000000000        5.00200000000000
C           17.26500000000000       28.20200000000000        8.38300000000000
H           16.37000000000000       28.69800000000000        7.95100000000000
H           18.09600000000000       28.93800000000000        8.43400000000000
H           17.01800000000000       27.83800000000000        9.40300000000000
C           19.13100000000000       28.30000000000000        5.73300000000000
H           19.12900000000000       28.15000000000000        4.63200000000000
H           20.17599999999999       28.46800000000000        6.07100000000000
H           18.50500000000000       29.18500000000000        5.97700000000000
C           13.72000000000000       24.36799999999999        9.93200000000000
H           13.66600000000000       25.28400000000000        9.30600000000000
H           13.98400000000000       24.65700000000000       10.97200000000000
H           12.73000000000000       23.86300000000000        9.91800000000000
C           14.03600000000000       21.07500000000000       10.02400000000000
H           14.39400000000000       20.03600000000000       10.03900000000000
C           12.73700000000000       21.29500000000000       10.62900000000000
H           12.29900000000000       22.30400000000000       10.66000000000000
H           12.17400000000000       20.45600000000000       11.06400000000000
C           17.06500000000000       17.48100000000000        8.13200000000000
H           16.08600000000000       17.26000000000000        7.65600000000000
H           16.89500000000000       17.76100000000000        9.19400000000000
H           17.70500000000000       16.57500000000000        8.07600000000000
C           19.51899999999999       17.62500000000000        5.87800000000000
H           20.23100000000000       17.90700000000000        5.09000000000000
C           19.44000000000000       16.19900000000000        6.14900000000000
H           18.75700000000000       15.81400000000000        6.92000000000000
H           20.06300000000000       15.48800000000000        5.58600000000000
C           22.33100000000000       21.30399999999999        3.48000000000000
H           21.66400000000000       20.57700000000000        2.96900000000000
H           23.04300000000000       20.74700000000000        4.12600000000000
H           22.88800000000000       21.88300000000000        2.71200000000000
C           22.85800000000000       24.39500000000000        3.92200000000000
H           22.89100000000000       24.35800000000000        2.81200000000000
H           23.77400000000000       23.91400000000000        4.32600000000000
H           22.81300000000000       25.45700000000000        4.24600000000000
C           22.69800000000000       23.98600000000000       10.18700000000000
H           23.57500000000000       23.30400000000000       10.17800000000000
H           22.49700000000000       24.30200000000000       11.23300000000000
H           22.92599999999999       24.87400000000000        9.55900000000000
N           20.90200000000000       22.14700000000000       10.08900000000000
H           21.27800000000000       21.58800000000000       10.82800000000000
C           21.46500000000000       23.24800000000000        9.61900000000000
C           19.78000000000000       21.91400000000000        9.42900000000000
H           19.10900000000000       21.07700000000000        9.61500000000000
N           19.64300000000000       22.85600000000000        8.54000000000000
C           20.64100000000000       23.69700000000000        8.59700000000000
H           20.71300000000000       24.54600000000000        7.92900000000000
C           15.79300000000000       22.56500000000000        1.97100000000000
H           15.29200000000000       23.48200000000000        1.59400000000000
H           15.12400000000000       21.69400000000000        1.80500000000000
H           16.74600000000000       22.42200000000000        1.41900000000000
N           15.11300000000000       22.91000000000000        4.34100000000000
H           14.13800000000000       22.97800000000000        4.13200000000000
C           16.07900000000000       22.71800000000000        3.46200000000000
C           15.67700000000000       22.99200000000000        5.51700000000000
H           15.13700000000000       23.16200000000000        6.44700000000000
N           16.97700000000000       22.83600000000000        5.37600000000000
C           17.30600000000000       22.67400000000000        4.13300000000000
H           18.32700000000000       22.54400000000000        3.80200000000000
87
 energy: -128.420121512060 gnorm: 0.160116367898 xtb: 6.7.1 (edcfbbe)
Fe          18.26679614099604       22.85401663345862        7.00075960822031
N           18.19945169524476       24.89259727107870        6.95202914415801
N           16.66953819918430       22.78002666112281        8.28376589404722
N           18.28336721180440       20.80594115477266        6.98994210744729
N           19.91478655677284       22.94659750932284        5.78014065693796
C           18.93643678375511       25.73002946424056        6.18227626557403
C           18.57091517428053       27.07905867499662        6.43407739080788
C           17.67502985898310       27.04160933930513        7.48890817440927
C           17.36055313005813       25.66805162757296        7.67712216078473
C           15.93781839114963       23.84589363836331        8.68507160533649
C           14.77297562932844       23.43830148750981        9.38139715444082
C           14.83343099570787       22.04481613660270        9.43840905184707
C           15.98919010004162       21.68624230902392        8.69415908553464
C           17.41989741424476       19.97229420670031        7.61143979221952
C           17.74679189793741       18.61989040777484        7.39693001523849
C           18.81832007260810       18.63601407575334        6.50293463329781
C           19.12784836024905       20.01933671709212        6.29735634474032
C           20.50556393435881       21.85775131571812        5.23904861073002
C           21.52310576677444       22.24698751313185        4.33762473077716
C           21.61989124280140       23.62736950169886        4.41475770364234
C           20.50031865242306       24.03607015937388        5.20474868374884
C           19.97106793004206       25.32094705146946        5.34177669557358
H           20.40795599437030       26.09224202041576        4.71685209462229
C           16.29982627130650       25.17341650373049        8.43053501859981
H           15.64950294772451       25.92136024985511        8.86742242479902
C           16.33637933362876       20.38785353551950        8.36799718009717
H           15.68070524764589       19.60405295683444        8.72423886489022
C           20.14997305917724       20.53035447336438        5.49923741909019
H           20.75770777746263       19.79098755269741        4.99447677821869
C           17.25731743030835       28.19756835148625        8.36621908919491
H           16.37309410883556       28.70064732565480        7.95713170355337
H           18.07738456721444       28.92427012867698        8.43086620928335
H           17.02247558268869       27.84317528278967        9.37881325252111
C           19.13001913541817       28.29486600140247        5.74238714113714
H           19.12920781315085       28.15112965735222        4.65285082074898
H           20.16385628566606       28.47277243262504        6.06539649976139
H           18.51865927305134       29.17383871275568        5.97541176871196
C           13.72637600312544       24.36695355227555        9.92931897287074
H           13.66752671134069       25.27409517960244        9.31677271693497
H           13.97479441725918       24.65295491579346       10.95988516783761
H           12.74509988828598       23.88365391461942        9.91566571993445
C           13.98630756029378       21.08098440800325       10.04632088138325
H           14.36314192091533       20.05589111150669       10.05253231734306
C           12.76226643782365       21.28659310659607       10.62209099799079
H           12.31142980942887       22.27073418547599       10.66343731164719
H           12.19677333572944       20.46616485664899       11.05084837928600
C           17.06739016298977       17.48549383513540        8.12050594532126
H           16.09627628681148       17.25928543459942        7.66110686108051
H           16.89948670332356       17.75602615229745        9.17188467925508
H           17.68781493408285       16.58807525985750        8.08775131898638
C           19.52635226303293       17.57441175082219        5.88332395160914
H           20.22512613715742       17.87748378488918        5.10218393685487
C           19.44362123791410       16.22917443268197        6.13694800795406
H           18.77921271084807       15.82585773958843        6.89277147630252
H           20.05369105149623       15.51661787210686        5.59145575032573
C           22.33557701726802       21.30999205054220        3.48638281209970
H           21.67688483018130       20.59082940435644        2.97925978430436
H           23.04148348086214       20.75101255214807        4.11270873710016
H           22.88627418249465       21.87243987841451        2.72479345285951
C           22.83254483025619       24.39548709728345        3.91603269771591
H           22.89056286302920       24.36351896572483        2.82106316942520
H           23.74361897245712       23.92599182741930        4.31695221483663
H           22.80826005811640       25.44228521419304        4.24040783915903
C           22.69539858579218       23.97410526048805       10.18462310878935
H           23.56814290682737       23.31064024319640       10.18024283141765
H           22.50149423332468       24.29617363954117       11.21597319360784
H           22.91731742712386       24.85353830207875        9.57100186796466
N           20.91326815033421       22.15227455176690       10.10355745175943
H           21.29026958628816       21.58713464303529       10.84283711148927
C           21.47926756566014       23.27605360592024        9.62098205181925
C           19.77756472208795       21.91280163480342        9.42770846370698
H           19.11619774444418       21.08412156981775        9.61137666236305
N           19.62021329742291       22.84971742755040        8.52727443627485
C           20.64360487719321       23.70314603403969        8.60692568192075
H           20.71866740382223       24.54250115066276        7.94154123840494
C           15.79466367290201       22.56601185165170        1.96458077523931
H           15.29746097995297       23.46989791790259        1.59122165632995
H           15.13476080081220       21.70525791834074        1.79965869866421
H           16.73155323465702       22.42151505381819        1.42157857237048
N           15.11315507703788       22.90950717004651        4.32895538095361
H           14.13275927675685       22.97838566935912        4.12159162969135
C           16.08952984476676       22.71203575284386        3.42683372931304
C           15.68143407024654       22.99171207863513        5.53369272615827
H           15.14289601746161       23.16040750362351        6.44673612998815
N           16.98234578637029       22.84261384671409        5.41309707318520
C           17.28700506496377       22.67272915455063        4.12640081867979
H           18.30197590083197       22.54333149578729        3.79569183474708
87
 energy: -128.442675212188 gnorm: 0.047236289449 xtb: 6.7.1 (edcfbbe)
Fe          18.26593532212042       22.85598229793700        6.99926949692087
N           18.19943433050870       24.86660112665853        6.95072651801205
N           16.67985407729714       22.78705809297523        8.26542086469569
N           18.27874410305325       20.82750964423847        6.97621272198542
N           19.86390338408772       22.93455323357125        5.75381756922941
C           18.93803894605617       25.70729634659487        6.17546490313996
C           18.58295587215811       27.07975091953497        6.45203097166654
C           17.68543370979443       27.04616695649325        7.48271477710825
C           17.37696131092116       25.65126554892089        7.70202850615833
C           15.95411214599683       23.86187989025297        8.68260556246383
C           14.77328929683185       23.44273035424110        9.38571673732932
C           14.81715175646280       22.06131041421462        9.43556774657630
C           16.00294841705049       21.68953258168430        8.69292150826208
C           17.42566454831990       19.98882517646129        7.62533214057683
C           17.76228522197574       18.61669807561228        7.39934308527256
C           18.82726414308947       18.62526383591850        6.51817913917132
C           19.13027069017879       20.03193802579860        6.28504656131729
C           20.47401126859364       21.84201631803133        5.22720888311693
C           21.54077871198075       22.24312032126725        4.34868936383410
C           21.62273037668953       23.60811854774617        4.41741283897110
C           20.49468999818670       24.03047661587865        5.22333102990302
C           19.98594153321538       25.31792691255635        5.34620971333552
H           20.43958718593911       26.09298613334987        4.74132389105778
C           16.31080344007373       25.18625876126377        8.45219310440377
H           15.66033133925685       25.93588392930757        8.88029744331206
C           16.34228026068385       20.38843544372582        8.38621500240754
H           15.69053003362516       19.60387899935185        8.73784672423230
C           20.14707763629072       20.51807618843220        5.48169956696873
H           20.76192256723821       19.78463128648321        4.98169010244265
C           17.24770641306615       28.18885086580170        8.34441037124558
H           16.36821783743107       28.69758913041046        7.95118988936080
H           18.05627949351801       28.91607008495730        8.42015325668762
H           17.01925902476017       27.83942961776549        9.35117125329266
C           19.13314459838142       28.28283539955669        5.75639211015638
H           19.12889211280624       28.14124648715270        4.67461434229338
H           20.16133161820347       28.47629419912761        6.06439362045967
H           18.53120897675116       29.16023910640707        5.98236015900597
C           13.73628981105923       24.36867007446696        9.92492755949145
H           13.67815592959467       25.27434669342685        9.32487428725590
H           13.96857399566517       24.65082476888864       10.95281599779509
H           12.75655987765373       23.90311965394465        9.91018296733717
C           13.95418210696971       21.09129443255910       10.05744262386466
H           14.34630064216576       20.07732056492980       10.05521976589197
C           12.77588536269421       21.28189947016205       10.61688729553944
H           12.30773538932482       22.24658876179019       10.67532930015458
H           12.21426446393189       20.46976078791218       11.04690887867023
C           17.07401910855927       17.49431500774609        8.10811151256435
H           16.10764456232529       17.26668921517017        7.65575199448378
H           16.90120770180976       17.76045879269087        9.15181112873627
H           17.67547559577577       16.59465489580870        8.09637528460065
C           19.53624317236810       17.54397188290378        5.88911957429440
H           20.22519034312028       17.86365162378330        5.11265629111037
C           19.45295130077643       16.25028539255342        6.12913345554208
H           18.79857607434995       15.82581009921447        6.86900955389016
H           20.04842505678895       15.53582342440363        5.58583279463180
C           22.34429426116339       21.31561727401014        3.50115568873969
H           21.68897536720623       20.60510062733411        2.99367382369844
H           23.05113525433765       20.74859341328301        4.10602386913996
H           22.89237516799836       21.86853459870718        2.74297947624178
C           22.79742456914786       24.39619511242052        3.91349649327839
H           22.87115949511159       24.37091558987184        2.82608265135068
H           23.71220226771162       23.94250523302942        4.30793836726698
H           22.77603855641317       25.43322917405525        4.23720251330785
C           22.68883123660328       23.96359764968851       10.18056804574465
H           23.55602649563362       23.30578337374815       10.17943998042374
H           22.50549609561516       24.28759947064178       11.20550887945387
H           22.91516954988072       24.83888231158356        9.57901872839036
N           20.91802420691387       22.16147954049611       10.11677140522595
H           21.29592071650329       21.59232865395194       10.85642465135092
C           21.48099744269617       23.30236619634945        9.62139090521290
C           19.77970096171575       21.91670224623931        9.42424529950476
H           19.12670558251132       21.09021309982156        9.60643400374712
N           19.60269984004611       22.84193058328317        8.51081238501125
C           20.64101508282164       23.70764674122762        8.61642300795871
H           20.72053041495744       24.54433317962596        7.95582010860792
C           15.80033177758276       22.56623552371931        1.95955183908032
H           15.30335382512964       23.46033677955286        1.58453094552038
H           15.14455416360390       21.71285538654443        1.78980270494346
H           16.72420474321116       22.41942472130195        1.41344276571493
N           15.11033381489473       22.91018103473239        4.31986176427822
H           14.12703874601609       22.98000793029556        4.11451783743903
C           16.09770173728465       22.70716869913239        3.40442755591294
C           15.68266887047086       22.99162404541018        5.53822134689441
H           15.14114382849157       23.15896713695315        6.44112155737709
N           16.98239382920481       22.84581046132355        5.43784289309129
C           17.26476989438484       22.67118853761225        4.12252633548898
H           18.27413000720954       22.54043326201719        3.79015042837526
87
 energy: -128.448416674364 gnorm: 0.018341782031 xtb: 6.7.1 (edcfbbe)
Fe          18.25913033270837       22.85288297090747        6.99064817322588
N           18.20710616487861       24.85202883692529        6.95998690737144
N           16.68640027308662       22.79565326627862        8.26192443540731
N           18.27978210237828       20.83396742725265        6.96557107000772
N           19.82967657197117       22.91591059007040        5.72951882156429
C           18.95063463606781       25.69037752079120        6.18727063522583
C           18.60399514958109       27.06908868378019        6.46857097519110
C           17.69892128781652       27.03981076208748        7.48544454666521
C           17.39586842823743       25.64191716207572        7.71946122257430
C           15.96823094741833       23.87241962682884        8.68993293190018
C           14.78063616942155       23.45213001002778        9.38965304559605
C           14.81648638162750       22.07540184068663        9.43111017664884
C           16.01088799863801       21.69869434637231        8.69216107425978
C           17.43707210876866       19.99835712329113        7.63363434269052
C           17.77748540915479       18.62058620036048        7.40579197113753
C           18.83712396012398       18.62480879350170        6.52739276330582
C           19.12947342497893       20.03365136966903        6.27548436186689
C           20.45106232430579       21.82738000526761        5.20818774931031
C           21.54395318098303       22.23347862886197        4.35430111117532
C           21.61107089881028       23.59364547819546        4.42166189839496
C           20.47926970379826       24.01312613739084        5.22647862427168
C           20.00102159143157       25.30749041042593        5.36279461589862
H           20.49012868656874       26.08944935056025        4.79212486320126
C           16.32934312302972       25.19589869151583        8.47629448049312
H           15.69031486929090       25.95162205441811        8.91097572705841
C           16.35599054601123       20.39443859204918        8.40100200112801
H           15.71408421421691       19.60835379091605        8.76615854641566
C           20.14005630858786       20.50322013260910        5.45888235298113
H           20.76044918336493       19.77133615137067        4.96285252639509
C           17.22972396901186       28.18467469875803        8.32310768293985
H           16.34807582019872       28.67974058661462        7.91848500460400
H           18.02662124212091       28.92315783269976        8.40200139161775
H           16.99678400976890       27.83693274974921        9.32743835828687
C           19.15050527567534       28.26941402268978        5.77124027705160
H           19.13878842417544       28.12225179558312        4.69175178260075
H           20.17850638144029       28.47266433302337        6.07225021453224
H           18.54695869745719       29.14495273622436        5.99830121907303
C           13.74796793499315       24.38424815540347        9.92379001494631
H           13.70668359451028       25.29576928314909        9.33208360261028
H           13.96735827292042       24.65445152993550       10.95751245420243
H           12.76224827778744       23.93244241037802        9.89281666255398
C           13.94880516781063       21.10253270412781       10.05419129569830
H           14.34304794425272       20.09230053468855       10.04822092501414
C           12.76355636406408       21.28169703672259       10.63321688425158
H           12.27730235767783       22.23607181292994       10.70588308618550
H           12.21722856458372       20.45764517466420       11.05898230765536
C           17.07695973224134       17.50220583204321        8.10341509702038
H           16.11586494981684       17.28181498543239        7.63763951628479
H           16.89277332818973       17.77235656769996        9.14276278598114
H           17.66922996455979       16.59602115285720        8.10525748483532
C           19.55080762152817       17.54336852097530        5.89155778892135
H           20.23873896629890       17.86778186815823        5.11851671442730
C           19.46265558080921       16.23427749211255        6.11561558521834
H           18.81477227725088       15.79611953816163        6.85141325926330
H           20.05900006133880       15.52979430143542        5.56205015291758
C           22.36412719582334       21.31323873906662        3.51833176666921
H           21.71298493041515       20.60583180529073        3.00423899443422
H           23.07200035289391       20.74363385581902        4.11903866124861
H           22.91616944596808       21.87138295363109        2.76729220250063
C           22.75549354981642       24.40944662494988        3.90552287603950
H           22.81954110317274       24.38708229628909        2.81805173839430
H           23.68263632388765       23.97722389277946        4.29207328455049
H           22.70761891989824       25.44330924687196        4.23237145253757
C           22.68715276914472       23.95872882516494       10.18132604589450
H           23.54300494171365       23.28642584860441       10.17471656282538
H           22.51380881305994       24.27997282329004       11.20830357649689
H           22.92527547753544       24.83289687633942        9.58392576241431
N           20.91047107957998       22.17325749646785       10.12566973754472
H           21.28825965443833       21.60584820991003       10.86768624546070
C           21.47028521557932       23.31814591815591        9.62510199406967
C           19.77984727017471       21.92194140640299        9.42043843583692
H           19.13355876510426       21.08934628057592        9.59846397128492
N           19.59559437299393       22.84050404263846        8.50177917262224
C           20.63281510131767       23.71532816677548        8.62064711113877
H           20.71480333640237       24.55601589758650        7.96560771950126
C           15.80344566153262       22.56464200973552        1.94556214165455
H           15.30829023728803       23.45749591354636        1.56610447942407
H           15.14906199041119       21.71198852197490        1.76919361432063
H           16.72696100228623       22.41608102681219        1.39857111750772
N           15.09901387284521       22.91193088740301        4.30791289949918
H           14.11615852821250       22.98383616671713        4.10102027920498
C           16.09282934593334       22.70459338394215        3.39223780099567
C           15.67040645171057       22.99224796272703        5.52944832408414
H           15.12335555619518       23.15942017229934        6.43030674700261
N           16.96990844134496       22.84463349167899        5.44061129556886
C           17.24884862000553       22.66687379258418        4.11898187990078
H           18.25565091557561       22.53088185326380        3.78568860931684
87
 energy: -128.452158983324 gnorm: 0.014702838219 xtb: 6.7.1 (edcfbbe)
Fe          18.25119717881572       22.84632497664131        6.97736056825695
N           18.21387523994015       24.83699792901310        6.96995038523429
N           16.68949651843666       22.80278403098518        8.25707893675879
N           18.28050922444091       20.83489271868155        6.95356092163140
N           19.80510938775182       22.89392251798858        5.71343275017361
C           18.96955705753675       25.67270795848351        6.20867292298056
C           18.63062860666129       27.05480745642259        6.48858243269269
C           17.71495607067195       27.02901874395544        7.49226866299544
C           17.41201398110862       25.63175307154500        7.73117681096212
C           15.98077970914996       23.88055463825481        8.69686247379751
C           14.79072430430443       23.46254976000347        9.39672535541057
C           14.81867058816618       22.08891060361059        9.43003067681112
C           16.01591942963816       21.70745061913388        8.69007435677242
C           17.44811604836715       20.00543359246674        7.64031864305186
C           17.79218522025156       18.62355433826830        7.41674363420910
C           18.84265754248445       18.62168786139419        6.53342867620697
C           19.12676225504137       20.02953976677922        6.26562601224071
C           20.43447966191822       21.81080149448795        5.19353740018953
C           21.54263746174340       22.22147019006746        4.35876147042680
C           21.59581899910690       23.57857829018165        4.42812240514173
C           20.46015244911455       23.98918467964721        5.22868384385868
C           20.02106524176324       25.29293443956310        5.38996870814959
H           20.54711027701108       26.07919830699954        4.85706917091344
C           16.34921783693719       25.20332141763215        8.50068365267477
H           15.73316895731083       25.96580602175890        8.95605861541289
C           16.37205620565518       20.40107100035316        8.41654565532655
H           15.74670651688262       19.61328542205079        8.80641055408156
C           20.13313208786231       20.48481822588796        5.43646035082403
H           20.75534496139123       19.75567574994090        4.94015279680293
C           17.20618643415831       28.17837029768152        8.30107126046638
H           16.32066403344901       28.64356775844832        7.86616453093737