78
 energy: -116.057025749893 gnorm: 0.000187107181 xtb: 6.7.1 (edcfbbe)
Fe          21.12144974517322       -2.67726947865052      -17.50698248154810
N           20.39874174856509       -2.75265246982930      -19.38310966819516
N           21.02724247237189       -0.66671158521806      -17.56593268085634
N           21.72282965686540       -2.59667492188011      -15.61396804052495
N           21.21405504492358       -4.66296740892401      -17.46701311303067
C           20.21332906457829       -3.86659454638766      -20.14057256489532
C           19.67011097745118       -3.51990094993172      -21.43401924259005
C           19.53362032615055       -2.16595587331375      -21.44308504623204
C           20.00786755387028       -1.70199872470156      -20.15900380554886
C           20.60316614339191        0.10524582276818      -18.60593485222786
C           20.78140808346555        1.50052078886892      -18.30926076880650
C           21.36832207204521        1.56233888510121      -17.07251087825086
C           21.48549859225804        0.19269133467271      -16.61673061244113
C           21.95284662982910       -1.47478900369326      -14.87924726980846
C           22.30914196535343       -1.81605533137756      -13.52583569473589
C           22.27154382660321       -3.18155219434850      -13.44876899621555
C           21.92917118495781       -3.64597023524450      -14.78009719694147
C           21.62224500904549       -5.43416438040831      -16.42668930357971
C           21.65271400087964       -6.83111199874905      -16.80516198211956
C           21.24314729855102       -6.88324493341908      -18.09986637846353
C           20.97062198982374       -5.51713779390134      -18.49428919422456
C           20.49788758681713       -5.15948692807148      -19.74233504111991
H           20.32833439712106       -5.94916971931699      -20.45810384963917
C           20.08934156773551       -0.36962505535213      -19.80264582615968
H           19.76072056788822        0.36122481796796      -20.52585580277964
C           21.87800051685285       -0.17423625487197      -15.34405851390280
H           22.11798607608459        0.61741662694940      -14.65173603983367
C           21.93820861855587       -4.97464348777109      -15.16291162410119
H           22.22635010207705       -5.70338983538237      -14.42133996615000
C           19.01730543274361       -1.27521426473329      -22.52106045563857
H           18.68605464485625       -1.85727267295781      -23.37745276944676
H           19.79305299945654       -0.58546583858870      -22.85559886243275
H           18.17436783104205       -0.68488531278781      -22.16096096714021
C           19.34138541322379       -4.50856787908533      -22.49942661577710
H           18.60246286382345       -5.22586096635639      -22.14164787280985
H           20.23262392407914       -5.06219484329853      -22.79571424109002
H           18.93895857260217       -4.01176346188264      -23.37888529971908
C           20.43707024412839        2.62202621070350      -19.22791637074008
H           19.39100529352432        2.56481849489984      -19.53029738254835
H           21.04981230890025        2.58480677648830      -20.12969008108188
H           20.60689131515693        3.57965366279604      -18.74234462081106
C           21.79030580426946        2.75633361434137      -16.37049238145253
H           21.14709085813063        3.62098690505711      -16.49597335176231
C           22.89573642331309        2.87536907007381      -15.64380789697179
H           23.59482568480071        2.06394815661628      -15.53190667632933
H           23.15126248382491        3.79989866934662      -15.15300281847675
C           22.59912702703392       -0.83297326837281      -12.44509174658738
H           21.72244441963343       -0.21743627881973      -12.24131072274409
H           23.41391486796196       -0.16971299730804      -12.73696237737733
H           22.87723155417997       -1.34415233799180      -11.52688534885225
C           22.51263980117666       -3.99473160188365      -12.27481027112345
H           23.28949460524780       -3.63112557727460      -11.61029830796176
C           21.84236855319502       -5.09275835430918      -11.94421415193503
H           21.02551099385086       -5.46279151314228      -12.53997419691601
H           22.07157471775806       -5.64491156988249      -11.04766061466666
C           22.05510818805726       -7.93886186132694      -15.89338256911095
H           21.38307449137448       -7.99134055841522      -15.03662406706462
H           23.06633552935680       -7.77966623686125      -15.51852423349970
H           22.02646465400007       -8.89541378887548      -16.40949128700702
C           21.07720235744817       -8.06531520774670      -18.99226679987015
H           21.36897232505412       -8.97946504534258      -18.48117332772832
H           21.69167333991332       -7.96021164031660      -19.88669208524219
H           20.03780217413124       -8.16548313651063      -19.30602430351590
O           18.92693361720312       -2.65110458620385      -16.83927600485778
H           18.50462360781994       -2.83982479598147      -17.68454295120548
H           18.82339275949892       -1.70731488232105      -16.67591687424457
C           26.60477977344467       -3.31598156511564      -18.25961132189668
H           27.24356055600839       -2.45079709072723      -18.08237955809275
H           26.94668801941929       -3.81146949254570      -19.16823082647594
H           26.71155988197380       -4.00385410382611      -17.42680375609413
N           24.75056588388973       -2.03635462948919      -19.35282081580560
H           25.32791519296948       -1.60104173295981      -20.05333641509330
C           25.18351722374417       -2.90496269647125      -18.38537138994752
C           23.41828855077259       -1.87327307256037      -19.19021744428257
H           22.81067538085846       -1.24533790027480      -19.80827164983041
N           22.98203719035986       -2.58496783448502      -18.17966025282985
C           24.06832790088918       -3.23278337917242      -17.66876847107411
H           23.97407994460277       -3.88633274965391      -16.82616075791061
