78
 energy: -116.058074021836 gnorm: 0.000123706256 xtb: 6.7.1 (edcfbbe)
Fe          28.16579121772754       93.92290541829418       53.03690430413356
N           29.09850430746319       95.61022549928883       52.45486704817122
N           29.23895997800771       93.90967259703015       54.71785052284392
N           27.18809676324173       92.28847046047990       53.62412602973703
N           27.05086969315641       93.98577502274485       51.36141933354973
C           28.92156151229211       96.28727139705474       51.28795836053627
C           29.81214517338851       97.42319851016832       51.21634012471053
C           30.53827009557104       97.41399067490741       52.36709419346622
C           30.08194510866882       96.27173746598986       53.12572314872138
C           30.18694621830727       94.80992559210469       55.09587979010253
C           30.76015347906519       94.44972209010946       56.36812484893856
C           30.13983095961141       93.29163626230142       56.75378191815627
C           29.18381871868660       92.98294927942941       55.70663193742593
C           27.41045207476648       91.57586598318221       54.76044598498223
C           26.52633430740941       90.43951735082364       54.83620099751489
C           25.75349548469365       90.47839114845105       53.70695570100200
C           26.18729872335943       91.64941048477638       52.96791004420784
C           26.08620519551755       93.10051207652039       50.99169017197961
C           25.54423271305583       93.44590239582070       49.69712320998433
C           26.21112918009083       94.55923635188243       49.28858384244802
C           27.15058531256909       94.87905940404845       50.33949166340367
C           28.01641108802953       95.95544475024897       50.29673537521506
H           27.98835042027660       96.58223429201678       49.41879757483692
C           30.58714437147992       95.91293914063301       54.36008511345955
H           31.36604803459367       96.53411255615508       54.77555620627233
C           28.35067324905126       91.88247570712819       55.72684035085172
H           28.43325882294198       91.21105099223321       56.56776507160422
C           25.67090653406197       92.01331656118450       51.73759445951058
H           24.89405106863889       91.39300893237717       51.31729029035349
C           31.60001371396453       98.35596314314232       52.82204298199294
H           31.31604615868747       98.82830163402913       53.76280007357529
H           31.76644162584916       99.13689495598184       52.08417869599096
H           32.54090415507159       97.82814315251281       52.98059008958984
C           29.86748170350139       98.37754821044305       50.07299338493314
H           28.90218366450749       98.86462328505368       49.93210705863759
H           30.11945010164601       97.85517592741819       49.14981249301901
H           30.61611907823766       99.14665403921364       50.24653557103606
C           31.77103589484423       95.25160328458240       57.11176485286915
H           31.57766534191034       96.31710365397919       56.99699752230812
H           32.77904783595501       95.04959589099568       56.74468678207731
H           31.73626340348731       95.00405866957288       58.17069233940865
C           30.32595907918603       92.51368814399214       57.95835085180903
H           29.43763543785356       92.02621210271724       58.34245832573628
C           31.47684551798132       92.35413579109949       58.60390924524222
H           32.39952811802643       92.77517250942853       58.24414727022388
H           31.53984047810609       91.77035782133296       59.50727901379873
C           26.45030251776608       89.48661518883753       55.97734529505173
H           26.57061273469812       90.01076098635797       56.92412121529986
H           27.23497437630337       88.73138341425117       55.90719813401062
H           25.48617398799601       88.98226052526526       55.97903621505500
C           24.69031163089968       89.58975153899917       53.29276932223547
H           23.87465727912402       90.05564052999675       52.75163572761331
C           24.64866470798658       88.28024468659056       53.51646563870524
H           25.45140939616387       87.75739286224412       54.00648092622779
H           23.81539234725389       87.67918050757125       53.19187424789402
C           24.46483930599340       92.68408492134257       49.00771980176866
H           23.55889996807020       92.66848849695332       49.61425968816921
H           24.77317273585022       91.65256806003855       48.83569193836902
H           24.22566768809006       93.13451115522773       48.04752293819300
C           26.05826848275812       95.34295633337621       48.03023200720843
H           25.29028235285704       94.90861547607010       47.39497107623361
H           26.99541017007617       95.35947341001625       47.47335371912406
H           25.77835290721216       96.37357746727044       48.25052252912011
O           26.57704684466214       95.28900223548601       53.97118009976727
H           25.89326932585439       95.23581519324578       53.29467911024158
H           27.01551330438181       96.14019679936447       53.86498342470525
C           30.84416458858727       90.10867759221000       49.98015995061573
H           31.47548504390402       89.38857514116826       50.50055046140398
H           31.37503673225411       90.44695206087698       49.09037070230445
H           29.93003052179937       89.61100942176957       49.67228204730746
N           31.47114434384747       92.07084223464319       51.40443261555458
H           32.46451018167610       91.98324521287695       51.26613411450780
C           30.51233517468628       91.25433822616894       50.86434595595542
C           30.84072907817044       93.00377620837234       52.15293081201170
H           31.34272559046213       93.77810506751227       52.69551193902771
N           29.54207835565091       92.82770640788935       52.11931185376035
C           29.32231944725652       91.74333057286391       51.32160343390948
H           28.33028776317580       91.38973145225282       51.13120888827792
