78
 energy: -116.058038566493 gnorm: 0.000106010905 xtb: 6.7.1 (edcfbbe)
Fe          12.75932824250782        1.48089336201873        1.93905174208340
N           13.37643779118881       -0.28983602189458        1.26417310636832
N           11.07832706655094        1.31708447332779        0.87905040870796
N           12.12659066184824        3.24556281377139        2.67715992781036
N           14.42464868419146        1.62659383330106        3.06032270419424
C           14.54589112480213       -0.91714739513031        1.55196189008080
C           14.63714948492313       -2.17988978313338        0.85033524901583
C           13.49079353998943       -2.29923950483972        0.13032519402165
C           12.71653041404413       -1.10670065079589        0.40143225370678
C           10.72142416986961        0.28260170252564        0.07205176412702
C            9.44350350384969        0.52916548410479       -0.54669821917946
C            9.03122283475600        1.75614399803458       -0.10016341925742
C           10.07025169641008        2.22281164209375        0.79919510235110
C           10.98624230097763        3.90729911332734        2.33348647932014
C           10.89909013729834        5.16869751353161        3.02107444451113
C           12.02549197314248        5.26447523594859        3.79650620322417
C           12.77558848843727        4.04702140840744        3.56277730615312
C           14.76795772496484        2.64873325347156        3.89150422221767
C           16.06366191979887        2.41027898242537        4.48636072500337
C           16.50054747511263        1.22298952114012        3.98582919043820
C           15.46455842116332        0.75055437035604        3.09563329693886
C           15.52986971203055       -0.43953755428960        2.39687488541409
H           16.41540424451095       -1.04316528721453        2.52366100718429
C           11.48045440339844       -0.85233730335832       -0.15747593178909
H           11.07733495674615       -1.59435299236345       -0.82994939499227
C           10.02771247467420        3.43838251290508        1.45265325822213
H            9.17918222823623        4.07695018291031        1.26083959369159
C           14.00489292444890        3.77535381690326        4.13713699757901
H           14.41427801050433        4.51184502967856        4.81142764178884
C           13.04902379313802       -3.40266250503153       -0.76895435023764
H           13.80060347413703       -4.18677286698302       -0.81728780594511
H           12.87568312949668       -3.03106689837312       -1.77940119392730
H           12.11920346232650       -3.84112178783208       -0.40629681779952
C           15.79197127508409       -3.11653527070967        0.95104656172249
H           15.92503726332314       -3.45067563414244        1.98019791749082
H           16.71260857955417       -2.62643874309234        0.63322939800584
H           15.63615208402372       -3.99181197455133        0.32518839419928
C            8.71972967583182       -0.42666621569268       -1.42975903325785
H            8.85645833500454       -1.44937030657373       -1.08204998625577
H            9.08622772312144       -0.36648774044898       -2.45622811715655
H            7.65573069588807       -0.19916206803328       -1.43202658423617
C            7.81007910018257        2.47252294445967       -0.39404475951023
H            7.41448961309350        3.07567240574508        0.41493293872448
C            7.16116582709929        2.44919374403266       -1.55388994442811
H            7.53020316516200        1.90649370301497       -2.40663659336874
H            6.24490472612780        2.99746862164922       -1.69785980016659
C            9.75245028876201        6.11437373538520        2.93656456579200
H            8.80931620209446        5.57279143328348        2.88128482092905
H            9.83194847959257        6.74383946787540        2.04874816457797
H            9.73335453511056        6.75787223790164        3.81389534617203
C           12.42757154975848        6.31788328741675        4.70191342157370
H           12.97676878086552        5.99675506873605        5.57983168441308
C           12.18614288759594        7.61405364516698        4.53387878116685
H           11.68851578202858        7.99544514991827        3.65947482374147
H           12.50397564350438        8.34470296764187        5.25915659252399
C           16.72835610536724        3.33156837145379        5.45105531280359
H           16.11106668778413        3.46883877726206        6.33940612762928
H           16.89003124391093        4.31020719186702        4.99826067460104
H           17.69174987226717        2.93558956186248        5.76254162664391
C           17.77253614348439        0.49522878381890        4.25588138236231
H           18.39329755981892        1.04728511606057        4.95730779948046
H           18.33680867020841        0.35635502035182        3.33350744679363
H           17.56921142566496       -0.48904059854199        4.67859170551387
O           11.78096051016889        0.51885628109647        3.77988492709975
H           12.56272011717377        0.38083954668850        4.32589432025235
H           11.31539567645224        1.28200653130771        4.13928542125437
C           15.70048552649632        4.98574960522531       -1.24529706235738
H           15.15697537890501        5.59796404209118       -1.96481568806895
H           16.59973571252258        4.60667476257099       -1.73079342069947
H           15.99404450684876        5.61107618980495       -0.40805745574190
N           14.33061206721569        2.91875362869238       -1.59593955046305
H           14.45917567966240        2.88003365911141       -2.59374032682729
C           14.85309379022859        3.86840716680313       -0.75759278194738
C           13.61467796940557        2.05490169692476       -0.84139490262755
H           13.09119633540345        1.20644353439528       -1.23196267327261
N           13.65260155917590        2.39974183537728        0.42296534626935
C           14.41932693111062        3.52559966630222        0.49083808737871
H           14.60625784844334        4.01139147155054        1.42572763023405
