78
 energy: -116.058234635048 gnorm: 0.000086283531 xtb: 6.7.1 (edcfbbe)
Fe          -5.55939598337715       57.17880693786437      111.72494711349867
N           -6.39524750637957       56.22629939428537      113.26050039169171
N           -6.40974122776169       58.90291776835170      112.32897553962336
N           -4.66757926078703       58.16343385553346      110.20737735887005
N           -4.66710686898221       55.49301731451850      111.15092803960263
C           -6.25256633476270       54.91607652485879      113.58259280485802
C           -7.02693009146491       54.58894884104093      114.76137964143993
C           -7.64712263314034       55.73698721480198      115.13960782569589
C           -7.23824238913005       56.75036781924639      114.18923550093417
C           -7.26774823026682       59.06517772027894      113.37447577375876
C           -7.71733178373291       60.42905578841892      113.46187698737928
C           -7.11325153049132       61.10241051582478      112.43156805557351
C           -6.29748185471099       60.12453233493297      111.74013488938323
C           -4.79093930133280       59.48766538468836      109.90333723144985
C           -4.04602487529917       59.81176817948356      108.71578747419998
C           -3.47211812487552       58.64149470837595      108.28999152714059
C           -3.87276981307216       57.62831915488628      109.24448244092660
C           -3.86717767867091       55.31747461762208      110.06709926989377
C           -3.42754978925446       53.94117618770692      109.97187242221663
C           -3.98161578526897       53.29111145054258      111.02862419042647
C           -4.75583170209297       54.27826352845804      111.75074038736929
C           -5.48818604869431       53.99733991131308      112.88816232795787
H           -5.46507191639128       52.98416032045795      113.25971319977637
C           -7.65860725898465       58.06313111423232      114.24646082864010
H           -8.34765482786846       58.33006813200418      115.03296463301739
C           -5.54670112587146       60.40541123651597      110.61404994547739
H           -5.57119421140853       61.41806150894116      110.24147960486843
C           -3.50162529687320       56.29866285179536      109.16660251066584
H           -2.87542171765767       56.00328543780442      108.33891786399423
C           -8.56622060282145       55.98142087687546      116.28697827278720
H           -8.73233965199425       55.06688872847690      116.85093865478869
H           -9.53092723427281       56.34740555082909      115.93468432867664
H           -8.14684828417449       56.72832473238380      116.96150596654876
C           -7.08136539664659       53.23514620726256      115.38192846713123
H           -6.08433985277724       52.91282544168933      115.68228454072968
H           -7.47463904995259       52.50366596715673      114.67532207240785
H           -7.71971438656755       53.23803992464602      116.26201752632295
C           -8.60382539102212       60.97379383397740      114.52676033560925
H           -8.37626236274706       60.51670552110517      115.48854379375044
H           -9.65267929902499       60.77597707023585      114.29939818529719
H           -8.46783383609612       62.05011699500947      114.61166173893655
C           -7.20407193176007       62.50046270511835      112.07379370047546
H           -6.30428493054113       62.93640235885613      111.65453262635823
C           -8.28345243688851       63.26408070704663      112.21048205990928
H           -9.21789993607124       62.87542504928570      112.57588046869510
H           -8.27469414057415       64.30576435495479      111.93547794530389
C           -3.89591770118134       61.17825999174558      108.14315381551093
H           -3.82436448912436       61.92304926999299      108.93456720645923
H           -4.75054731645347       61.43555273145149      107.51487841972536
H           -2.99533517791151       61.23018625720219      107.53463350496050
C           -2.60852094748994       58.40791385776803      107.15402767676130
H           -1.85470101199598       57.64105446805970      107.28970278441155
C           -2.67783274242120       59.04151875295671      105.98769931674305
H           -3.43462848191981       59.77720103383744      105.77822934372773
H           -1.99003354960350       58.82417844056344      105.18738158399557
C           -2.53684678450478       53.41496861289939      108.89926620164897
H           -1.57475852829317       53.92769212705017      108.91427409072450
H           -2.98645341864599       53.56833808361240      107.91791722498800
H           -2.35873478085275       52.35066570524155      109.03191361509808
C           -3.86159908530132       51.86046752147211      111.42827662249935
H           -3.22040411614050       51.31824977629974      110.73770121241404
H           -4.84042892714269       51.37998751817235      111.43676919913135
H           -3.43594352525815       51.77807204183560      112.42839736974054
O           -3.74602475910248       57.78391493179863      112.99431982430571
H           -4.10855041655082       58.56000823850126      113.43537476640603
H           -3.15931984110868       58.10160484164873      112.29926871667863
C           -9.79903719978372       54.74480359220897      109.04512925621914
H           -9.72058843251999       54.63258737264898      107.96384986809312
H          -10.81089152250922       55.07421844204172      109.28101446238283
H           -9.63101762022601       53.77773598211946      109.50846340921824
N           -8.76277589264424       57.02277545851273      109.13117291514887
H           -9.38856006830431       57.44443312343487      108.46470554086251
C           -8.79664030185539       55.71793351894689      109.54807270632962
C           -7.74105366449967       57.63187848856079      109.77343897187760
H           -7.47883184128851       58.66126443212338      109.64158199054340
N           -7.12651586850785       56.79278479573006      110.57137026184944
C           -7.77179038432817       55.59789480792333      110.44239519450426
H           -7.45671771001282       54.73893400391794      110.99797646298636
