78
 energy: -115.929107080795 gnorm: 0.364243097439 xtb: 6.7.1 (edcfbbe)
Fe          28.18000000000000       93.94000000000000       52.99000000000000
N           29.25000000000000       95.61000000000000       52.36999999999999
N           29.29000000000000       93.89000000000000       54.74000000000000
N           27.14000000000000       92.29000000000001       53.65000000000000
N           27.07000000000000       93.98000000000000       51.25000000000000
C           28.97000000000000       96.36000000000000       51.30000000000000
C           29.70000000000000       97.52999999999999       51.30000000000000
C           30.41000000000000       97.51000000000001       52.49000000000000
C           30.06000000000000       96.33999999999999       53.11999999999999
C           30.17000000000000       94.80000000000000       55.12000000000000
C           30.80000000000000       94.47000000000000       56.29999999999999
C           30.28000000000000       93.19000000000000       56.62000000000000
C           29.33000000000000       92.90000000000001       55.64000000000000
C           27.45000000000000       91.51000000000001       54.71000000000000
C           26.56000000000000       90.44999999999999       54.82999999999999
C           25.65000000000000       90.62000000000000       53.74999999999999
C           26.13000000000000       91.69999999999999       53.00999999999999
C           26.12000000000000       93.09999999999999       50.90000000000000
C           25.71000000000000       93.31000000000000       49.59000000000000
C           26.39000000000000       94.45000000000000       49.17000000000000
C           27.18000000000000       94.84999999999999       50.25000000000000
C           28.02000000000000       95.98000000000000       50.32000000000000
H           27.92299999999999       96.67300000000000       49.48599999999999
C           30.48000000000000       95.95000000000000       54.38999999999999
H           31.15200000000000       96.64700000000001       54.88900000000000
C           28.50000000000000       91.78000000000000       55.60000000000000
H           28.69100000000000       91.01900000000001       56.35600000000000
C           25.66000000000000       92.09000000000000       51.75000000000000
H           24.80900000000000       91.52200000000001       51.37600000000000
C           31.37000000000000       98.55000000000000       53.00000000000000
H           30.92100000000000       99.07400000000000       53.87100000000000
H           31.57800000000000       99.29300000000001       52.20100000000000
H           32.31500000000000       98.06299999999999       53.32100000000000
C           29.71000000000000       98.61000000000000       50.23000000000000
H           28.72000000000000       98.64200000000000       49.72600000000000
H           30.49200000000000       98.38199999999999       49.47400000000000
H           29.90900000000000       99.59799999999998       50.69600000000000
C           31.87000000000000       95.33999999999999       56.95000000000000
H           31.50500000000000       96.38700000000000       57.01900000000000
H           32.79500000000000       95.31999999999999       56.33499999999999
H           32.08700000000000       94.96599999999998       57.97300000000000
C           30.62000000000000       92.29999999999998       57.64000000000000
H           29.99800000000000       91.40000000000001       57.74499999999999
C           31.71000000000000       92.41000000000000       58.60000000000000
H           32.38900000000000       93.27500000000001       58.57699999999999
H           31.86700000000000       91.62900000000000       59.35899999999999
C           26.53000000000000       89.48999999999999       56.03000000000000
H           26.51000000000000       90.07599999999998       56.97399999999999
H           27.43900000000000       88.85099999999998       56.02199999999999
H           25.61900000000000       88.85599999999998       55.98100000000000
C           24.49000000000000       89.91999999999999       53.35000000000000
H           23.86200000000000       90.39300000000000       52.58300000000000
C           24.01000000000000       88.62999999999998       53.83000000000000
H           24.57000000000000       88.07700000000000       54.59800000000000
H           23.08200000000000       88.19499999999998       53.42900000000000
C           24.75000000000000       92.45999999999998       48.76000000000000
H           23.70300000000000       92.70499999999998       49.03800000000000
H           24.93300000000000       91.38300000000000       48.96100000000000
H           24.89600000000000       92.67499999999998       47.68000000000000
C           26.30000000000000       95.09999999999999       47.80000000000000
H           25.29200000000000       94.92000000000000       47.36999999999999
H           27.06400000000000       94.65900000000001       47.12400000000000
H           26.46200000000000       96.19499999999999       47.89300000000000
O           26.92000000000000       95.14000000000000       53.87000000000000
H           27.24000000000000       96.02699999999999       53.70300000000000
H           26.19400000000000       94.92100000000001       54.33400000000000
C           30.77000000000000       90.22000000000000       49.75000000000000
H           31.10500000000000       89.25500000000000       50.18600000000000
H           31.57400000000000       90.61900000000000       49.09599999999999
H           29.84800000000000       90.04599999999999       49.15500000000000
N           31.19000000000000       91.57999999999998       51.92000000000000
H           32.08500000000000       91.19999999999999       52.15100000000000
C           30.48000000000000       91.20999999999999       50.87000000000000
C           30.56000000000000       92.50000000000000       52.60000000000000
H           30.93900000000000       92.98099999999999       53.50100000000000
N           29.42000000000000       92.72000000000000       52.00000000000000
C           29.33000000000000       91.95999999999999       50.95000000000000
H           28.45500000000000       91.98999999999998       50.31300000000000
78
 energy: -116.010442627806 gnorm: 0.153777594975 xtb: 6.7.1 (edcfbbe)
Fe          28.18339460420880       93.92203651426627       52.97720686660696
N           29.20498493651660       95.60112296434586       52.38740667295896
N           29.27053956205501       93.89043813643471       54.72065899519004
N           27.16363341625745       92.29490647638073       53.63408403490813
N           27.06577210416156       93.99052867868804       51.28029038938850
C           28.94243392127455       96.34620577269710       51.29339224176576
C           29.70683134811640       97.53943987108043       51.28419968435801
C           30.41496341240690       97.52761548838673       52.47105947657229
C           30.06012293439227       96.33005364818257       53.13038058928618
C           30.16621408869498       94.81528686558094       55.11016288703503
C           30.81295526452905       94.46039165844337       56.31070885158741
C           30.30523248372590       93.19455553707300       56.63895434703370
C           29.32171657996831       92.89722066589239       55.63668616111663
C           27.45504862261990       91.52153035160383       54.71385622438634
C           26.54068107700280       90.44647393419089       54.83481576656248
C           25.64449507732040       90.58883982606653       53.76103400601885
C           26.12263752266359       91.71132659893823       53.00963539049991
C           26.12693434549499       93.08793094506197       50.91368864144133
C           25.70748519639021       93.31718675570438       49.57523597629399
C           26.37925249463184       94.44922512103982       49.15941446691517
C           27.19840170520538       94.85377242483612       50.25399363285356
C           28.02180220430580       95.97878180241588       50.30578290688281
H           27.92650078937055       96.67038891781279       49.47785546489117
C           30.48892913775596       95.96213928668904       54.39423357147425
H           31.16012894995452       96.65188291164503       54.88696171305558
C           28.50084607844737       91.77808051115629       55.60270018791513
H           28.68104663959347       91.02128935626327       56.35605757626791
C           25.65137389836327       92.08706211649779       51.75249058755999
H           24.81516544889246       91.51812346811336       51.36653778113040
C           31.36746017597699       98.55406833868210       52.99501619435408
H           30.93108369490950       99.07167254534406       53.86063876643666
H           31.58339704175151       99.28936099128740       52.21486561790492
H           32.30272059823618       98.07710968676365       53.31477934067890
C           29.70910758437779       98.60792641904793       50.23143101408707
H           28.73519205021367       98.64663943749167       49.73052409037906
H           30.48068230677982       98.39095257203334       49.48176996947365
H           29.90851434374337       99.58560496648896       50.68402619877212
C           31.86117587230918       95.32891787472440       56.95321325288545
H           31.50919438766356       96.36717309533768       57.01907460663796
H           32.78046004466228       95.31745683226221       56.35087642884601
H           32.08604458979176       94.98116013186520       57.96256269926290
C           30.65182423173971       92.30147581236758       57.68244579284913
H           30.02695385810087       91.41050412299934       57.76331538575700
C           31.68342130311499       92.40474741106027       58.58094381832686
H           32.37026076266964       93.24323818263333       58.57179473270567
H           31.85026443467578       91.64138132364711       59.33373072233253
C           26.52544586716542       89.49873841317380       56.01470734447133
H           26.51093695229661       90.06800121457461       56.95435618510530
H           27.42075387956648       88.86149347535893       56.01716185116626
H           25.63587130424027       88.86542898000233       55.98703238659479
C           24.47470167538409       89.87254994207818       53.37065753929696
H           23.86368432891665       90.36019164499659       52.60774679907808
C           24.02144510299638       88.65982627594792       53.82104986204210
H           24.56115494801303       88.09158187181313       54.56992469110633
H           23.10695512393401       88.22076508217187       53.43253612752129
C           24.75620065716678       92.46994340870116       48.76667808948481
H           23.71616023275572       92.70040381263146       49.03385567463376
H           24.93107754172701       91.40312848683908       48.95621603633951
H           24.89285518191627       92.66860723589360       47.69801652170061
C           26.29620214840834       95.09748194294512       47.80639737460549
H           25.30553987605044       94.92601349918729       47.37122836315941
H           27.05248915767456       94.67091570228362       47.13306349897240
H           26.46134930663829       96.17793276087949       47.88703697254676
O           26.92415775004135       95.15520995351639       53.86875632445519
H           27.22136332372381       96.05173817235092       53.71656498234736
H           26.15610424889959       94.93441671602776       54.36014043153278
C           30.77916639188831       90.21592007182950       49.75663119614034
H           31.10763043163892       89.25935298444624       50.17734924745237
H           31.56611907444141       90.60859137407833       49.10148209456628
H           29.87024653611476       90.05202097101751       49.16841989965175
N           31.21445976465775       91.56105612377416       51.90527559952890
H           32.11167796655565       91.17957706705413       52.13903144156995
C           30.46890337652516       91.19749531327138       50.84509201438703
C           30.57179732603898       92.49743089044281       52.60174739997035
H           30.94644094833651       92.97166019769753       53.48912565726864
N           29.42012042510209       92.73495821580565       52.02053884996148
C           29.32614384037143       91.95955132383575       50.94426630033530
H           28.45856418577685       91.98879052584998       50.31341951936059
78
 energy: -116.032106886358 gnorm: 0.053104107040 xtb: 6.7.1 (edcfbbe)
Fe          28.18352522434509       93.91225727380608       52.96577169777531
N           29.15804234658873       95.59811995696582       52.39641950491251
N           29.25967584339026       93.88881183612934       54.70011741650372
N           27.18767019244518       92.29879683804623       53.61385163237370
N           27.07144780162376       93.99398682862383       51.30273453433015
C           28.92492615509927       96.32954989278055       51.27354095004616
C           29.69810375893189       97.54798170831272       51.29369879645415
C           30.40897921914512       97.53379475085812       52.46025430572683
C           30.04498491100518       96.32063031557088       53.13789626880288
C           30.16138944870379       94.82501843288784       55.09639630375081
C           30.81753680322857       94.44693261106377       56.31221722856570
C           30.32221531271090       93.19995813271153       56.64143494610239
C           29.31766530965216       92.89623348067612       55.62735902136552
C           27.46339450473970       91.53685432136781       54.71101761692415
C           26.52437516266648       90.45526454423631       54.83510392525729
C           25.64777042621872       90.57761976636608       53.77202801021534
C           26.12473732179024       91.71974040128963       53.00477673472878
C           26.13537318908229       93.08088976389504       50.92989226505517
C           25.70840733276884       93.32532689006705       49.57184967026902
C           26.37155292349092       94.44535200145990       49.15855163556336
C           27.21429915640054       94.85400771283128       50.26001043773925
C           28.02599874277896       95.97629033756232       50.28082552724283
H           27.93713836050568       96.66060790516677       49.45058040665637
C           30.49190467447511       95.97237906839628       54.39482650713357
H           31.17362805411835       96.65472436827463       54.87680707410883
C           28.50202029729718       91.77896996009436       55.60429697905457
H           28.66449524253144       91.02925225606775       56.36469040213713
C           25.64590674898231       92.08123074118591       51.75281815214564
H           24.82261714591355       91.50676111156241       51.35520213144834
C           31.36237975019755       98.55172499058752       52.98812686048017
H           30.93633198641131       99.06649314400642       53.85108893564322
H           31.58830332933639       99.28891157295321       52.22425337649880
H           32.29325935296364       98.08343583330451       53.30555301379702
C           29.70518672495785       98.60199222563028       50.23999886916687
H           28.74450725706602       98.65032224992540       49.73343521514580
H           30.47099559212541       98.39555505921419       49.49091711705007
H           29.90884743878003       99.57648840802668       50.67714074090998
C           31.84872040452970       95.31457306447898       56.95580293071657
H           31.50235363697270       96.34719563837447       57.01445203026920
H           32.76826840474761       95.30927654472958       56.36600895507669
H           32.08006193265332       94.98909682006528       57.96082458371905
C           30.67254847022984       92.30069377705044       57.70758453294816
H           30.03748074549782       91.42250744135788       57.77535524902996
C           31.66484842646938       92.39908596702330       58.56633220160288
H           32.36372837549056       93.21581230651560       58.57013602099774
H           31.83583816603843       91.64786199347355       59.31876947255725
C           26.51943345138604       89.51281821778014       55.99700217585556
H           26.51470878489634       90.07101548196472       56.93491734114942
H           27.40670732050070       88.87655086443588       55.99897228611827
H           25.64335514641337       88.87614843145019       55.98676845023246
C           24.46761242087768       89.84268217435772       53.38808299517309
H           23.86938789104997       90.34261475726458       52.63004417357732
C           24.03699678311894       88.67717444810754       53.81667800207229
H           24.55961216982236       88.09070314103332       54.55118350886144
H           23.12578905335840       88.23996314802989       53.44100539238863
C           24.76319531312058       92.48071730879528       48.77891516255843
H           23.72660121077136       92.70083848738734       49.03905501105763
H           24.93556146359543       91.42086235947656       48.96206706297838
H           24.89180017498418       92.66666946005991       47.71514330039953
C           26.29357792776825       95.09495391490181       47.81704133133078
H           25.31447851723812       94.93011354762110       47.37362464654191
H           27.04608530069014       94.67945427432166       47.14410880329598
H           26.46138248569715       96.16670558841628       47.88791970996222
O           26.90708358814618       95.17523086390440       53.87997007288931
H           27.17066675463398       96.08831015245968       53.75225293962610
H           26.12264998963325       94.96585918898087       54.38377700924158
C           30.78542639270710       90.21302760659336       49.76199435424773
H           31.11457184474113       89.26335486191599       50.17603020785192
H           31.56634207799527       90.59781645084225       49.10755548308703
H           29.89011751741131       90.04765971160352       49.17094963823492
N           31.24168098170365       91.54030518393742       51.88325381731219
H           32.14093395183091       91.15390792516575       52.11269329310588
C           30.45435486628061       91.19154529776050       50.82480737080987
C           30.59618220002976       92.48531835441101       52.59709315743123
H           30.97584036893540       92.95228838575154       53.47560743734499
N           29.43091305665933       92.74515474066888       52.05017087373260
C           29.32592448117687       91.96244758712140       50.95144445277466
H           28.46058490772818       91.99341783850599       50.32512035075786
78
 energy: -116.032106891960 gnorm: 0.053104096232 xtb: 6.7.1 (edcfbbe)
Fe          28.18352522434509       93.91225727380608       52.96577169777531
N           29.15804234658873       95.59811995696582       52.39641950491251
N           29.25967584339026       93.88881183612934       54.70011741650372
N           27.18767019244518       92.29879683804623       53.61385163237370
N           27.07144780162376       93.99398682862383       51.30273453433015
C           28.92492615509927       96.32954989278055       51.27354095004616
C           29.69810375893189       97.54798170831272       51.29369879645415
C           30.40897921914512       97.53379475085812       52.46025430572683
C           30.04498491100518       96.32063031557088       53.13789626880288
C           30.16138944870379       94.82501843288784       55.09639630375081
C           30.81753680322857       94.44693261106377       56.31221722856570
C           30.32221531271090       93.19995813271153       56.64143494610239
C           29.31766530965216       92.89623348067612       55.62735902136552
C           27.46339450473970       91.53685432136781       54.71101761692415
C           26.52437516266648       90.45526454423631       54.83510392525729
C           25.64777042621872       90.57761976636608       53.77202801021534
C           26.12473732179024       91.71974040128963       53.00477673472878
C           26.13537318908229       93.08088976389504       50.92989226505517
C           25.70840733276884       93.32532689006705       49.57184967026902
C           26.37155292349092       94.44535200145990       49.15855163556336
C           27.21429915640054       94.85400771283128       50.26001043773925
C           28.02599874277896       95.97629033756232       50.28082552724283
H           27.93713836050568       96.66060790516677       49.45058040665637
C           30.49190467447511       95.97237906839628       54.39482650713357
H           31.17362805411835       96.65472436827463       54.87680707410883
C           28.50202029729718       91.77896996009436       55.60429697905457
H           28.66449524253144       91.02925225606775       56.36469040213713
C           25.64590674898231       92.08123074118591       51.75281815214564
H           24.82261714591355       91.50676111156241       51.35520213144834
C           31.36237975019755       98.55172499058752       52.98812686048017
H           30.93633198641131       99.06649314400642       53.85108893564322
H           31.58830332933639       99.28891157295321       52.22425337649880
H           32.29325935296364       98.08343583330451       53.30555301379702
C           29.70518672495785       98.60199222563028       50.23999886916687
H           28.74450725706602       98.65032224992540       49.73343521514580
H           30.47099559212541       98.39555505921419       49.49091711705007
H           29.90884743878003       99.57648840802668       50.67714074090998
C           31.84872040452970       95.31457306447898       56.95580293071657
H           31.50235363697270       96.34719563837447       57.01445203026920
H           32.76826840474761       95.30927654472958       56.36600895507669
H           32.08006193265332       94.98909682006528       57.96082458371905
C           30.67254847022984       92.30069377705044       57.70758453294816
H           30.03748074549782       91.42250744135788       57.77535524902996
C           31.66484842646938       92.39908596702330       58.56633220160288
H           32.36372837549056       93.21581230651560       58.57013602099774
H           31.83583816603843       91.64786199347355       59.31876947255725
C           26.51943345138604       89.51281821778014       55.99700217585556
H           26.51470878489634       90.07101548196472       56.93491734114942
H           27.40670732050070       88.87655086443588       55.99897228611827
H           25.64335514641337       88.87614843145019       55.98676845023246
C           24.46761242087768       89.84268217435772       53.38808299517309
H           23.86938789104997       90.34261475726458       52.63004417357732
C           24.03699678311894       88.67717444810754       53.81667800207229
H           24.55961216982236       88.09070314103332       54.55118350886144
H           23.12578905335840       88.23996314802989       53.44100539238863
C           24.76319531312058       92.48071730879528       48.77891516255843
H           23.72660121077136       92.70083848738734       49.03905501105763
H           24.93556146359543       91.42086235947656       48.96206706297838
H           24.89180017498418       92.66666946005991       47.71514330039953
C           26.29357792776825       95.09495391490181       47.81704133133078
H           25.31447851723812       94.93011354762110       47.37362464654191
H           27.04608530069014       94.67945427432166       47.14410880329598
H           26.46138248569715       96.16670558841628       47.88791970996222
O           26.90708358814618       95.17523086390440       53.87997007288931
H           27.17066675463398       96.08831015245968       53.75225293962610
H           26.12264998963325       94.96585918898087       54.38377700924158
C           30.78542639270710       90.21302760659336       49.76199435424773
H           31.11457184474113       89.26335486191599       50.17603020785192
H           31.56634207799527       90.59781645084225       49.10755548308703
H           29.89011751741131       90.04765971160352       49.17094963823492
N           31.24168098170365       91.54030518393742       51.88325381731219
H           32.14093395183091       91.15390792516575       52.11269329310588
C           30.45435486628061       91.19154529776050       50.82480737080987
C           30.59618220002976       92.48531835441101       52.59709315743123
H           30.97584036893540       92.95228838575154       53.47560743734499
N           29.43091305665933       92.74515474066888       52.05017087373260
C           29.32592448117687       91.96244758712140       50.95144445277466
H           28.46058490772818       91.99341783850599       50.32512035075786
78
 energy: -116.038404659347 gnorm: 0.024179698719 xtb: 6.7.1 (edcfbbe)
Fe          28.18436823120520       93.91773286369170       52.96883862622987
N           29.13242840624206       95.61011259069755       52.40317822837535
N           29.26145233227384       93.89073178514332       54.69449458691850
N           27.19466640485728       92.30115108260935       53.60221505266052
N           27.07833141250522       93.99430954267503       51.30772126543366
C           28.90969993592329       96.33419270968618       51.27426187404183
C           29.69212183771632       97.54914931907868       51.28915301857671
C           30.39984833712300       97.53573666846609       52.45417790609874
C           30.02698773376474       96.32569300133395       53.13963600807566
C           30.16378385845026       94.82618768596188       55.08921672245252
C           30.81873446201897       94.44062540744332       56.30741648301636
C           30.32142638785262       93.19846942321301       56.63602752901955
C           29.31754248372351       92.89814896676941       55.62048804285990
C           27.46418577732582       91.54849033998855       54.70502467375043
C           26.51939802478801       90.47007530320604       54.83306359639128
C           25.64981812428728       90.58566644335467       53.77091121288208
C           26.13059674673605       91.72138168929133       52.99678275649521
C           26.14221549035786       93.08236538736226       50.93458547061263
C           25.71091862085544       93.32956577083407       49.57763840714721
C           26.37370645384810       94.44543571451165       49.16247135342076
C           27.22028962064299       94.85095252451443       50.26223724771844
C           28.02910048018518       95.97334324138204       50.26943799547857
H           27.96222524638276       96.63733583261961       49.41899244933425
C           30.49132824373596       95.97653371579159       54.39043188356161
H           31.19010748279199       96.65211423012960       54.85951254160241
C           28.49657108447963       91.78609081183714       55.60387197552466
H           28.63991461075330       91.04547133878755       56.37736533275210
C           25.64990013139021       92.07749193032298       51.74679553974986
H           24.83603798644708       91.49519265039788       51.34024046692553
C           31.35862461428044       98.55033564542728       52.98001755671346
H           30.93691010845796       99.06585270223793       53.84496401866262
H           31.59041043935121       99.28955914611164       52.21832862072556
H           32.28828409685939       98.07727445069534       53.29455802595983
C           29.70363032777393       98.60052002498558       50.23246543231777
H           28.74221460269315       98.65467343316698       49.72707397544819
H           30.46926723724711       98.38847220067069       49.48439658681361
H           29.91477583706887       99.57480437305011       50.66870722572104
C           31.84141448776271       95.30907153631439       56.96067007004989
H           31.48967090575492       96.34019334847311       57.00660363657212
H           32.76840556171393       95.29853455489210       56.38288780867404
H           32.06040008329883       94.99270248555914       57.97264709567963
C           30.66319151141043       92.29610165991717       57.70740091334851
H           30.01805928641897       91.42751363018338       57.78155318084824
C           31.66933187908313       92.38352006033878       58.57210868045567
H           32.38620494964310       93.18404141567787       58.56940665076154
H           31.82625468853683       91.63219223982642       59.32801492660691
C           26.51616836312342       89.52773954950193       55.99153573344069
H           26.52184918346837       90.08595477324289       56.92903249416755
H           27.40168525224513       88.88935461094722       55.97874498900653
H           25.63733362802686       88.89353504275573       55.98641242053538
C           24.46919438847468       89.84572200293782       53.39212249744048
H           23.86109148471910       90.34842085496514       52.64703625049131
C           24.03997157745082       88.66469320990325       53.82297446646812
H           24.57274991078252       88.06624175901645       54.54022226924221
H           23.12378483905376       88.23432474554835       53.45211377397037
C           24.76233656494811       92.48608397743115       48.79137702825437
H           23.72690674688320       92.70676638891301       49.05641875922987
H           24.93893369167776       91.42749228740992       48.97704710665313
H           24.88749362423582       92.67030908600624       47.72647461487301
C           26.29470808969321       95.09847465735766       47.82315203758161
H           25.31598728022805       94.93477483910139       47.37682457498411
H           27.04917281435515       94.68512565509143       47.15084733036987
H           26.46261599962160       96.17028939627816       47.89664271273822
O           26.86980610788554       95.19621441927039       53.90031132767896
H           27.10973796359834       96.11948884681858       53.79618276647602
H           26.08533662791014       94.99709499269191       54.40902183071098
C           30.78644467015512       90.20547532648416       49.75754133105719