87
 energy: -124.477735610238 gnorm: 0.295403998165 xtb: 6.7.1 (edcfbbe)
Fe          -8.50100000000000      -28.28900000000000      -44.86800000000000
N           -8.41300000000000      -29.22400000000000      -46.62100000000000
N          -10.47000000000000      -28.42000000000000      -44.90700000000000
N           -8.54200000000000      -27.31200000000000      -43.08700000000000
N           -6.47900000000000      -28.18100000000000      -44.77800000000000
C           -7.30500000000000      -29.65600000000000      -47.29499999999999
C           -7.70000000000000      -30.28700000000000      -48.50900000000000
C           -9.05200000000000      -30.23100000000000      -48.59900000000000
C           -9.49500000000000      -29.55500000000000      -47.42400000000000
C          -11.26100000000000      -28.78900000000000      -45.95700000000000
C          -12.70900000000000      -28.66700000000000      -45.60600000000000
C          -12.73900000000000      -28.21500000000000      -44.32800000000000
C          -11.32000000000000      -28.04500000000000      -43.90600000000000
C           -9.70100000000000      -27.16600000000000      -42.33800000000000
C           -9.37700000000000      -26.48800000000000      -41.11799999999999
C           -7.97600000000000      -26.26000000000000      -41.17200000000000
C           -7.51200000000000      -26.78500000000000      -42.39300000000000
C           -5.72200000000000      -27.51100000000000      -43.84499999999999
C           -4.29200000000000      -27.76700000000000      -44.15999999999999
C           -4.27500000000000      -28.56100000000000      -45.28400000000000
C           -5.64800000000000      -28.80400000000000      -45.65600000000000
C           -5.98100000000000      -29.51700000000000      -46.80799999999999
H           -5.17600000000000      -29.99500000000000      -47.36600000000000
C          -10.85500000000000      -29.29500000000000      -47.16000000000000
H          -11.59700000000000      -29.50100000000000      -47.93000000000000
C          -10.99000000000000      -27.54100000000000      -42.66000000000000
H          -11.77300000000000      -27.43700000000000      -41.90900000000000
C           -6.19000000000000      -26.80700000000000      -42.77700000000000
H           -5.47600000000000      -26.22700000000000      -42.19200000000000
C           -6.71300000000000      -30.87600000000000      -49.49100000000000
H           -6.21800000000000      -31.56300000000000      -48.77200000000000
H           -6.09000000000000      -29.96300000000000      -49.60400000000000
H           -6.81400000000000      -31.39100000000000      -50.47000000000000
C           -9.91300000000000      -30.79900000000000      -49.71999999999999
H          -10.44600000000000      -29.84800000000000      -49.93600000000000
H          -10.55600000000000      -31.43400000000000      -49.07400000000000
H           -9.70400000000000      -31.32100000000000      -50.67799999999999
C           -3.03900000000000      -29.13100000000000      -46.03400000000000
H           -2.62800000000000      -28.11900000000000      -46.23900000000000
H           -2.73200000000000      -29.81700000000000      -46.85200000000000
H           -2.63700000000000      -29.49300000000000      -45.06400000000000
C           -3.17500000000000      -27.08400000000000      -43.46000000000000
H           -2.68500000000000      -27.60000000000000      -42.62299999999999
C           -2.30400000000000      -26.32000000000000      -44.29300000000000
H           -2.70100000000000      -25.76700000000000      -45.15700000000000
H           -1.22600000000000      -26.27500000000000      -44.08100000000000
C           -7.08200000000000      -25.56800000000000      -40.14999999999999
H           -6.66200000000000      -24.81100000000000      -40.84700000000000
H           -6.35700000000000      -26.40300000000000      -40.04600000000000
H           -7.25600000000000      -25.09100000000000      -39.16199999999999
C          -10.34600000000000      -26.09600000000000      -40.07500000000000
H          -11.14300000000000      -26.83100000000000      -40.03899999999999
C          -10.35000000000000      -24.81200000000000      -39.53300000000000
H           -9.47200000000000      -24.15800000000000      -39.63900000000000
H          -11.23200000000000      -24.43700000000000      -38.99300000000000
C          -13.96700000000000      -27.97500000000000      -43.47199999999999
H          -14.41000000000000      -27.35900000000000      -44.28399999999999
H          -14.28300000000000      -27.55900000000000      -42.49100000000000
H          -14.32800000000000      -29.02100000000000      -43.57500000000000
C          -13.89500000000000      -28.94300000000000      -46.46700000000000
H          -14.33500000000000      -27.94600000000000      -46.25200000000000
H          -14.33000000000000      -29.68800000000000      -45.76700000000000
H          -14.13300000000000      -29.22300000000000      -47.51500000000000
C           -7.06000000000000      -32.53900000000000      -41.49699999999999
H           -6.64400000000000      -33.42800000000000      -42.01700000000000
H           -7.78900000000000      -32.87800000000000      -40.72999999999999
H           -6.22900000000000      -31.98400000000000      -41.01100000000000
N           -8.81100000000000      -32.07900000000000      -43.25400000000000
H           -9.23200000000000      -32.98400000000000      -43.18999999999999
C           -7.74200000000000      -31.66000000000000      -42.48499999999999
C           -9.18000000000000      -31.11000000000000      -44.07200000000000
H          -10.00100000000000      -31.17700000000000      -44.78499999999999
N           -8.38600000000000      -30.07900000000000      -43.86399999999999
C           -7.50200000000000      -30.38500000000000      -42.86600000000000
H           -6.77800000000000      -29.66000000000000      -42.51599999999999
C          -11.05500000000000      -25.10200000000000      -45.58499999999999
H          -11.59100000000000      -24.28500000000000      -45.05600000000000
H          -11.48000000000000      -26.07500000000000      -45.25900000000000
H          -11.20600000000000      -24.97500000000000      -46.67800000000000
C           -9.56200000000000      -25.05000000000000      -45.25599999999999
H           -9.43500000000000      -25.17100000000000      -44.15899999999999
H           -9.16900000000000      -24.05200000000000      -45.54400000000000
S           -8.63300000000000      -26.33800000000000      -46.11899999999999
C           -7.00200000000000      -25.59400000000000      -46.19799999999999
H           -6.60400000000000      -25.38400000000000      -45.18200000000000
H           -7.04500000000000      -24.63400000000000      -46.75400000000000
H           -6.29200000000000      -26.27800000000000      -46.71000000000000
87
 energy: -124.596767993752 gnorm: 0.159726631728 xtb: 6.7.1 (edcfbbe)
Fe          -8.49923900116891      -28.28195618138548      -44.87210047504797
N           -8.42462283407965      -29.23129887129802      -46.62883583234017
N          -10.47122955053955      -28.41284356075409      -44.90621456858909
N           -8.55914996129377      -27.32103943732054      -43.08830402906467
N           -6.49343875679285      -28.18514428593812      -44.78311360880817
C           -7.30935988774002      -29.66285274388467      -47.28787215553380
C           -7.69249248251991      -30.29456064034845      -48.52068017902368
C           -9.03778854864477      -30.23665433029957      -48.61294851370479
C           -9.49255061802148      -29.55723128239750      -47.43135821066107
C          -11.25714907792913      -28.78841254440882      -45.95218239850816
C          -12.67265185558605      -28.66000425611816      -45.60421968671993
C          -12.70306829623720      -28.21963718729034      -44.31590784896427
C          -11.31473658231468      -28.05473354646637      -43.90127535623765
C           -9.68941350351204      -27.17173808983569      -42.32339232066779
C           -9.36475395112220      -26.48186623657855      -41.10053103951269
C           -8.00225899800679      -26.24377257782329      -41.15365518422901
C           -7.52850644991100      -26.78485861971223      -42.38778436252602
C           -5.72080812043580      -27.52754615362652      -43.86314349876550
C           -4.30355035523760      -27.75101912369034      -44.18479040236588
C           -4.29457231285484      -28.56471756602462      -45.29318341142532
C           -5.66343338402038      -28.80935023276088      -45.65631167697467
C           -6.00245218070486      -29.51845126539644      -46.80244517113190
H           -5.19141315711061      -29.98068988287972      -47.36028246111891
C          -10.83815809182958      -29.29467891739263      -47.15808882954387
H          -11.58294705859658      -29.50670179211840      -47.91862624657301
C          -10.97781781755741      -27.54765036153608      -42.66228947584852
H          -11.76535805429291      -27.42825617488191      -41.92555300267483
C           -6.19212851309689      -26.81102890315045      -42.78402545393351
H           -5.47581553438387      -26.24392849310329      -42.19491973452634
C           -6.67840349810683      -30.86709474352163      -49.46410881468114
H           -6.17355353816229      -31.57518784480560      -48.79687871388474
H           -6.04870346192626      -29.98448881718112      -49.62602918607727
H           -6.85910094414954      -31.36425683813765      -50.43024585433922
C           -9.94498636019416      -30.77725796850703      -49.69198991324966
H          -10.48744154704492      -29.86325640447139      -49.96109093365045
H          -10.59177651993273      -31.43991410566627      -49.10357398474174
H           -9.66030033240212      -31.29599973895818      -50.62311704323462
C           -3.02817076823751      -29.09309331091242      -45.98436415376266
H           -2.57300556306899      -28.12863661964968      -46.24082667993455
H           -2.81805400096146      -29.79204198403427      -46.81794066441561
H           -2.56796921290083      -29.49724968048276      -45.07511235325559
C           -3.13316951764655      -27.12467943486652      -43.52828857956896
H           -2.70048532871450      -27.58839732112765      -42.63203916496919
C           -2.31289885104765      -26.33691908319375      -44.28132849317167
H           -2.69493719743958      -25.79361759577340      -45.14390341626225
H           -1.25193483679395      -26.24415100047788      -44.05799966944745
C           -7.06018379146998      -25.57691303802847      -40.17940408549381
H           -6.62688607074900      -24.79809225413132      -40.82125597693702
H           -6.32513840769828      -26.37776271659472      -40.02530574692319
H           -7.29811013919438      -25.12491822298552      -39.20417358395166
C          -10.34652709200575      -26.06594094464701      -40.10084970349931
H          -11.14514711655158      -26.79934400980995      -40.01944606388667
C          -10.35158837066939      -24.83728021622159      -39.54200482135406
H           -9.49606311241535      -24.17442505548990      -39.64909870811083
H          -11.20923758399394      -24.46022565861060      -38.98653502521866
C          -13.97437532907990      -27.99053588416453      -43.52224281860281
H          -14.47739503163847      -27.36008219437922      -44.26886900467829
H          -14.20388384961801      -27.57155720977517      -42.52558650553927
H          -14.38158021743704      -29.01126386935328      -43.56507888095312
C          -13.90353081613273      -28.92818173527372      -46.42404382936627
H          -14.39523364716659      -27.95699504128071      -46.26833132947589
H          -14.38131782400629      -29.68579643184414      -45.78557956034332
H          -14.06267871458926      -29.21487989509933      -47.47762433160020
C           -7.06282278839550      -32.54160058443663      -41.49720281412912
H           -6.64692424592784      -33.42200698247951      -42.00537752336729
H           -7.77556556900575      -32.87834615319746      -40.73313786725637
H           -6.24411412070097      -31.99355499771403      -41.01681403778977
N           -8.80590657857305      -32.09036673757961      -43.24660828500786
H           -9.23123350275165      -32.99755997319406      -43.18496226546143
C           -7.74390660412747      -31.66441503026278      -42.48380597661962
C           -9.17112097817238      -31.10019049867111      -44.07010709590742
H           -9.98439628685892      -31.16783959376973      -44.77697108590389
N           -8.39417927997176      -30.05833882146703      -43.86927086664767
C           -7.50968744789470      -30.38290484376189      -42.87886922924058
H           -6.78744810924865      -29.66722120195760      -42.52666222688411
C          -11.05193726143675      -25.10104000350018      -45.58661357683633
H          -11.58374526238922      -24.29604236179112      -45.06295183851138
H          -11.47558825296715      -26.05887899891895      -45.26791049386685
H          -11.20605174294522      -24.97936133096044      -46.66549961047032
C           -9.56576195881657      -25.04003310694510      -45.24823473498772
H           -9.43078691068414      -25.17016541367027      -44.16556185499456
H           -9.16490604033346      -24.06017961741673      -45.54344500574305
S           -8.63556398451705      -26.33383263640523      -46.12903103010216
C           -6.99618713028361      -25.58161080520831      -46.19386096332824
H           -6.60839939182724      -25.38670005200744      -45.18713847027202
H           -7.04539316259606      -24.63991029182377      -46.75348867638453
H           -6.31073986088774      -26.27083983498339      -46.70317174068511
87
 energy: -124.661443916249 gnorm: 0.070727823089 xtb: 6.7.1 (edcfbbe)
Fe          -8.49785294957496      -28.28393065756467      -44.86662518016990
N           -8.43562189020046      -29.23795558934463      -46.63351647286496
N          -10.47791646056415      -28.40730499695115      -44.90568123604734
N           -8.57044916167199      -27.33155439907002      -43.08736802013351
N           -6.50381495012121      -28.19075017286380      -44.78711181966420
C           -7.31592832183048      -29.66922806031737      -47.27890870585517
C           -7.68554090159338      -30.30413053822617      -48.53166192997411
C           -9.02735193928257      -30.24201274647044      -48.62827978568985
C           -9.48961003377695      -29.55880993431223      -47.43562617363317
C          -11.26307234255405      -28.78541747328747      -45.94991968189221
C          -12.65148439648455      -28.65697897882296      -45.60520606560158
C          -12.68458846103774      -28.22507512649254      -44.30344638672984
C          -11.31975649356593      -28.06254979747208      -43.89623026662772
C           -9.67755181932909      -27.17620727286080      -42.31324678907978
C           -9.34701131819914      -26.47735074581912      -41.08584595300590
C           -8.01207904653145      -26.22849978752703      -41.14250103430440
C           -7.53516783824318      -26.78801384535826      -42.38869051042462
C           -5.72197221787675      -27.53709398565862      -43.88059187000351
C           -4.32042903751661      -27.73525053407087      -44.20168661437605
C           -4.30290042109242      -28.56583121213016      -45.30085687736682
C           -5.66967113731557      -28.81507815901462      -45.65708007634738
C           -6.02345680231990      -29.52137394024705      -46.79925973508476
H           -5.20847668601101      -29.96689487875582      -47.35869709298350
C          -10.82079770504640      -29.29402980490858      -47.15667619470089
H          -11.56847844794876      -29.51527442976324      -47.90702036619494
C          -10.96425766266103      -27.55168217588455      -42.66265806495099
H          -11.75608967245215      -27.41570831968323      -41.93878976093450
C           -6.19776369204909      -26.81543546608429      -42.79364943779110
H           -5.47792015859377      -26.26548963021193      -42.19910486606510
C           -6.64461966771617      -30.85886668667908      -49.43752224401401
H           -6.12179531224327      -31.58883623096841      -48.82345819389954
H           -6.00049408918315      -30.00758554557419      -49.64878835795211
H           -6.91557575678619      -31.33679655565021      -50.38906896005324
C           -9.97401978000716      -30.75549127421124      -49.66534642682551
H          -10.53092249941532      -29.87739233392921      -49.98510404801814
H          -10.62883190160426      -31.44341700244985      -49.13131495516063
H           -9.60466970902256      -31.26915099756787      -50.56622874223568
C           -3.02056963608893      -29.05391075920862      -45.93475445781392
H           -2.51934277344698      -28.13599172340996      -46.23970461744791
H           -2.92673438602679      -29.76576340420333      -46.78198250043653
H           -2.50257191478084      -29.49794291469463      -45.08416216063468
C           -3.10579876904041      -27.16031110748215      -43.58499555621512
H           -2.72621567020343      -27.59486113850943      -42.65213666992597
C           -2.32143380397811      -26.35510036189958      -44.27485191219389
H           -2.68223357585836      -25.82992526979903      -45.14968385132688
H           -1.27853576335548      -26.19740131172253      -44.02234522547966
C           -7.03791709027254      -25.58413595921026      -40.20864949052867
H           -6.58838274104380      -24.78378745106618      -40.79702586993816
H           -6.29339469565407      -26.35471604620081      -40.00727269326332
H           -7.35535695065670      -25.16098750850156      -39.24664518256147
C          -10.34451469541834      -26.04942693348833      -40.12046205834648
H          -11.15523337275782      -26.76686519115355      -40.00568431290856
C          -10.35317301910251      -24.85654230733999      -39.54740276782488
H           -9.51954527192762      -24.17866168626406      -39.66319948262971
H          -11.18822202354885      -24.48352878688322      -38.97067278534227
C          -13.98221389383369      -28.00816477298927      -43.57086789558313
H          -14.53584698593296      -27.36290503748191      -44.25539677162072
H          -14.10179044852524      -27.58187527560606      -42.55783408035084
H          -14.43335830674229      -29.00360672485255      -43.55927895691153
C          -13.91313239823529      -28.91407162632109      -46.38153527894765
H          -14.44949959005930      -27.96747317559679      -46.28149216244418
H          -14.42696075384727      -29.68350389417020      -45.80028746009057
H          -13.96906682787538      -29.20679672767147      -47.44308809117602
C           -7.06441774471467      -32.54164226369978      -41.49773219761746
H           -6.64949766376722      -33.41770941509446      -41.99749379400221
H           -7.76685848355846      -32.87796971329653      -40.73552799757636
H           -6.25440780557310      -31.99807845972662      -41.02007837254916
N           -8.80218168175790      -32.09903197131192      -43.24289689965055
H           -9.23140525456336      -33.00678333596386      -43.18433294330522
C           -7.74570321855850      -31.66589200682370      -42.48485930763662
C           -9.16491119451981      -31.09249645191773      -44.06761928975578
H           -9.97155355545312      -31.16014977678421      -44.77089705294748
N           -8.40075406726297      -30.04557361771809      -43.87425715692032
C           -7.51765731196954      -30.38116139791928      -42.88908168445733
H           -6.79365372695568      -29.67498218571592      -42.53436446638135
C          -11.05024955314868      -25.09789684117613      -45.58665056324293
H          -11.58009698527584      -24.30085429542418      -45.06715528001952
H          -11.47011604471755      -26.04795800590377      -45.27427862170908
H          -11.20189063867659      -24.98169160518261      -46.65731387944388
C           -9.57001388379458      -25.03008280253665      -45.24202337649307
H           -9.42613532960748      -25.17119128900893      -44.17140141826838
H           -9.15956545830992      -24.06619091504607      -45.54461666968041
S           -8.63768492568912      -26.33389959058005      -46.13636707688630
C           -6.99003621366376      -25.56918304954103      -46.19115167597111
H           -6.61548055492937      -25.38763707315277      -45.18867057427190
H           -7.04696138272861      -24.64106982125911      -46.75349945905930
H           -6.32678128116828      -26.26616773328625      -46.69854905355464
87
 energy: -124.689115198145 gnorm: 0.046022463719 xtb: 6.7.1 (edcfbbe)
Fe          -8.49900898706291      -28.28680111600259      -44.86114568345997
N           -8.43969505517088      -29.24560700039034      -46.62749046927956
N          -10.48357718429543      -28.40752376932802      -44.90246340239413
N           -8.57198560791936      -27.34443833071001      -43.08694978924554
N           -6.50910813520080      -28.19942668379754      -44.79243123240281
C           -7.32198380225440      -29.67678795600908      -47.26778244688067
C           -7.67967516577633      -30.31052237032205      -48.53008632356211
C           -9.02412684910485      -30.24141972966565      -48.63117021376858
C           -9.48648291720516      -29.55961980927876      -47.43152444496189
C          -11.26931090623927      -28.78424818097640      -45.94796967191462
C          -12.65202126190640      -28.65769178650022      -45.60303113479677
C          -12.68758652470437      -28.23136644113055      -44.29844667744740
C          -11.32623913957625      -28.06933788735979      -43.88962368597724
C           -9.67080952243727      -27.18474725555086      -42.30958589383908
C           -9.33618521496316      -26.47524245369301      -41.08462341665039
C           -8.00099038329083      -26.22121214076631      -41.14912115387653
C           -7.53245458478600      -26.79548161963621      -42.39799583130334
C           -5.72688154355332      -27.54155148996791      -43.89337786956590
C           -4.33528198166900      -27.72929270391919      -44.21385698848608
C           -4.30349374462189      -28.56076684369913      -45.30750563347547
C           -5.66914503335905      -28.82187380004624      -45.65941863353771
C           -6.03443872211272      -29.52773638706843      -46.79713327009171
H           -5.22119605813687      -29.95703670765270      -47.36574815723161
C          -10.81110019721698      -29.29449730277366      -47.15260820441527
H          -11.55848565233213      -29.52807424434143      -47.89692959042798
C          -10.95518280789432      -27.55581280380007      -42.65931900182869
H          -11.75004904960670      -27.39700183643652      -41.94533577344465
C           -6.20294932734911      -26.82335282898093      -42.80368538475530
H           -5.47715940959942      -26.29146992230810      -42.20299399586126
C           -6.62537392525706      -30.85628521255766      -49.42178331371345
H           -6.07023892152743      -31.60523409747745      -48.85454875932897
H           -5.95337086457617      -30.03399569806772      -49.67331894883304
H           -6.97307712336340      -31.31610500955907      -50.35665797482418
C           -9.98721301957269      -30.74075508609287      -49.65011839077484
H          -10.56992853877520      -29.89183134624689      -50.01017644167710
H          -10.66235013181029      -31.44542885176392      -49.16018187686955
H           -9.54663168087956      -31.24592846615787      -50.52117756347641
C           -3.01885572104605      -29.03077898236855      -45.90727353899535
H           -2.46798901936220      -28.14836821430118      -46.24261187976747
H           -3.03171292818080      -29.74739345642137      -46.75404042583150
H           -2.44584759942851      -29.49602808355777      -45.09839180275687
C           -3.10442504215636      -27.19683154269315      -43.60905199776368
H           -2.75534858059525      -27.62593922291471      -42.67039121339725
C           -2.32462862323019      -26.33916040775776      -44.26263665964332
H           -2.66343831600758      -25.86497976065523      -45.17634627174515
H           -1.30107693463657      -26.12655395404773      -43.96902132320324
C           -7.02333216969907      -25.58566414088500      -40.22600802151261
H           -6.54772556834799      -24.76462182115835      -40.76779177554614
H           -6.26079408504257      -26.32985480188879      -39.98705153298530
H           -7.41897398794080      -25.19162825132736      -39.27976250759433
C          -10.34515507113255      -26.04413751788927      -40.13609027133482
H          -11.16642268059838      -26.74278334103582      -39.99990477833779
C          -10.35158401074880      -24.85790155988492      -39.54303612620153
H           -9.53575760860502      -24.16484133201149      -39.67976491148120
H          -11.17056001294864      -24.50723026474515      -38.93381605252008
C          -13.98503030958037      -28.01938146129480      -43.59404285053246
H          -14.58791694947666      -27.36485180479213      -44.23227360589809
H          -13.99849036380915      -27.58807282071344      -42.57592924929752
H          -14.48570745942182      -28.99252345384535      -43.54824756189208
C          -13.91542509459030      -28.90784333578197      -46.36025278774070
H          -14.49882268165477      -27.98231192492326      -46.30238840595771
H          -14.46970695055188      -29.68240213589135      -45.82103086533849
H          -13.86891401048365      -29.20310898001105      -47.42221229996962
C           -7.06655981335274      -32.53925927960648      -41.49886228890131
H           -6.65028800095387      -33.41669355695740      -41.99319208422950
H           -7.76489638361085      -32.87704546730617      -40.73449424985825
H           -6.25904565815292      -31.99562060758955      -41.02050220760989
N           -8.80165182233014      -32.10176729756354      -43.24508192835793
H           -9.23121834895223      -33.01036460871484      -43.18839384297335
C           -7.74727611485132      -31.66441756359012      -42.48812618283624
C           -9.16445261789437      -31.08893248675341      -44.06758432194504
H           -9.96739733446640      -31.15480315235416      -44.77180532305962
N           -8.40650028137068      -30.03959268212443      -43.87578435739369
C           -7.52216869485867      -30.37944891442120      -42.89449910556188
H           -6.79424852045588      -29.67933489641695      -42.54006139330719
C          -11.04697328376512      -25.09174871715335      -45.58672025794196
H          -11.58041919733362      -24.29759481569966      -45.06932295081398
H          -11.46539806695313      -26.04239780876626      -45.27803317412740
H          -11.19559821764025      -24.97943270413733      -46.65711400191206
C           -9.57015985834275      -25.02269937857618      -45.23952086352978
H           -9.41870342159815      -25.17230748336798      -44.17279392910171
H           -9.15021207716967      -24.06639275372737      -45.54696753569178
S           -8.64150798237579      -26.33247008764903      -46.14211546616877
C           -6.99100309842866      -25.55945669312754      -46.19022829510927
H           -6.62435183007758      -25.38487780955626      -45.18508806611263
H           -7.04992969172556      -24.63491139812600      -46.75527343194795
H           -6.33860892895677      -26.26373209388266      -46.69674877988435
87
 energy: -124.699500876009 gnorm: 0.044276840223 xtb: 6.7.1 (edcfbbe)
Fe          -8.50144967150192      -28.29326390359875      -44.85703071708059
N           -8.43906606514362      -29.25443625480683      -46.61579566509062
N          -10.49115442052508      -28.41099681588231      -44.89558270857604
N           -8.57186543358716      -27.35725803055724      -43.09014354052521
N           -6.50901605299486      -28.20966952848509      -44.80039948396249
C           -7.32506304090405      -29.68644167466129      -47.25587261547830
C           -7.67424556582874      -30.31671305624164      -48.52162686666109
C           -9.02282460875617      -30.23953130034321      -48.62584530450530
C           -9.48328272890400      -29.56308185472908      -47.42158385248430
C          -11.27553751609400      -28.78801187287216      -45.94306989213754
C          -12.66054491690919      -28.66236462369487      -45.59755900230395
C          -12.69850250706665      -28.23973106402156      -44.29406381744530
C          -11.33457671832129      -28.07392805768438      -43.88158225192868
C           -9.66714622291709      -27.18893951610769      -42.31025492515160
C           -9.32752236247139      -26.46580970125409      -41.09242637351930
C           -7.98735107989339      -26.21580468299818      -41.16482458423639
C           -7.52991838647162      -26.80515934860009      -42.40961328786901
C           -5.73057611697021      -27.54577512991394      -43.90350443625193
C           -4.34100228672492      -27.71827215157344      -44.22509356848961
C           -4.29709073312864      -28.55554860075420      -45.31085604094367
C           -5.66219972385864      -28.82818534399416      -45.66439854338923
C           -6.03558725724403      -29.53521326156969      -46.79693735578010
H           -5.22867758765100      -29.95221380024279      -47.38007622183188
C          -10.80730275208450      -29.30006079010299      -47.14364820472443
H          -11.55100136996742      -29.54547887714859      -47.88662868685212
C          -10.95218256519094      -27.55459936547044      -42.65615829446462
H          -11.74626945109504      -27.37262928067222      -41.94742033136262
C           -6.20599669810083      -26.83500631284176      -42.81189105160441
H           -5.47436617747867      -26.31977530591145      -42.20529041212002
C           -6.62179127322204      -30.86063145357987      -49.41812926405571
H           -6.04336988195531      -31.62360969724158      -48.88862050431642