87
 energy: -124.720520070138 gnorm: 0.000025653656 xtb: 6.7.1 (edcfbbe)
Fe          -8.45841545834305      -28.24155386104171      -44.88262590560297
N           -8.38881663991853      -29.18739203968719      -46.63988940917604
N          -10.45822670785842      -28.35696454924199      -44.90196082459696
N           -8.53609762874955      -27.29227668561582      -43.11381633194550
N           -6.45513544669945      -28.19636237768264      -44.81989978280794
C           -7.27505491998572      -29.51839278035776      -47.34273801190299
C           -7.62975961024204      -30.15053794785365      -48.59568978870465
C           -8.98731934823795      -30.19551283406662      -48.62845333980421
C           -9.44199113233518      -29.59112144466127      -47.39472198476489
C          -11.23529903097453      -28.91813975008775      -45.86519117410688
C          -12.63378061752909      -28.83763969016621      -45.50565068090389
C          -12.68149500343928      -28.21203673244930      -44.29888277858029
C          -11.31178420608829      -27.92057489294155      -43.93920830277256
C           -9.64817276675073      -26.97565313512627      -42.40364423144032
C           -9.29575988853041      -26.27442671827355      -41.18460853452501
C           -7.92728772927400      -26.21129301565106      -41.16768821432133
C           -7.47825363034461      -26.86115568433174      -42.37188991318028
C           -5.67979736441087      -27.67690207680962      -43.83351886485884
C           -4.27348835660010      -27.84558018211586      -44.14499608246290
C           -4.23130530827838      -28.49923967825227      -45.34810313342459
C           -5.60033120605232      -28.70316818683107      -45.74675429424715
C           -5.97469525721384      -29.30863911805272      -46.93376036129415
H           -5.18720859515509      -29.63663891510938      -47.59473955935074
C          -10.77344231205713      -29.47964424308585      -47.04140590410799
H          -11.50835416602850      -29.86263872500142      -47.73308678555875
C          -10.94740533031742      -27.26299250256200      -42.77989950217396
H          -11.74044575956404      -26.95030766821201      -42.11817354231322
C           -6.14456888333139      -27.03237087659069      -42.70329683943930
H           -5.41006926268879      -26.63157352522983      -42.02155159218531
C           -6.64347735755484      -30.63145727824639      -49.60385843368917
H           -5.99143239786624      -31.39097297466288      -49.17135457930855
H           -6.01944050410267      -29.80767400217656      -49.95039743179109
H           -7.14855992881156      -31.06385882072933      -50.46415221018982
C           -9.89131559683108      -30.73687191956833      -49.68257670990704
H          -10.55423058162222      -29.95564045304047      -50.05465816971927
H          -10.50902616248244      -31.54296316504552      -49.28487775182227
H           -9.31842920463739      -31.12725221154925      -50.52005948605793
C           -3.03924390399543      -28.98533200722695      -46.09582690098437
H           -2.77882379396258      -28.29831812207432      -46.90285070139804
H           -3.23302477220424      -29.96275083099399      -46.53505374663029
H           -2.18574107250727      -29.06700817649622      -45.42571222921963
C           -3.18382600686037      -27.41276063118792      -43.29883346451913
H           -3.37535314748320      -27.44850044188011      -42.23233555348491
C           -2.00201670988012      -26.97831232116897      -43.72462145273844
H           -1.77225791719979      -26.87571254489102      -44.77075821797392
H           -1.22834787036906      -26.68357157046540      -43.03511858224013
C           -7.03963360231331      -25.66371390052508      -40.10504492379092
H           -6.67752701676366      -24.66921576964200      -40.37205774122759
H           -6.17353683102356      -26.30697782226830      -39.95550994829274
H           -7.58410738725635      -25.59038343781031      -39.16582563925147
C          -10.24490157400591      -25.78925601061609      -40.20753446636883
H          -11.14146545461440      -26.38666882907846      -40.08804387235642
C          -10.10261268291568      -24.68912616305373      -39.47544601759829
H           -9.25725257779214      -24.03239655616629      -39.58569009318092
H          -10.84582887513070      -24.39239718803460      -38.75402371992549
C          -13.86401202600656      -27.86032539144608      -43.46329411211389
H          -13.92275999554545      -26.78128523683375      -43.31762177998188
H          -13.79408602863255      -28.33014983793609      -42.48190198666740
H          -14.78498652347889      -28.19167342518665      -43.93682292161813
C          -13.74966015377828      -29.35267908140724      -46.34886662938791
H          -14.70850385019483      -29.18869000766811      -45.86331863697901
H          -13.63487697367318      -30.42192774387660      -46.52926916702547
H          -13.76417379966601      -28.84737844123941      -47.31504911237079
C           -7.41501214303925      -32.45984029631990      -41.37999463203916
H           -6.89058566891647      -33.33137891505123      -41.77172439743433
H           -8.22983250342612      -32.80894711409421      -40.74571198578051
H           -6.72480517236320      -31.88223146136664      -40.77319452710393
N           -8.82461310852245      -32.08070006597838      -43.41520380320426
H           -9.20959985607361      -33.01044759450368      -43.44662944445699
C           -7.93215015997611      -31.61441495502505      -42.48558799356240
C           -9.08859364551236      -31.06981431236895      -44.27295242773437
H           -9.75588069477248      -31.14725355112543      -45.10619079629007
N           -8.41846261971187      -29.99308168572745      -43.94318451400716
C           -7.69463259618690      -30.31576132476928      -42.83387258351276
H           -7.05549951862020      -29.59840873826313      -42.36300337520086
C          -11.09568893085901      -25.39211055115480      -46.53434699075993
H          -11.95617578982824      -24.80974037220570      -46.21086485876473
H          -11.37079662719487      -26.44253455203019      -46.54564800750911
H          -10.82871861027485      -25.09475120685719      -47.54568769927779
C           -9.92991149831018      -25.16372351935427      -45.59203582132639
H          -10.18446841426671      -25.44721649789956      -44.57216823191452
H           -9.61129823931365      -24.12161658139703      -45.61830123316885
S           -8.48338475327521      -26.17223620051928      -46.11621161632426
C           -7.17870847175329      -25.12063948318819      -45.40848510075561
H           -7.32438429495476      -25.02355385308431      -44.33739045674471
H           -7.20295903244551      -24.14954096916522      -45.89606966893286
H           -6.23260380232703      -25.61212404725967      -45.60632777384185
