87
 energy: -124.720520959636 gnorm: 0.000065865664 xtb: 6.7.1 (edcfbbe)
Fe          -0.31201780687235        0.03247667429527       18.85466002601613
N            0.40958771737189        0.75629837922958       17.13924211137672
N           -1.14828123279108       -1.49053142794254       17.85779312891286
N           -1.04280971998338       -0.70062110401240       20.57623269356482
N            0.59401628198915        1.50703363158702       19.86595322958247
C            1.16291479856247        1.87495421294282       16.98060054472933
C            1.44638485586015        2.10652602042458       15.58013030957806
C            0.84813029357423        1.09494895204643       14.89830263145485
C            0.20839874665408        0.26004797767443       15.89215917032575
C           -1.09384620838583       -1.71953723213498       16.51945155075924
C           -1.78681473635273       -2.94297761125560       16.18113912659592
C           -2.26316625996165       -3.44704018264023       17.35114566934630
C           -1.85335096358409       -2.52463392744764       18.38634382659264
C           -1.78868732082052       -1.82281040463537       20.73614678623182
C           -2.14778677798096       -2.00569083950409       22.12884964961048
C           -1.55969089124744       -0.97203360998068       22.80909086773898
C           -0.86840715500439       -0.18160983731560       21.82348714903766
C            0.58318794287800        1.70309555151563       21.20957546117330
C            1.37164113915536        2.86765342755903       21.56361871182309
C            1.86823772038595        3.35728571171762       20.38456221328934
C            1.36765028015930        2.49521631593079       19.34484995082983
C            1.62444583750274        2.68385232749845       17.99790043098994
H            2.22820482119372        3.53440123083606       17.72102204392855
C           -0.48128326398942       -0.89891523126612       15.59022219217774
H           -0.54421457498292       -1.18761292822454       14.55200500572963
C           -2.17188110443222       -2.68087627840373       19.72174081224734
H           -2.76596252422892       -3.54044718200070       19.99147347246216
C           -0.11442214347062        0.93993686272355       22.12598073599723
H           -0.06703308256690        1.23965569847767       23.16175754291313
C            2.24452977999988        3.25324008953259       15.06201793368586
H            3.25573074391112        3.23286818730374       15.46964013753941
H            1.78379779114748        4.19883266780614       15.34782931955913
H            2.31223856142953        3.21927238166957       13.97738027117383
C            0.81195664327729        0.83360118846429       13.43139299323042
H           -0.21717500331334        0.81399697950508       13.07264594581430
H            1.26900258691704       -0.12910404669677       13.19933541981141
H            1.34943918897073        1.60648907532481       12.88758301255748
C            2.79862579515721        4.50062286245716       20.17585126029637
H            2.25424006652940        5.39418922707594       19.86555432087152
H            3.52898361254574        4.26586467231692       19.40300155760740
H            3.32815263687457        4.72476203943461       21.09972668263282
C            1.57633000859629        3.34539608212138       22.91287615363572
H            1.60212338265339        2.58157193430859       23.68184167238680
C            1.72191117621863        4.61816744082054       23.26724094752481
H            1.65727726419216        5.42221001612530       22.55516947236182
H            1.88575617165599        4.90190900920266       24.29364721858227
C           -1.54505777859021       -0.72002507262028       24.27647836709099
H           -2.27020186118043        0.04923927480920       24.54824154698307
H           -0.56146445053908       -0.38323746550568       24.60109846200469
H           -1.79456538171279       -1.63262601428768       24.81392552502975
C           -2.94643929952190       -3.09797681520078       22.63870225375408
H           -2.83284438477660       -4.04336779492229       22.12068942050244
C           -3.79226277429521       -3.02240640049907       23.66113359685842
H           -3.98156876922372       -2.09982462810242       24.18179462838144
H           -4.34785547479559       -3.88213672774292       23.99737036801328
C           -3.05586623345570       -4.68531733481140       17.59311549887178
H           -3.23124116219739       -5.22066074939369       16.66313001442587
H           -4.02226541091068       -4.44124887841616       18.03525970521931
H           -2.52943436512628       -5.35031189764095       18.27826771443214
C           -1.92032656859696       -3.47829231643731       14.79654935865799
H           -2.46845755768363       -4.41721673690347       14.79634188011958
H           -0.93903251233412       -3.65376292053769       14.35469292677969
H           -2.45404472637385       -2.77005664199428       14.16201600023711
C            4.16542224109511       -2.64136049676190       20.84269767330100
H            5.14710984200065       -2.32502030561912       20.49016222194344
H            4.14377719900668       -3.73103296116102       20.85852756426848
H            4.02504099627364       -2.27589053057925       21.85509952381345
N            3.01412072714970       -2.39981014600276       18.63148575729095
H            3.65107044083469       -2.98873162051413       18.12050979840718
C            3.09261701241079       -2.10499577750601       19.96753519372632
C            1.93311710711121       -1.75906668978654       18.13326639829839
H            1.62459323074891       -1.80736593559986       17.10953244207223
N            1.32316240783245       -1.07736353079726       19.07155113234375
C            2.03202693799945       -1.28240381037977       20.21789031501631
H            1.73515612243583       -0.82819109190852       21.14003715930415
C           -4.18097890044378       -0.00741778361603       17.17703694319826
H           -5.07084447117385       -0.63227430437511       17.22070139129737
H           -3.38489305734087       -0.56854979200934       16.69679770522633
H           -4.39625940922162        0.87105451445740       16.57334535136113
C           -3.76507467747718        0.40286112249915       18.57626294015513
H           -3.55540543102762       -0.46641929214871       19.19730904323423
H           -4.53618694593637        1.01507891045236       19.04399531764142
S           -2.24156108015096        1.43167581688970       18.50879681365467
C           -2.50214183051202        2.36196065856081       20.05007130554894
H           -2.57419124789603        1.67509079638188       20.88726984288190
H           -3.40544313408615        2.95896009830161       19.95520511192310
H           -1.64137044372448        3.00850628696206       20.17993442242256
