78
 energy: -115.851186604568 gnorm: 0.326647663614 xtb: 6.7.1 (edcfbbe)
Fe          -5.60500000000000       57.02199999999999       20.80500000000000
N           -6.45300000000000       56.18300000000000       22.35400000000000
N           -6.48700000000000       58.71699999999999       21.41100000000000
N           -5.12400000000000       57.99699999999999       19.16500000000000
N           -4.55300000000000       55.34499999999999       20.55100000000000
C           -6.06400000000000       54.92600000000000       22.79600000000000
C           -6.65100000000000       54.69600000000000       24.10600000000000
C           -7.34400000000000       55.78699999999999       24.43300000000000
C           -6.98700000000000       56.81699999999999       23.47100000000000
C           -7.33600000000000       58.84600000000000       22.48000000000000
C           -7.87700000000000       60.18899999999999       22.48000000000000
C           -7.46500000000000       60.75900000000000       21.36300000000000
C           -6.76200000000000       59.78800000000000       20.58299999999999
C           -5.10200000000000       59.35999999999999       18.92800000000000
C           -4.39600000000000       59.57300000000000       17.68200000000000
C           -3.62300000000000       58.52000000000000       17.51700000000000
C           -4.18300000000000       57.45900000000000       18.33500000000000
C           -4.03600000000000       55.18800000000000       19.27000000000000
C           -3.76600000000000       53.77500000000000       19.06300000000000
C           -4.33000000000000       53.10900000000000       20.07300000000000
C           -4.94600000000000       54.07999999999999       20.95600000000000
C           -5.75200000000000       53.81400000000000       22.03700000000000
H           -6.11200000000000       52.81800000000000       22.27400000000000
C           -7.23200000000000       58.14700000000000       23.65500000000000
H           -7.33400000000000       58.60499999999999       24.63200000000000
C           -5.89700000000000       60.24800000000000       19.61000000000000
H           -5.84500000000000       61.31200000000000       19.38400000000000
C           -3.76000000000000       56.13300000000000       18.31200000000000
H           -3.15800000000000       55.81699999999999       17.46000000000000
C           -8.15000000000000       56.00100000000000       25.72700000000000
H           -7.46000000000000       56.28100000000000       26.55200000000000
H           -8.67600000000000       55.06200000000000       26.00100000000000
H           -8.88600000000000       56.81999999999999       25.57900000000000
C           -6.68000000000000       53.30100000000000       24.77000000000000
H           -5.71700000000000       52.78000000000000       24.57999999999999
H           -7.50700000000000       52.69700000000000       24.33900000000000
H           -6.82100000000000       53.41000000000000       25.86700000000000
C           -8.62400000000000       60.85200000000000       23.65900000000000
H           -8.52700000000000       60.21600000000000       24.56500000000000
H           -9.70100000000000       60.95900000000000       23.40800000000000
H           -8.18200000000000       61.84899999999999       23.87000000000000
C           -7.91300000000000       62.09999999999999       20.79200000000000
H           -7.30800000000000       62.65400000000000       20.06000000000000
C           -9.06900000000000       62.59300000000000       21.20400000000000
H           -9.35800000000000       63.62400000000000       20.95100000000000
H           -9.75600000000000       61.97800000000000       21.80500000000000
C           -4.11500000000000       60.93600000000000       16.98600000000000
H           -3.03000000000000       61.16800000000000       17.04800000000000
H           -4.68500000000000       61.74199999999999       17.49500000000000
H           -4.41000000000000       60.87899999999999       15.91600000000000
C           -2.51300000000000       58.27399999999999       16.50300000000000
H           -1.70100000000000       57.56900000000000       16.73400000000000
C           -2.49000000000000       58.89100000000000       15.32800000000000
H           -3.28300000000000       59.60400000000000       15.05600000000000
H           -1.67800000000000       58.69700000000000       14.61200000000000
C           -2.99700000000000       53.19200000000000       17.88100000000000
H           -2.03900000000000       53.74000000000000       17.75500000000000
H           -3.59800000000000       53.29900000000000       16.95300000000000
H           -2.77600000000000       52.11999999999999       18.06900000000000
C           -4.34700000000000       51.56700000000000       20.28200000000000
H           -3.31600000000000       51.16700000000000       20.17700000000000
H           -4.99700000000000       51.09200000000000       19.51700000000000
H           -4.72300000000000       51.33000000000000       21.30000000000000
O           -4.44700000000000       57.50699999999999       22.14100000000000
H           -3.88800000000000       56.74500000000000       22.29500000000000
H           -4.40300000000000       58.28600000000000       22.56700000000000
C           -9.13500000000000       55.12700000000000       16.86600000000000
H           -9.45000000000000       55.89800000000000       16.13000000000000
H          -10.03400000000000       54.58100000000000       17.22300000000000
H           -8.43400000000000       54.42199999999999       16.37100000000000
N           -9.13600000000000       56.70799999999999       18.76900000000000
H          -10.08100000000000       57.00200000000000       18.62800000000000
C           -8.45900000000000       55.78399999999999       18.01300000000000
C           -8.31300000000000       57.11300000000000       19.68600000000000
H           -8.57300000000000       57.85199999999999       20.44300000000000
N           -7.11000000000000       56.48899999999999       19.55800000000000
C           -7.19800000000000       55.63500000000000       18.49400000000000
H           -6.37000000000000       55.01200000000000       18.18400000000000
78
 energy: -115.955391836129 gnorm: 0.147435982197 xtb: 6.7.1 (edcfbbe)
Fe          -5.66877524077819       57.01971708325424       20.81438890971475
N           -6.43524128407436       56.17061339775182       22.38575903299730
N           -6.54369544951237       58.70510759542606       21.36993339956400
N           -5.05366098509478       58.00343069598291       19.19759056608469
N           -4.61073076673173       55.34095481325122       20.49751638809202
C           -6.12546634328789       54.90298069493827       22.80222550292869
C           -6.68110096391584       54.66143532376328       24.11374951187729
C           -7.32113685959223       55.78903148535211       24.48264885624462
C           -7.00084813762990       56.78683441165819       23.48220970290838
C           -7.30546215660448       58.89460537366153       22.48228377168407
C           -7.87245299611371       60.21764381580692       22.51876973542234
C           -7.50079011718939       60.79051297241175       21.34466321493401
C           -6.72702910196021       59.83070294369155       20.61009762175104
C           -5.12105716205622       59.34763447957963       18.88869230854599
C           -4.34356906084592       59.60756195615975       17.69525763300931
C           -3.61403595521779       58.48831690555924       17.47150805954661
C           -4.14627162355277       57.46112925267905       18.34893473970780
C           -4.02001630347217       55.17219445962520       19.26785118107720
C           -3.75594587160699       53.76185000294620       19.04953596090806
C           -4.33367783637210       53.08576953977091       20.06644497561382
C           -4.93213239581787       54.07310958340100       20.93754956960052
C           -5.73375759982998       53.81937145413931       22.02505366067721
H           -6.07678496863844       52.82427565511897       22.27305190574493
C           -7.23810425615803       58.12906371009310       23.64122112063147
H           -7.36565443064313       58.57768245281198       24.61866250630383
C           -5.89712657739018       60.24240423144266       19.58414133192585
H           -5.84716561764043       61.29954455821507       19.36175243336602
C           -3.74251960666065       56.13307453503152       18.32050415794042
H           -3.15971671785374       55.81884737182074       17.46288710470365
C           -8.14274900152848       56.00664578769290       25.72870108319613
H           -7.47106035904187       56.28053758592529       26.55111333665971
H           -8.66807061759300       55.08086929807908       25.99540580152408
H           -8.87521883551065       56.80922186035566       25.58123426916257
C           -6.68004840535801       53.30328868573749       24.77256206179832
H           -5.73054488796674       52.78764255497143       24.58394404082446
H           -7.49775863291971       52.70342347477506       24.35216898879995
H           -6.82017931001302       53.40677588262006       25.85408014303897
C           -8.62263288871191       60.84505193792037       23.66614900055617
H           -8.53031183532655       60.22552595835806       24.56206684844689
H           -9.68761824233489       60.95005330175393       23.42652955893426
H           -8.19612389510375       61.83623220073812       23.86429070572247
C           -7.92181220115717       62.10019471463283       20.80219260754555
H           -7.30345886544116       62.64009890481177       20.08488354471419
C           -9.07781391213621       62.60619939426716       21.19906503337215
H           -9.37189639960488       63.61601494855039       20.93833605288281
H           -9.75532203628962       62.01017446776120       21.79690519659575
C           -4.11743520098084       60.93953260044348       17.00135502708075
H           -3.04539397104730       61.16895909560550       17.04447859501651
H           -4.68092789035257       61.73833607443465       17.49047307378850
H           -4.41721145649322       60.88734992770911       15.94576531318292
C           -2.52769809563792       58.26610162274336       16.49171516330629
H           -1.72417456560412       57.57366902110573       16.74541518377537
C           -2.48454078069910       58.89144947989482       15.32382457505275
H           -3.26453870978109       59.58625510186521       15.03985836692983
H           -1.68475124709703       58.70323178893477       14.61521322499369
C           -2.99661358535808       53.19419193059306       17.88331241457033
H           -2.04909730997653       53.73217591591854       17.75379835967057
H           -3.58674946573747       53.29452898410145       16.96300724670346
H           -2.78035859931353       52.13492677845757       18.06224362643511
C           -4.34736776589151       51.57985832108918       20.28240745942242
H           -3.33181533373183       51.17511328179008       20.17927289297382
H           -4.98814849268033       51.09956636492132       19.53124934514381
H           -4.71837299916610       51.33468126258247       21.28367597365295
O           -4.39701379853039       57.51563034223403       22.11475798552705
H           -3.86169059880920       56.74591584273592       22.31695739360967
H           -4.37056582576769       58.31934417351507       22.59965086606208
C           -9.14109518603158       55.12031693168962       16.85227577478984
H           -9.45233260449427       55.88270090574266       16.12696093910138
H          -10.02755875244309       54.57957449347060       17.20680684319192
H           -8.44746140525220       54.42527755425711       16.37137340248425
N           -9.13585300959478       56.69682634287425       18.75684120417603
H          -10.08423776325891       56.99740290587367       18.61841277524888
C           -8.47044788035285       55.77453323280466       17.99599251700950
C           -8.29880261531810       57.10753705838262       19.69675327600118
H           -8.55560358396029       57.84030447926207       20.44269021779622
N           -7.12803687645502       56.48806395784671       19.58013862416090
C           -7.21454557885045       55.64829278345105       18.50670921567477
H           -6.38701233905360       55.02999972937462       18.19709998618686
78
 energy: -116.003662166060 gnorm: 0.062975162759 xtb: 6.7.1 (edcfbbe)
Fe          -5.71778930215708       57.02718810296311       20.81878521665052
N           -6.41914544400380       56.16133847065520       22.41358550966909
N           -6.58864155448222       58.70205120090196       21.35180353811199
N           -4.99482654106773       58.00671577539710       19.22167311209411
N           -4.67675929172982       55.33597972693167       20.43444374271727
C           -6.19725062891574       54.87927034624257       22.79785015593760
C           -6.72191018850801       54.62748874805427       24.11020026375980
C           -7.29924090138899       55.78996671797660       24.52365748596129
C           -7.00766081027817       56.76000395325119       23.49643144002776
C           -7.25680085747423       58.94922427176451       22.51863109515567
C           -7.87184724919000       60.23930018278879       22.51692357089061
C           -7.52346506123947       60.81672041968611       21.31631037076799
C           -6.68936516182782       59.86292632469181       20.63805542030142
C           -5.11918604478185       59.32884008315106       18.86554256678939
C           -4.30051041862564       59.62441004092982       17.71143829333210
C           -3.61144291305497       58.46311318043539       17.43527466713566
C           -4.10822756299727       57.46552870347011       18.36598293082703
C           -4.01631037343262       55.15679571167510       19.25814777488419
C           -3.74417252259834       53.75214619146162       19.03927217971887
C           -4.33311120926109       53.07059151007977       20.06075032169161
C           -4.93573353086650       54.07271047973496       20.90622715125463
C           -5.71803674039982       53.83091303363441       22.00886283782640
H           -6.02137447209935       52.82973675073567       22.28005690675450
C           -7.24713479281118       58.10802067756880       23.63600824957965
H           -7.42128591944676       58.53995543479308       24.61151316216597
C           -5.89710645936246       60.22604484460786       19.55865579632698
H           -5.86216306907102       61.27809155734887       19.32243210430367
C           -3.72126422899285       56.13499362253252       18.32793252399734
H           -3.15247396033398       55.82299981467857       17.46519714413032
C           -8.12698044430851       56.01151170590329       25.73682482653439
H           -7.48256956332343       56.28496801694715       26.56985036669388
H           -8.65846650973271       55.09647355499835       25.99473471774006
H           -8.85848339171186       56.80080265939925       25.58093192841356
C           -6.68849253529381       53.30183070180209       24.77519499538959
H           -5.74389681384059       52.79554311695318       24.58813037431934
H           -7.49435465590359       52.69081980044212       24.36900771925941
H           -6.82379631060079       53.40170046122614       25.84763832533590
C           -8.61636595173455       60.83746114452463       23.65668125754681
H           -8.52769747226252       60.23335957138153       24.55363418975114
H           -9.67826552538854       60.93942378788772       23.44087926302447
H           -8.21413394907548       61.82986634720884       23.86067913029279
C           -7.93080328000722       62.09798259752782       20.81194739624598
H           -7.29540250215024       62.62666418356492       20.11184681655099
C           -9.08852909230883       62.62599490253849       21.19376764726403
H           -9.38971087688800       63.61727381238753       20.91691920819597
H           -9.76254526891186       62.04970189122225       21.79446078765571
C           -4.11864246774664       60.93434822439646       17.02362467800329
H           -3.05628412233777       61.17981554975258       17.03806126623300
H           -4.67772371186684       61.73130786559534       17.49914677056780
H           -4.42937316532554       60.89006947136368       15.97866780356465
C           -2.54613119027988       58.26283124702336       16.48396792065733
H           -1.75507438540827       57.57165051733001       16.75610561681847
C           -2.48079260709041       58.88941348947036       15.31479178538593
H           -3.24939628399228       59.57269471339060       15.01517801293452
H           -1.68128070665087       58.71324206607369       14.61836611963174
C           -2.99398841279911       53.19469241758942       17.88420190316628
H           -2.05426688470668       53.72666877522823       17.74918758864693
H           -3.57652864309523       53.29035326263892       16.96781923198114
H           -2.78090435169069       52.14292822686117       18.05328363559923
C           -4.34715904900469       51.59445798231763       20.28059799705602
H           -3.34253866777001       51.18297290990590       20.17940412978120
H           -4.98230203840907       51.10550619462521       19.54071648562894
H           -4.71633261552124       51.34316937514124       21.27056093222249
O           -4.30212276291000       57.55092413789063       22.06012650271824
H           -3.83113932112421       56.75823741163737       22.36637414043840
H           -4.34170737834079       58.32505847392566       22.64552420254845
C           -9.14405667107205       55.11452616887836       16.83887736353366
H           -9.45591641263206       55.86738491556009       16.11800361775267
H          -10.02344248616288       54.57575143443717       17.18734646608186
H           -8.45784222469344       54.42417909190574       16.36620086106707
N           -9.14110169525592       56.68870191546460       18.74610395131098
H          -10.09002065311031       56.99517935747394       18.60791343728336
C           -8.47883550819127       55.76933453757308       17.98405901758814
C           -8.29810062105308       57.09962761223991       19.71025005465646
H           -8.55478874475334       57.82901959625624       20.44493100687649
N           -7.14683887518455       56.49499775451563       19.60674582668198
C           -7.23033467762721       55.66192612534671       18.52810344143923
H           -6.40430131035261       55.04958504413332       18.21598374916638
78
 energy: -116.023415368728 gnorm: 0.071913959960 xtb: 6.7.1 (edcfbbe)
Fe          -5.71934246764992       57.04082824919134       20.82349553698188
N           -6.40439724363899       56.15366269002465       22.42795212861554
N           -6.59538057897799       58.71727574691629       21.35211677297205
N           -4.95022267106518       58.00797445804166       19.23905385906853
N           -4.73387472592944       55.32866975820473       20.37730484300016
C           -6.24143497359437       54.85576341569885       22.78690200471070
C           -6.75704626513746       54.60446370435738       24.10085377416450
C           -7.28644805512011       55.78637956804632       24.53982727214102
C           -7.00729847061613       56.74588076404329       23.50177487112564
C           -7.23720907866413       58.96937561630357       22.52909460815524
C           -7.85197018689745       60.25354777322802       22.53225380429506
C           -7.52230164979535       60.83176231566978       21.31923337428197
C           -6.66950381852866       59.88162398501997       20.65296641097018
C           -5.10351245385916       59.31669719844446       18.86491363525032
C           -4.27936871385272       59.62213182612948       17.72340696860174
C           -3.60327228804947       58.45657913788582       17.42529589162387
C           -4.07035317792206       57.46781501628873       18.37812346718098
C           -4.02343733162401       55.14762686222347       19.23457088918196
C           -3.73921683017651       53.74659546996792       19.02679975623506
C           -4.33590205084403       53.06856585618266       20.04823149993207
C           -4.96138053852066       54.07408193408989       20.87184892804151
C           -5.71511870797402       53.83374145288740       21.99489109368116
H           -5.94988873684021       52.81944496084841       22.29785334684241
C           -7.26963274623492       58.09216097532970       23.61855641055687
H           -7.51451526283729       58.50235509402388       24.59321746021745
C           -5.90440948479576       60.21204160482323       19.53997110052982
H           -5.89699831082780       61.25578553509325       19.26116125630604
C           -3.69305267698934       56.13590192938835       18.32549466702126
H           -3.12256999857548       55.82804537176576       17.46385163589749
C           -8.10991652078324       56.01767583083242       25.75298774283562
H           -7.48855388806759       56.29603048996945       26.60306446537682
H           -8.64946468263139       55.10731153848117       26.00637746374396
H           -8.84041981783053       56.80386703268602       25.58226170940802
C           -6.70700359371531       53.28852840161827       24.78148056092457
H           -5.75499308249156       52.79672265423649       24.59574566604542
H           -7.50288315211946       52.65279316223392       24.39299320336425
H           -6.83530577722651       53.39764890320079       25.85325160705985
C           -8.61418078389885       60.83866012460971       23.66569800435906
H           -8.51236863381870       60.23572775959351       24.56137277250915
H           -9.67925821055698       60.91813878137191       23.45616200824179
H           -8.23757487471543       61.84186130287357       23.86776138828422
C           -7.94039692707669       62.10819732286934       20.82348872288557
H           -7.28779778529174       62.62552458126054       20.13244517782049
C           -9.09923167566777       62.65697674957286       21.18470637558703
H           -9.40603518243250       63.63633936225082       20.87232864304975
H           -9.78503187876578       62.10233897793351       21.79207334646679
C           -4.12154672797838       60.93527488336448       17.04422678250245
H           -3.06190091736374       61.19934012422126       17.02846050071905
H           -4.67826633291210       61.72723601640355       17.53096027613941
H           -4.45874544334206       60.89390212912582       16.00840064544604
C           -2.55209432774679       58.25610984362682       16.46792657996621
H           -1.77453459226497       57.55693979406551       16.75269621763399
C           -2.46860730590873       58.88223792108257       15.29760610159806
H           -3.23630626095667       59.55661049502504       14.97522307955829
H           -1.65657196681648       58.71696405031712       14.61522492083027
C           -2.98447139392211       53.18998604147079       17.87780650782216
H           -2.04628584641448       53.72201018693348       17.74044999725454
H           -3.56554379267166       53.28481744991149       16.96117277610988
H           -2.77349655299214       52.13822266837114       18.04280265008544
C           -4.34662346302544       51.59984925434559       20.27896685555081
H           -3.34340414278479       51.18720290695070       20.17972439002208
H           -4.98172547929311       51.10471224401400       19.54405613154025
H           -4.71756940541810       51.35271141104995       21.26820243570660
O           -4.18571363332014       57.59568344836809       22.00478467816389
H           -3.80560532236553       56.77568931521292       22.42631233662696
H           -4.30581143710241       58.31626350220622       22.68579939884730
C           -9.14116802964712       55.11023957724475       16.83040160621754
H           -9.45632862056805       55.85453144149794       16.10258373504417
H          -10.02182649305001       54.56629428891713       17.16667138263252
H           -8.45659391690382       54.41830798143166       16.35837247971540
N           -9.15901596995205       56.68685935388926       18.74145171541777
H          -10.10563569164329       56.99455715686599       18.59413506115537
C           -8.48594386634713       55.77030035400490       17.98433494962725
C           -8.32503625936907       57.09718054265135       19.72375831032791
H           -8.58595906451171       57.82621408441546       20.45526576511396
N           -7.16960289127651       56.50024701104890       19.63720971372103
C           -7.24515746096098       55.67129185111213       18.55285871794328
H           -6.41743142854222       55.06609142514183       18.24193717541495
78
 energy: -116.036142121092 gnorm: 0.044461483669 xtb: 6.7.1 (edcfbbe)
Fe          -5.71197688025350       57.04759728032351       20.83142866093316
N           -6.39627461452236       56.14151889502211       22.44406516852311
N           -6.59192649121676       58.73523823744588       21.36089609019997
N           -4.91033215698116       58.00610268650481       19.26045543311964
N           -4.78378462587857       55.32247197137291       20.32530512570725
C           -6.27159402509600       54.83195709521731       22.78025524945316
C           -6.79234739043011       54.58343003161453       24.09442491000410
C           -7.28207878837897       55.77598170985961       24.54943303999588
C           -7.00453370348422       56.73444499039628       23.51120965654551
C           -7.22765397566856       58.97680035121760       22.53890694873503
C           -7.83613593555235       60.26510198623088       22.54795145484000
C           -7.51573029158453       60.84439816202698       21.33427795096503
C           -6.65685432419600       59.89679036422560       20.66438720005876
C           -5.08325440036704       59.30546227001443       18.87773267787253
C           -4.26419193613394       59.61527908695091       17.73721250703273
C           -3.59276454687463       58.45740214946263       17.42629790466307
C           -4.03383757827748       57.46867221636852       18.38954841618827
C           -4.03523073976621       55.14199008366113       19.20766468327625
C           -3.73751194106871       53.74299704205587       19.01453843950280
C           -4.34113271951963       53.07191271297713       20.03425803022950
C           -4.99164208754072       54.07840588190930       20.84003020842387
C           -5.71214474870114       53.83545796720608       21.98772256200653
H           -5.87191336459729       52.80996560734211       22.31704540453001
C           -7.29861000888175       58.07709720097388       23.60336282080476
H           -7.62321717199956       58.46110094430256       24.57199369364400
C           -5.91480281225162       60.19772790283972       19.52782937352914
H           -5.94322162839154       61.22858143148035       19.18989206269302
C           -3.66346092992965       56.13655494094399       18.32085105920076
H           -3.07896000094951       55.83530897914622       17.46626060457933
C           -8.09578142113943       56.02120882930955       25.77170675783787
H           -7.48618498599554       56.30740244239921       26.62954072973094
H           -8.64126619350495       55.11490800262845       26.02825423472299
H           -8.82310676092839       56.80927888915875       25.58777507470965
C           -6.73144989627587       53.27051435957988       24.78970509377129
H           -5.76900537574720       52.79386134408064       24.60824876606318
H           -7.51620575797100       52.60892736181860       24.41754246899719
H           -6.85580451539307       53.39419650133939       25.86186088328680
C           -8.61463681065510       60.84403527331761       23.67739055481445
H           -8.49443490341694       60.24703666481858       24.57683541219503
H           -9.68290338536465       60.89080143710952       23.46493569713911
H           -8.26737610958303       61.86018734187270       23.87392930556204
C           -7.94676158812174       62.12387034391645       20.83650329546727
H           -7.27825014966371       62.63001124310519       20.15130044309631
C           -9.10812833301803       62.68768359213956       21.16929872758734
H           -9.41531514930022       63.65751650904939       20.81760913267556
H           -9.80775239703889       62.16237425350243       21.79391700556632
C           -4.12546899318188       60.93711521436343       17.06378593871844
H           -3.06856778231938       61.21578408002113       17.01930524047286
H           -4.67563001259099       61.72197627098775       17.57442209185250
H           -4.49384512934020       60.89740824071919       16.03746037669460
C           -2.55250557560594       58.25055851094186       16.45121163077364
H           -1.78748970864885       57.54101644000508       16.74397339703069
C           -2.45572637948569       58.87338799961169       15.28010383543254
H           -3.21758647103867       59.54953048868109       14.93849465188282
H           -1.63100399201351       58.71162646849259       14.60969522802058
C           -2.97255486795843       53.18394411553840       17.87003161377486
H           -2.03343238924659       53.71622669678609       17.73293851807559
H           -3.55119767857334       53.27863393151908       16.95035986061933
H           -2.76225195661547       52.13074732957171       18.03296024344001
C           -4.34711595027032       51.60284731731139       20.27632843142526
H           -3.34254512775545       51.19216046045130       20.17921772271237
H           -4.98362689112747       51.10088184072664       19.54603110023993
H           -4.71830272531980       51.36335463993854       21.26828867202802
O           -4.11546859040365       57.60675615276948       22.01067072533496
H           -3.72204656235730       56.83273069538934       22.40175451531493
H           -4.22944118800999       58.30609525751409       22.67511822543437
C           -9.13591882073780       55.10683635800477       16.82302617815214