78
 energy: -116.058077901729 gnorm: 0.000112541448 xtb: 6.7.1 (edcfbbe)
Fe          -5.65088699426798       57.01589087205914       20.79702084662739
N           -6.40706184128028       56.08748903562335       22.41613232137185
N           -6.51537265519319       58.73560065891832       21.39745893034947
N           -4.85601870339711       57.95769221325584       19.23085322790897
N           -4.75769980915435       55.32165484423036       20.24995051421984
C           -6.27730429290311       54.77257878970640       22.73723031092852
C           -7.00104844861846       54.46857173313805       23.95042734574681
C           -7.57710623862668       55.63289333645950       24.35552292256920
C           -7.20017031944882       56.63197895464498       23.38150252940869
C           -7.29407320669389       58.92477054363786       22.50096397177452
C           -7.77714704894673       60.27872441926726       22.56104818206507
C           -7.28367114018591       60.91362883611308       21.45055596067726
C           -6.49109689708233       59.92739327324146       20.74448624068891
C           -5.04122479239693       59.25886768927611       18.87861487995145
C           -4.32229083780052       59.57072057568650       17.66824028449135
C           -3.69210935187870       58.41641368171539       17.28853177861867
C           -4.04062526683801       57.42444233532257       18.28856073195076
C           -3.96294977389207       55.13619290015617       19.16507398616936
C           -3.51318123744968       53.76233541369039       19.08659618788066
C           -4.06060109354946       53.12190872964832       20.15265291174669
C           -4.83543032088653       54.11418745509981       20.86747425946013
C           -5.54505677837653       53.84395331977861       22.02136959434508
H           -5.52429529559023       52.83187614555646       22.39537352404053
C           -7.60901911407760       57.95056342659627       23.43492609215043
H           -8.24563379834061       58.23798478126482       24.25776959545795
C           -5.81521702137175       60.17626524241192       19.56593552162566
H           -5.89864270878527       61.16666140408682       19.14559828468481
C           -3.62259486339908       56.10741896228944       18.24357917769465
H           -2.98593599403687       55.81203865881014       17.42351043633691
C           -8.43279899238040       55.89949814780060       25.54663493296263
H           -7.97828807927990       56.65808381978083       26.18455699070913
H           -8.56828603838340       54.99541417014886       26.13497963741992
H           -9.41576768044887       56.26029607839539       25.24198349886441
C           -7.05726143754666       53.11888662704278       24.57952575719644
H           -6.05651832943167       52.77869034036182       24.84683333796970
H           -7.48709658968723       52.39266574864220       23.88937258213391
H           -7.66486185457441       53.13623294305796       25.48103787221034
C           -8.59014782647827       60.85136089635856       23.66971959609800
H           -8.27763488342487       60.44198730790036       24.62936180938750
H           -9.64953253890587       60.62518497102741       23.53571918902001
H           -8.47209471820922       61.93270462968546       23.69787084330054
C           -7.45133652569585       62.28824730510642       21.03481955812794
H           -6.60709364304292       62.72600879323432       20.51493072499279
C           -8.53791695904736       63.02802526880000       21.23163305431116
H           -8.58718755769020       64.05363854076140       20.90536895586140
H           -9.42379874539533       62.63409062405574       21.69841632317668
C           -4.24586048446006       60.91768116584310       17.03854666203081
H           -3.36846387450781       60.98062380756881       16.39818778182497
H           -4.17832890676465       61.69490142869970       17.79834997569464
H           -5.13108459452016       61.11506180137258       16.43151989317521
C           -2.82207561591862       58.17707036635277       16.15830810804087
H           -2.01915248078711       57.46910753644340       16.32807740912205
C           -2.93997342828948       58.74244590025652       14.96123647158407
H           -3.74472810762628       59.41584633410690       14.72260301711820
H           -2.24484376461757       58.52902748080808       14.16611900575270
C           -2.62129695469988       53.22969342395044       18.01825373252912
H           -1.66826301176156       53.75890060957347       18.01784502025784
H           -3.07881753082977       53.35662259420856       17.03669559745082
H           -2.42468286363623       52.17119982187126       18.17006466747729
C           -3.93218734177975       51.69627309332068       20.56749341438453
H           -3.30383973565678       51.14614902999821       19.87142191493533
H           -4.91072769634865       51.21645508359392       20.59953771370300
H           -3.48777871497925       51.62464199543904       21.56045356616442
O           -3.87976545712823       57.59809026079638       22.13409739664072
H           -4.06997016574446       57.04467796429095       22.89950690058549
H           -4.13843629022216       58.49734566559065       22.36373191835780
C           -9.20817842976425       55.39932539276944       16.82144764924541
H           -9.85948534118926       56.15562591266982       16.38358709601381
H           -9.79921469686424       54.50033104757869       16.99622629543810
H           -8.42042520405002       55.16573461405918       16.11221789084171
N           -9.36455445504983       56.26740640319206       19.16520596793461
H          -10.37017383471159       56.25430118776857       19.21126688359114
C           -8.60720501041630       55.89021100487707       18.08729894509516
C           -8.51794409445268       56.65998306926161       20.14338018158070
H           -8.83263100504960       57.00828770623424       21.10526468031913
N           -7.27176285043478       56.55406145846421       19.75089840434645
C           -7.31083233664830       56.07609998837236       18.47382072646349
H           -6.41022747698887       55.90010240683452       17.92260989762376
