72
 energy: -105.980605723420 gnorm: 0.000082065705 xtb: 6.7.1 (edcfbbe)
Fe          12.67485406509616       44.86932968541576       36.72172042057257
N           13.49965645030914       46.67028933902362       36.53940143630934
N           14.29877629504626       44.22800172872486       37.72777560888184
N           11.87585717400202       43.02125562541558       36.85856414695994
N           11.10370842167571       45.46457293657817       35.65575211348397
C           12.94862387663484       47.75876443101754       35.94762391469256
C           13.84266877249798       48.89442731552099       36.02805233501797
C           14.95677489094163       48.45727181795451       36.67120148189041
C           14.72277199598241       47.06332708438499       36.98325351249835
C           15.42272560774481       44.94622381972517       38.00728564420517
C           16.36602970875973       44.15237804507301       38.74849938880405
C           15.78348482051324       42.92420990240963       38.92478091001505
C           14.49598550676432       42.99344747624786       38.26518299145756
C           12.38342168053810       41.95993020880388       37.54834751653240
C           11.50097642083421       40.82651762859462       37.46232478719707
C           10.43955142224134       41.22253420510749       36.69140275805929
C           10.69053247193534       42.60520263977030       36.34254748495439
C           10.03848249218227       44.71376952644196       35.27403403082183
C            9.09629927160613       45.50998366190687       34.51612226018800
C            9.61396699789961       46.76488621254830       34.46533802782618
C           10.87156869866803       46.71390043779448       35.18021296599800
C           11.71598925029006       47.79594587516537       35.32522658051979
H           11.40176342818406       48.73513822710922       34.89730731538171
C           15.62804212946593       46.27020559623693       37.65813798106804
H           16.56319934803162       46.72159269892570       37.95060362140644
C           13.59797397732169       41.94433093523669       38.21146783730067
H           13.87600186129277       41.02898931873696       38.70971187630175
C            9.84145384985973       43.38063392015012       35.57553060352551
H            8.94266439925606       42.91564624816041       35.20221183327726
C           16.20041435108708       49.19911633808928       37.02127889821199
H           16.14182183898160       50.23106065395852       36.68474171543937
H           17.06754797578260       48.73451188221618       36.55169521381900
H           16.35844764701368       49.19839033073328       38.10021270255579
C           13.53545103513185       50.24484534978956       35.47968870440830
H           12.62259931409942       50.64118011710175       35.92466727984719
H           13.39134887035661       50.19431717131677       34.40037319183545
H           14.34642829030894       50.93927037459515       35.68459382631903
C           17.72453527549769       44.60023274217838       39.15937821233772
H           17.68141175306459       45.18480299739081       40.08001034958797
H           18.17479482735049       45.22131904232975       38.38656163325032
H           18.36507603897293       43.73756296254872       39.33081232817078
C           16.30763545458094       41.75089895664784       39.58881354158436
H           16.01461921001436       40.79915267358692       39.16093868144308
C           17.09330644515638       41.76120425456484       40.66033495643603
H           17.37715405284716       42.67394940529200       41.15450298335811
H           17.46009705873901       40.84776614992978       41.09790860631502
C           11.71273400344908       39.52241037615464       38.14757989181842
H           12.14350802263408       39.67169849845247       39.13662387867853
H           12.39103775489255       38.88643642914273       37.57606342077301
H           10.76389133132320       39.00131328999045       38.25602184394791
C            9.26378750030743       40.47540598895979       36.30144923571651
H            8.34968576612091       41.05140597674269       36.22000168635191
C            9.23326446641285       39.17373025229394       36.03676108939527
H           10.11932144832839       38.56332660907031       36.05668791434897
H            8.31768223174319       38.67625287703324       35.76359181332420
C            7.82421301460212       44.98677483869747       33.94432973807618
H            7.16887100097075       44.62553287773692       34.73717924761652
H            8.02136811168149       44.15820834262716       33.26389817654084
H            7.29961344895839       45.76407621329410       33.39457573168238
C            9.06485023085070       47.98976284740192       33.81981945899695
H            8.91733831436697       48.77760562100890       34.55859429275734
H            8.10897536159420       47.78153284045869       33.34584469123052
H            9.75171150223734       48.36221250579840       33.05967647990902
O           13.66701627531864       44.13492743790835       34.85030444031566
H           14.38964086403940       43.61144772112318       35.21529656242461
H           13.00725537111227       43.51592777627613       34.51753568450445
C           12.63166469658768       46.57427647813790       39.66903586625428
H           12.30292478988991       46.59802886874981       40.70346835966414
H           12.49628176255705       47.54804931535049       39.21007515358666
H           13.67054849829962       46.27282863336169       39.59105434589331
S           11.58224144926671       45.40629090866939       38.73460551766063
H           11.96507805790131       44.32524852510075       39.42279126845263
