78
 energy: -115.863103329440 gnorm: 0.747327411052 xtb: 6.7.1 (edcfbbe)
Fe          10.96400000000000       20.34600000000000       36.33400000000000
N            9.78600000000000       21.71099999999999       35.43500000000000
N            9.39600000000000       19.24200000000000       36.77200000000000
N           12.17300000000000       18.90600000000000       37.02500000000000
N           12.54100000000000       21.33100000000000       35.62900000000000
C           10.19500000000000       22.93800000000000       34.93299999999999
C            9.02100000000000       23.71400000000000       34.56700000000000
C            7.93900000000000       22.96300000000000       34.89000000000000
C            8.41800000000000       21.72300000000000       35.42500000000000
C            8.01900000000000       19.55700000000000       36.52400000000000
C            7.12700000000000       18.50600000000000       37.04699999999999
C            7.99500000000000       17.61300000000000       37.63800000000000
C            9.35500000000000       18.11800000000000       37.53099999999999
C           11.81800000000000       17.81300000000000       37.74000000000000
C           13.01700000000000       17.02300000000000       38.15400000000000
C           14.04400000000000       17.66100000000000       37.69900000000000
C           13.53400000000000       18.81700000000000       36.94900000000000
C           13.89800000000000       20.98300000000000       35.71100000000000
C           14.75600000000000       21.95600000000000       35.14000000000000
C           13.95100000000000       22.91600000000000       34.66800000000000
C           12.61300000000000       22.56800000000000       34.95100000000000
C           11.46800000000000       23.32100000000000       34.71200000000000
H           11.61500000000000       24.32100000000000       34.30499999999999
C            7.57500000000000       20.71900000000000       35.85900000000000
H            6.50600000000000       20.83100000000000       35.67700000000000
C           10.45400000000000       17.42400000000000       38.02000000000000
H           10.28000000000000       16.54700000000000       38.64299999999999
C           14.37300000000000       19.77800000000000       36.38300000000000
H           15.44900000000000       19.61900000000000       36.44700000000000
C            6.47100000000000       23.31800000000000       34.75100000000000
H            6.37500000000000       24.33900000000000       34.32300000000000
H            5.98400000000000       23.29900000000000       35.74900000000000
H            5.97200000000000       22.59400000000000       34.07200000000000
C            9.03300000000000       25.13200000000000       33.97599999999999
H            9.96000000000000       25.27800000000000       33.38100000000000
H            9.01000000000000       25.88100000000000       34.79600000000000
H            8.15300000000000       25.26899999999999       33.31200000000000
C            5.68000000000000       18.49500000000000       36.86800000000000
H            5.44100000000000       18.47300000000000       35.78300000000000
H            5.23900000000000       19.41100000000000       37.31600000000000
H            5.24900000000000       17.59200000000000       37.35000000000000
C            7.54700000000000       16.37400000000000       38.45100000000000
H            8.39400000000000       15.74100000000000       38.44299999999999
C            6.81400000000000       15.77600000000000       39.04700000000000
H            5.80500000000000       16.16600000000000       39.24400000000000
H            7.09100000000000       14.78900000000000       39.44499999999999
C           12.94300000000000       15.81200000000000       39.09799999999999
H           12.15600000000000       15.11300000000000       38.74300000000000
H           12.68700000000000       16.15100000000000       40.12400000000000
H           13.91900000000000       15.28200000000000       39.10600000000000
C           15.41400000000000       17.13100000000000       37.78299999999999
H           16.09900000000000       17.26600000000000       38.62700000000000
C           15.73200000000000       16.44000000000000       36.66400000000000
H           15.00400000000000       16.33600000000000       35.84600000000000
H           16.72300000000000       15.97400000000000       36.55800000000000
C           16.27800000000000       21.77800000000000       35.00700000000000
H           16.49700000000000       20.79400000000000       34.53999999999999
H           16.74900000000000       21.81200000000000       36.01299999999999
H           16.69500000000000       22.58300000000000       34.36500000000000
C           14.36100000000000       24.26500000000000       33.99099999999999
H           14.10500000000000       24.23100000000000       32.91100000000000
H           15.45600000000000       24.42000000000000       34.09700000000000
H           13.81100000000000       25.10500000000000       34.46500000000000
O           10.96500000000000       19.25000000000000       34.42400000000000
H           11.60600000000000       19.69100000000000       33.86700000000000
H           10.47500000000000       18.54200000000000       34.20300000000000
C           12.49700000000000       23.60700000000000       40.60600000000000
H           12.12700000000000       23.48300000000000       41.64600000000000
H           12.39600000000000       24.67400000000000       40.31300000000000
H           13.56400000000000       23.30100000000000       40.56400000000000
N           10.29400000000000       22.89399999999999       39.52500000000000
H            9.70700000000000       23.50000000000000       40.06100000000000
C           11.67700000000000       22.73800000000000       39.66900000000000
C            9.93500000000000       22.06900000000000       38.53000000000000
H            8.91000000000000       22.00200000000000       38.16500000000000
N           10.94600000000000       21.37400000000000       38.06600000000000
C           12.02100000000000       21.85200000000000       38.77900000000000
H           13.00800000000000       21.47000000000000       38.54999999999999
78
 energy: -115.999074677391 gnorm: 0.163746086952 xtb: 6.7.1 (edcfbbe)
Fe          10.96832814988643       20.34012402984048       36.32311823171845
N            9.78309071942756       21.71878367846470       35.44695955674381
N            9.37358103170527       19.25640746687091       36.78817140071371
N           12.17727339435694       18.89408758109932       37.03475512058134
N           12.56699788282549       21.33566614293359       35.62584012016695
C           10.18141398367882       22.93265411296785       34.93054387593135
C            9.01784201342404       23.72268656352262       34.56813589943733
C            7.93217780138495       22.96798134762610       34.88611018495664
C            8.42075127742351       21.72433467165905       35.42551113636485
C            8.02789633683099       19.55678690458901       36.51511292010775
C            7.14940943503625       18.51821833170010       37.04299451917457
C            7.99241258439652       17.63004614195978       37.65075460069421
C            9.35380444384467       18.11225457556411       37.52026939925248
C           11.80010775955444       17.80523933621822       37.74989642744645
C           12.98026154934738       17.02359495676600       38.17644474394545
C           14.04665920851939       17.67302031187840       37.70010359354835
C           13.54129168262872       18.83289723095519       36.95758732351461
C           13.89838446269027       20.96625998972746       35.72452530408480
C           14.76428101140167       21.94392087517663       35.13593008544598
C           13.95530688981738       22.93340865799678       34.66580246936551
C           12.61140368303410       22.56479113499849       34.96518304350992
C           11.47365631750258       23.32135551926946       34.71213207908730
H           11.61934900367347       24.31633735429509       34.30266644233863
C            7.58519987742056       20.70714708826215       35.86174651148230
H            6.51775964196983       20.82599947725710       35.68528520812666
C           10.46330052943348       17.43188667473671       38.01384457054617
H           10.28758853441760       16.55647908897374       38.63376970942360
C           14.36207379435195       19.78639298740677       36.37770007272469
H           15.43616699154406       19.62387260369662       36.44167878212192
C            6.47570863508716       23.31900356653148       34.74913309349144
H            6.37304557952068       24.32803250675638       34.32781034284755
H            5.98730503687599       23.29849033061672       35.73541702359122
H            5.97441905796736       22.60281739445336       34.08092886663773
C            9.03519835812825       25.12117829530053       33.97930245248859
H            9.94812559644748       25.27712250615330       33.38733414758151
H            9.00952933944795       25.87212030466029       34.78478807850514
H            8.16518745620113       25.26816294334232       33.32221516441053
C            5.68328762870849       18.49450582901920       36.86735877179753
H            5.43761143821136       18.47388530921714       35.79387166741633
H            5.23837974559700       19.39936479355425       37.31001681764615
H            5.25088061609232       17.60363661592242       37.34473773995613
C            7.63240586900691       16.40493852221476       38.39786187626820
H            8.47210008150931       15.74844933981607       38.40768570366919
C            6.75199178517947       15.74511686934882       39.08521954277244
H            5.76767864711209       16.15273314821002       39.26692407443630
H            7.03539491089774       14.77555932233224       39.47330409323524
C           12.93703394793344       15.81637974036616       39.09074333804476
H           12.16300653309350       15.11763041449797       38.74798617217523
H           12.68993059506833       16.14529240739524       40.11133330584430
H           13.90566845832889       15.29273645649633       39.10410014868332
C           15.41621997143951       17.13690208802061       37.75605960197640
H           16.08439321800888       17.26580276097091       38.61078638233411
C           15.74284089128119       16.44075482205962       36.66758172404035
H           15.02172044363754       16.33528829769004       35.85640031600541
H           16.71712915986443       15.97288291051548       36.55693908490518
C           16.26777176258551       21.77912915954914       35.00817401946200
H           16.49454832357113       20.80658346796743       34.54598817657615
H           16.74396672687801       21.81253931878376       36.00005835618769
H           16.68976913162197       22.57286783198091       34.37528136747147
C           14.35716489705949       24.25234492037237       33.99477226108496
H           14.10685462545906       24.23056702914884       32.92350630481000
H           15.43942823071288       24.41728590244350       34.09668997442270
H           13.82006621116757       25.09234178319704       34.45965802215717
O           10.97600153590903       19.26662825944942       34.43215604415633
H           11.60816634998911       19.68633254723395       33.85413972372111
H           10.46509591151506       18.52278769306704       34.18782871761753
C           12.49037661264317       23.60500156570361       40.60766138900069
H           12.13130917821071       23.48655020979436       41.63896452243380
H           12.39904021553909       24.66216495307463       40.31802109960604
H           13.54685857423071       23.30517941677879       40.56292105230112
N           10.29966737710971       22.89710222378818       39.52605098494153
H            9.70682343804960       23.50299014493193       40.06241985655151
C           11.67493484372089       22.75488944136165       39.67650708557139
C            9.93030928962177       22.06482269126623       38.53202648271787
H            8.91499385161478       21.99805829178842       38.16919832728801
N           10.94565529461750       21.38508791944961       38.05585637696588
C           12.03111522877911       21.83730241539764       38.76846290350554
H           13.01111939721945       21.46202048159740       38.54624408813335
78
 energy: -116.027047540158 gnorm: 0.063436083791 xtb: 6.7.1 (edcfbbe)
Fe          10.96712286801280       20.33385915793699       36.30840609544853
N            9.78227311647026       21.73119324669727       35.46528388694751
N            9.35444626448567       19.26825195119477       36.81401448002563
N           12.17434596410422       18.89675436967224       37.05318840499395
N           12.58794750691759       21.33887170514059       35.63198042736521
C           10.17473462496938       22.92899531894824       34.93419062591688
C            9.01729385782241       23.72421634861625       34.57193658357571
C            7.92828859979153       22.96882396488423       34.88396977982597
C            8.42455357578864       21.72661099185678       35.43183203533899
C            8.03968516783632       19.55349683252018       36.51923364442721
C            7.16728235584834       18.52745941587019       37.05107694321445
C            7.98116221360502       17.63123312327885       37.69092414961501
C            9.34700830855536       18.10522901744459       37.51791000260906
C           11.78384939560852       17.81307130069550       37.76868169070755
C           12.94688868698061       17.04286043490169       38.20093989643602
C           14.03224842859878       17.68785218575532       37.70671643622613
C           13.53600085475861       18.85376204675841       36.98298595395772
C           13.89670800203679       20.95465679072785       35.73610733057894
C           14.76636070103383       21.93262169004559       35.13172516616975
C           13.96011216316481       22.94039366445739       34.67590547208864
C           12.61215941139266       22.56005903838776       34.99369579256308
C           11.48096855694742       23.31719728316911       34.72100655345537
H           11.63133620163281       24.30072974487477       34.29400323406733
C            7.60233670460908       20.69574665099256       35.86787459495802
H            6.53810790808217       20.81516493221858       35.70319426203545
C           10.46836364187894       17.44565272607938       38.00960310657570
H           10.30202746400715       16.56825067188300       38.61886517251838
C           14.34534127475704       19.79657977418699       36.37741960504433
H           15.41502195579445       19.62913746695497       36.42847300332598
C            6.48189990008252       23.31855489864952       34.74568872480987
H            6.37016202980425       24.31814776697772       34.33017773437317
H            5.98953340449199       23.29646007006254       35.71991235973370
H            5.97470020075798       22.61001221795678       34.08896053816697
C            9.03896251143041       25.10454048910544       33.98563909025756
H            9.93874485349271       25.26915551448641       33.39457900682709
H            9.01068481534449       25.85874862854113       34.77626174389449
H            8.17693164779516       25.26080333331783       33.33657794836693
C            5.69194653600354       18.49675160869421       36.86774703939576
H            5.43823053991549       18.47596858163798       35.80493201903950
H            5.23605493373511       19.38788325197053       37.30461042036050
H            5.26078927409728       17.61602061860302       37.34089039903193
C            7.68267977953590       16.39665616305288       38.38129290686756
H            8.53761854264466       15.73369262395241       38.38790839253600
C            6.74517872823080       15.75924345665716       39.07130708538666
H            5.77059073429857       16.17736667362692       39.25780989929535
H            6.98713547277931       14.79288167374466       39.47419225839196
C           12.92136935173014       15.83074855392122       39.08042870922858
H           12.16281110409015       15.12280430299357       38.74992731104745
H           12.68639226169402       16.13426366464136       40.10293586207409
H           13.88723503342950       15.32207124516773       39.08747928473882
C           15.40310502172230       17.15096229604395       37.72141731961659
H           16.05193612067746       17.28074034409369       38.58260560961481
C           15.76049667574311       16.44473728730512       36.66017191709121
H           15.05794348355020       16.32528491299415       35.84900168807366
H           16.72159501985560       15.96704906063676       36.56132520680279
C           16.25227593211653       21.77956028487216       35.00936387352432
H           16.49098573504133       20.81806073129906       34.55161769453998
H           16.73245190299452       21.81412742700579       35.98920570699036
H           16.67728528976916       22.56655196010723       34.38805538632312
C           14.35173579835509       24.22891855715753       34.00435739469334
H           14.10261472047485       24.21679048873028       32.94089303766120
H           15.42256350038686       24.40387312853862       34.09930284325431
H           13.82859785422932       25.07080800844955       34.46012773267744
O           10.98563959854977       19.27113602988026       34.42475985465975
H           11.60833889641170       19.66409791209212       33.81464804581566
H           10.46890239532211       18.51674605706282       34.16191552384768
C           12.47762984648821       23.59880364648533       40.60673987481330
H           12.13047047342882       23.48814822599729       41.63410240625421
H           12.40109278934431       24.65086013233424       40.32734121250526
H           13.52358414607929       23.30401559877238       40.55880976892664
N           10.30992023229249       22.90034586323964       39.52104206667343
H            9.71418523178852       23.50483402246285       40.06157318907852
C           11.67547891523171       22.76477898448251       39.66910408415460
C            9.92907713208408       22.06225457100430       38.53154957384245
H            8.91798973424958       21.98514320389774       38.18036077435572
N           10.94963240975687       21.40255903244158       38.03910592932817
C           12.03990588193876       21.83123618637739       38.75193740648179
H           13.01593783124225       21.44806886232451       38.54016181456316
78
 energy: -116.036642576950 gnorm: 0.043352704269 xtb: 6.7.1 (edcfbbe)
Fe          10.96424238272522       20.33530505286138       36.30328493925202
N            9.78280340348335       21.73594487106097       35.47515015187983
N            9.34752805641820       19.27149821873263       36.82901493644653
N           12.17109086262119       18.91558405966069       37.07271277631450
N           12.59634212010805       21.34284472498395       35.64291221929982
C           10.17267611922642       22.92479074561742       34.94196266170109
C            9.01830536505858       23.71898349733924       34.57506367228147
C            7.92640935202932       22.96555165852456       34.88437632811331
C            8.42616834795745       21.72696493070955       35.44163384642812
C            8.05012170016299       19.55283289257083       36.53691073097076
C            7.17877773394116       18.53024377802426       37.06059471585486
C            7.98099886894365       17.62187975980182       37.70350490771633
C            9.34314128257999       18.11135902529499       37.53044559192139
C           11.77521815890347       17.83689957739772       37.79357865268874
C           12.92253882016517       17.06444179118195       38.21764833038337
C           14.01655157413066       17.69767579763034       37.70559701067450
C           13.52680034913509       18.86699802980898       36.99932951206777
C           13.89218295233364       20.94805705524080       35.74302632113080
C           14.76493434153712       21.92613990602935       35.13059305200380
C           13.96194021983593       22.94115010102063       34.69048118395085
C           12.60956346857200       22.55370384144690       35.01931202400303
C           11.48611297771095       23.31151080629410       34.73155454677584
H           11.64409986176672       24.28307721132166       34.28475902533003
C            7.61364340047356       20.69323732369057       35.88432012181685
H            6.55133349996284       20.80708627912949       35.72474751467658
C           10.46875184032069       17.46977748674672       38.02442368477942
H           10.31262872245222       16.58004005321267       38.61465593566167
C           14.33471597520411       19.79870620998318       36.37392083551971
H           15.40131354628161       19.62267308323667       36.41120626456689
C            6.48501908881639       23.31548262913173       34.74284115130295
H            6.37096091399306       24.31210712394716       34.32745786874533
H            5.98974602483849       23.29322587302696       35.71290952579422
H            5.97529405405828       22.60823978180203       34.09058702200740
C            9.04304558358131       25.09014733449198       33.99036549113483
H            9.93878221372013       25.25392852548758       33.39841868424739
H            9.01698642901573       25.84581798373065       34.77675197793313
H            8.18073969348566       25.24949896983082       33.34682920491612
C            5.69896215206500       18.49715287902691       36.87387284330583
H            5.44647493802658       18.48226744952103       35.81358933381927
H            5.23498656855849       19.37986758893650       37.31294105471500
H            5.27514525846634       17.61416666333675       37.34044293500036
C            7.73227614428177       16.37952270520593       38.37444167595014
H            8.59450477568445       15.71313917596261       38.36308162357557
C            6.73739975283218       15.78330387168495       39.05605781933004
H            5.77184070850619       16.22850038869269       39.23790518010459
H            6.90545545819363       14.79933486102692       39.46443549609915
C           12.90516365732774       15.84544702428549       39.07374347603600
H           12.15498777849399       15.13203619366328       38.74151431270440
H           12.67548930551867       16.12121535540170       40.10447666807777
H           13.87597137416637       15.35349434780240       39.06210743627206
C           15.38466367451177       17.16209683073863       37.69389421273417
H           16.01974516042233       17.31175860274309       38.55834538666730
C           15.77839512182647       16.44509163617851       36.65314617044609
H           15.10260587635524       16.31080114628957       35.82436952390787
H           16.74397386418987       15.97947880164740       36.57219426653734
C           16.24207779588819       21.77964504836026       35.01108906567833
H           16.49073810136088       20.82265104976712       34.55441084393934
H           16.71988383780677       21.81552479801773       35.98955712976117
H           16.66423589178825       22.56915295202406       34.39621528124491
C           14.34805599233095       24.21130679158558       34.01566017587995
H           14.09233671032121       24.19246343100192       32.95589440890458
H           15.41692096182465       24.38661124302321       34.10218823641638
H           13.83069845035483       25.05637984971321       34.46685470901721
O           10.99761657399901       19.27134204332124       34.40916057954529
H           11.60541687114831       19.63118759570201       33.75816051971723
H           10.47672637619402       18.51662743944976       34.13060755182190
C           12.47010987396724       23.59303632721409       40.60591597258020
H           12.12088958404123       23.47865761448749       41.62996139028868
H           12.40009842574932       24.64671727733539       40.33796601371650
H           13.51206601623607       23.29699971314339       40.55726637684986
N           10.31930795429837       22.90231680752914       39.51539631145417
H            9.72331014010113       23.50598659199841       40.05873561907542
C           11.67717584911901       22.77117015492738       39.65854753676263
C            9.92949789296430       22.06252033047499       38.52920820455931
H            8.91832460380762       21.97080954509509       38.19042036764785
N           10.95287645862621       21.41201707729910       38.03334361763451
C           12.04661280117633       21.83408355868204       38.73355724273161
H           13.02047196191874       21.44271124770010       38.52744100919871
78
 energy: -116.040716047837 gnorm: 0.038650900109 xtb: 6.7.1 (edcfbbe)
Fe          10.96469713806251       20.33736209404378       36.30327352775738
N            9.78341869244514       21.73525150015148       35.48700339048580
N            9.34939778090684       19.28113692732797       36.85405314740505
N           12.16776498731299       18.93771711633687       37.09020994996457
N           12.59537838598779       21.34347408553610       35.65459720041817
C           10.17249686071265       22.91976283162947       34.94965816954925
C            9.01879735104528       23.71096379280355       34.57908077864357
C            7.92583190890163       22.96021299864305       34.88883173587851
C            8.42518738072467       21.72481245824969       35.45291397387184
C            8.05400446417238       19.55564093029720       36.55793335756402
C            7.18236543578691       18.53348143761858       37.07897388482731
C            7.98474579890913       17.62049736066285       37.71658432945225
C            9.34403627762586       18.12017303518565       37.55034363902438
C           11.77300434026788       17.86207578675901       37.81722893046194
C           12.91245991072144       17.08123595111568       38.22776186821765
C           14.00719383435005       17.70119777272814       37.69805804319337
C           13.51893545834226       18.87317079766709       37.00587555943540
C           13.88882215104984       20.94448516003829       35.74733886130277
C           14.76198326684949       21.92272453420138       35.13319774146343
C           13.96075915564307       22.93841037704692       34.70506146529539
C           12.60541539332751       22.54978930462666       35.03767759326846
C           11.48677733739714       23.30655088542268       34.73879448029960
H           11.65110911125402       24.26971511285119       34.27815308777405
C            7.61591466466372       20.69446081555733       35.90029889301429
H            6.55293827882262       20.80529272556637       35.74918976418988
C           10.46840919427720       17.48652037967785       38.04522287431249
H           10.32292015106683       16.59336368859470       38.63165718093930
C           14.33203234628394       19.79395539138321       36.36965604970557
H           15.39644719470238       19.60538867492932       36.38953635994619
C            6.48547798704027       23.30967361159563       34.74056730925437
H            6.37217511994963       24.30567247021510       34.32188233993853
H            5.98621506197811       23.28966169813183       35.70910507961249
H            5.97673883385218       22.60065980894721       34.08853642492608
C            9.04717626066474       25.07979598361336       33.99215598089702
H            9.94186260473261       25.23748490522313       33.39637779147277
H            9.02854122075995       25.83652444357632       34.77832409947360
H            8.18178057844561       25.24132960634622       33.35289101952247
C            5.70355029128399       18.49560174794393       36.88323818061556
H            5.45730508526828       18.48866962707813       35.82116339091148
H            5.23164226299120       19.37170154710461       37.32787452172102
H            5.28551940644309       17.60529740032627       37.34076234131167
C            7.74740981885602       16.34604281982523       38.34121412758207
H            8.61756743721813       15.68874645517014       38.32517202592658
C            6.72208149728355       15.80387915331501       39.03142718229957
H            5.77176667546958       16.28748333420453       39.21203293273346
H            6.83201330124131       14.81899561901016       39.46923426619777
C           12.89459540402247       15.85340901079482       39.06863764053394
H           12.14702321787563       15.14115117151413       38.72565924840116
H           12.66388719119919       16.10816696058577       40.10527660161360
H           13.86946221311469       15.37126493004326       39.04240919430094
C           15.37450454489793       17.17361595096483       37.67416760380232
H           16.00001990910020       17.34289489504064       38.54221459671614
C           15.80235238712474       16.45852071204906       36.64496385289319
H           15.14710764958310       16.28881420453083       35.80316159098566
H           16.77700753062120       16.00457766466816       36.59265690244548
C           16.23831582381491       21.77924468042904       35.01525427154577
H           16.49311123968046       20.82445625727824       34.55667023396998
H           16.71244219883437       21.81497372275853       35.99608176276986
H           16.65745363052144       22.57352991453827       34.40379286123222
C           14.34426099479628       24.20253395095638       34.02192790006644
H           14.07922398384226       24.17328557558532       32.96410971955273
H           15.41494027848183       24.37341494643615       34.09916167172223
H           13.83257733324068       25.05210172847952       34.47173047298310
O           11.01356486445417       19.26191751761617       34.38886973374392
H           11.59831272747314       19.60039659129076       33.70271317608377
H           10.48215256978954       18.51858142698169       34.09482888880965
C           12.46817987506867       23.58832551135069       40.60594057689715