78
 energy: -116.057597267952 gnorm: 0.000061576450 xtb: 6.7.1 (edcfbbe)
Fe          10.96140227362602       20.28757666093866       36.22268315122236
N            9.77065051631852       21.66448324101815       35.36313895554883
N            9.35277474895575       19.28784083234500       36.85035735289612
N           12.15437045484775       18.89465923580047       36.99651964216694
N           12.57100127137878       21.28962638727810       35.55011642907896
C           10.15747581552625       22.79684160023417       34.71527340556994
C            9.00639976378069       23.54695355103545       34.26693228798820
C            7.91163475695337       22.84385191752514       34.66540800355238
C            8.40875679184813       21.67561343946928       35.35591056191702
C            8.04850633798296       19.61326354638382       36.63928686941708
C            7.17188095941667       18.66580819476409       37.28024973588640
C            7.98202117141696       17.75519595751455       37.90434205092281
C            9.34276341682793       18.16151190926812       37.60621188576519
C           11.76748051339966       17.81745934058810       37.72924109989773
C           12.90813331133839       17.03150242495205       38.12405173761893
C           14.00527992707505       17.64155849340941       37.57980324045245
C           13.50694861621758       18.82481231318432       36.90379518300409
C           13.87550866940188       20.95463132487725       35.74386610987854
C           14.74959206234347       21.97132275518030       35.20440337975234
C           13.94074588993080       22.93165481680759       34.68008532488052
C           12.58370446709407       22.48969588318537       34.90879413195781
C           11.46506861744635       23.19488873319158       34.50632997300465
H           11.62424615249020       24.13135264678075       33.99432513048610
C            7.59914199125177       20.71962287483246       35.93749046184332
H            6.53188678046715       20.85934270587443       35.85629607473754
C           10.46275969656591       17.48304105400584       38.04273688490338
H           10.31166940891279       16.60778030613936       38.65590141803177
C           14.32208000800804       19.79850313543484       36.35590477569436
H           15.38838601268702       19.65746789864196       36.43871684776740
C            6.46689102654020       23.15250301295887       34.46779299777963
H            6.34161167335437       24.07533733571912       33.90681631950180
H            5.96219302451047       23.26411396004575       35.42797331532485
H            5.97457999127286       22.34867551640829       33.91992160838547
C            9.08078047517830       24.83232327591038       33.51632221095833
H            9.62384232295668       24.69964018861238       32.58022195464729
H            9.60124532251450       25.58928127436857       34.10356186900412
H            8.08549752898189       25.20354018945643       33.28456284649567
C            5.68533832611976       18.67604291968776       37.19099091659434
H            5.36156999826208       18.97759353040811       36.19592981911656
H            5.25378133431112       19.37258400764629       37.91225595124170
H            5.29342239368671       17.68234364132775       37.39771557798227
C            7.61934231568025       16.58920592120593       38.67858526337407
H            8.29604202209681       15.74652162161674       38.59981635620606
C            6.55103673795833       16.48449683114095       39.46260861705390
H            5.86990922794083       17.30322609231588       39.61686250565566
H            6.33468125131570       15.57695882967162       40.00153946967085
C           12.84605807720175       15.76991898573163       38.91313299974159
H           12.32315143460643       14.99398690116262       38.35300185181561
H           12.31104411741670       15.92822108577455       39.84979641731935
H           13.84653998529168       15.40924136052021       39.13883026300228
C           15.37949907375530       17.19177793842300       37.65887311346444
H           15.66473108035033       16.73963519266871       38.60304544794894
C           16.27318194273976       17.25051425364625       36.67786305017346
H           16.02715751915343       17.63664463829613       35.70332317984970
H           17.27901604916571       16.88692377975441       36.80880683273047
C           16.23774205176163       21.90672786099957       35.24613647331485
H           16.59848998709160       21.02518690004097       34.71561867119826
H           16.59012548053155       21.84637812463008       36.27601390689188
H           16.67691739312766       22.78756962640262       34.78423541159697
C           14.30655516953540       24.20407575076698       33.99575241325738
H           13.91528242467924       24.21981291435343       32.97804323527793
H           15.38640795184214       24.32101274947675       33.94839726963779
H           13.89164059576520       25.05907215346298       34.53001444495074
O           10.94346268089061       19.21916532120500       34.19353481178246
H           11.79178546089861       19.51738264659342       33.84770163530980
H           10.25973046822657       19.73105732255588       33.74787731015476
C           12.48326877569880       22.91395710221982       40.89557916213380
H           12.11098752563204       22.52710105617961       41.84411452029253
H           12.40824550931129       24.00109764145707       40.91790216158835
H           13.52838241529633       22.63908900294613       40.79392087145881
N           10.35989388282992       22.54602161485300       39.61991983374266
H            9.77129851706409       23.06411562864903       40.25135058194889
C           11.70971629239320       22.35488209489924       39.75821138746402
C            9.96988811163537       21.91255693887835       38.49084374797334
H            8.96209964018936       21.89328839867162       38.13039455641248
N           10.99007973532094       21.33272628910127       37.90643991782402
C           12.07940509423367       21.59877091599751       38.68302945729454
H           13.04918018018071       21.23183648050786       38.41764535761375
