91
 energy: -134.120573958249 gnorm: 0.000040439048 xtb: 6.7.1 (edcfbbe)
Fe          21.00885249752528       63.85901880325923      152.19619941883263
N           20.18875416203415       62.41291117390954      153.29355019598927
N           22.46236913122805       64.07764977096147      153.54845115506907
N           21.85437575012697       65.28239866669759      151.05338122736035
N           19.59038373873959       63.59791461692280      150.79500901418464
C           19.06359848510083       61.70731867176448      153.01022252991319
C           18.76885775434278       60.76427813759251      154.06808951177354
C           19.74415920870735       60.92080760240727      155.00131674706273
C           20.62148810420548       61.95665992498855      154.49949759399962
C           22.60019936554658       63.38953610348337      154.71363652456102
C           23.78660783607115       63.80357291718177      155.41504797712261
C           24.38965063326778       64.74841421131380      154.62954495746672
C           23.52699509522997       64.91799672996981      153.47665607238991
C           22.96630401012772       66.00901250542641      151.35293993545440
C           23.26542874441721       66.94512433316915      150.30148761642977
C           22.29998877975644       66.77322508369798      149.34464904665089
C           21.43065667997362       65.72456719395048      149.84063719944984
C           19.45777606444528       64.27799578899301      149.62275169239891
C           18.28646490470454       63.83202806958133      148.90316894341774
C           17.70971734892967       62.86955091112553      149.67292632968383
C           18.53684259374474       62.73986191629503      150.85071363274326
C           18.28401465668284       61.85237305219420      151.87856395349934
H           17.41101074228927       61.22411304521077      151.79008781930830
C           21.73994816225943       62.40573299845450      155.17217141342385
H           21.97019712126764       61.94754107939612      156.12236303465829
C           23.73940874391216       65.85775761551865      152.48842176543613
H           24.57851596324471       66.52316596645717      152.61299830078866
C           20.31172570833253       65.26639894302608      149.16753688998938
H           20.07523524814890       65.72555319660638      148.21972597412287
C           19.93904908042579       60.20745098443407      156.29553888138364
H           19.15182030928230       59.47490120424315      156.45568513822317
H           19.92763418781206       60.91053464901083      157.12914195023106
H           20.89744286849296       59.68807659457548      156.30523479692360
C           17.60532237698281       59.83309340161546      154.06473633083965
H           17.65219822274621       59.16598310426696      153.20386366162452
H           16.66887169874246       60.38899658409806      154.01092529881910
H           17.59215081047153       59.22646505023600      154.96697403061711
C           24.25878424044096       63.23437286320637      156.70867886028859
H           24.50609436888834       62.17816272096424      156.59604513004319
H           23.48560965233280       63.31845235233376      157.47311228042508
H           25.14786171214039       63.75596814972592      157.05404788059897
C           25.64707319411907       65.41841088225191      154.88946279425110
H           25.83251033071346       65.66883910442458      155.92902176672106
C           26.57763483016521       65.69623603504286      153.98338062369504
H           26.46464411759451       65.41816583254554      152.94971514414715
H           27.49651352587192       66.19078019527380      154.25317547863787
C           24.46258591532388       67.82837550575660      150.26052172834764
H           25.32984903892915       67.31317148924937      150.67054411106929
H           24.30037482807657       68.73455489570155      150.84637805186981
H           24.67975293087378       68.11647746016176      149.23384646165840
C           22.14547104799040       67.43719601533449      148.06972189417928
H           21.72604514732495       66.83299334520875      147.27307947853447
C           22.46421152707567       68.70230592838229      147.81493963054115
H           22.83856454197185       69.36283439030811      148.57731576654535
H           22.33555582756782       69.12920006135982      146.83402833552569
C           17.85698287168908       64.36882540132366      147.58065718097512
H           18.63057884842717       64.20640745462111      146.82937154105892
H           17.66855899933639       65.44091758749815      147.64422987255512
H           16.94600751957394       63.88092809893978      147.24304640070733
C           16.47928537374483       62.06872914183569      149.41779322043183
H           16.71392886975544       61.00435817411947      149.39117124092800
H           16.02796765422250       62.34363043298615      148.46756129467073
H           15.74526588037981       62.23304413247303      150.20693871977119
C           17.68158708520214       68.16298635166456      153.40524496190591
H           18.09999687965732       68.99060766927994      153.97788043336999
H           16.68820140886663       67.94497141528214      153.79734348969700
H           17.58690583493023       68.47007579903149      152.36845918659139
N           18.86467474224454       66.36149951102873      154.68100143442544
H           18.54321299978316       66.65280100209382      155.58952399748426
C           18.55700293574930       66.96684601133417      153.49076393041079
C           19.67357792255475       65.31236300235176      154.40997146227761
H           20.07291019139954       64.65358398704825      155.15347155786554
N           19.89583266906077       65.21644913724842      153.12162449206747
C           19.20815736933644       66.23882766602878      152.53680145812501
H           19.22766606805822       66.38289207390224      151.47672940245675
C           27.59592787249882       64.09474317036741      150.33457389549326
H           28.11824784710061       63.49203208223822      149.59121783656494
H           28.13678030292752       64.02081877512271      151.27473174354213
H           27.61720548383194       65.12933759038623      149.99588715791722
C           26.18210507169740       63.61835918457204      150.48954798300423
C           25.77433391347547       62.92801660844783      151.62370981736049
H           26.48345931534967       62.73165638170147      152.41471911017641
C           24.46868540443311       62.49972394675087      151.76719778271888
H           24.14258557720340       61.98175670304521      152.65451980383892
C           23.54337812297773       62.76059684886208      150.76607914578324
O           22.24144849808117       62.35881193947272      150.95200460525157
H           21.74215133859446       62.52587057497783      150.13878310565235
C           25.25043150918707       63.85234830241738      149.48559649879388
H           25.54863086422272       64.38692371331084      148.59527506521604
C           23.94360462649564       63.42257199826366      149.61346809573777
H           23.22456856122812       63.62621030073954      148.83124109625516
