78
 energy: -116.058077752257 gnorm: 0.000129801292 xtb: 6.7.1 (edcfbbe)
Fe          28.27485442416661       91.46925190247575       52.34653124911306
N           29.27521438222998       93.11161940588667       51.75002476314909
N           29.39834453818817       91.41065472077985       54.02019861136367
N           27.25004962673634       89.87913032908411       52.97482724799287
N           27.13691931878446       91.57661350176024       50.71594581629969
C           29.10047761481412       93.79580268772163       50.58806647449271
C           30.03885702719658       94.89058266311277       50.49308615094267
C           30.79060828899192       94.85097935567231       51.62660498048363
C           30.30308469707881       93.72962730391789       52.39728335912044
C           30.40883108627704       92.25949050453534       54.36415585979695
C           31.01191776141419       91.86057257850948       55.60802523753603
C           30.35125740583420       90.72880920567468       56.01121403787167
C           29.34145477887019       90.47429068818987       55.00381011079777
C           27.47244754630229       89.15769497158723       54.10693744613152
C           26.54285427193093       88.06008117142501       54.20751707114869
C           25.74423364768220       88.13122253259887       53.09802170852325
C           26.20742259127834       89.28291318555925       52.34664506309808
C           26.11416928373799       90.74817582072002       50.38328355093627
C           25.53583587539365       91.13065807519405       49.11234009124253
C           26.23905204806178       92.21189898493954       48.68501535743619
C           27.23599493103822       92.47454628184737       49.70149496941373
C           28.15024824214450       93.50725457379468       49.62643238665423
H           28.11908243736365       94.13983931168092       48.75265249874074
C           30.82917773515238       93.34793162513125       53.61639430450873
H           31.65051343707107       93.93057274651444       54.00485758307586
C           28.45455395080604       89.41625406843295       55.04599058485493
H           28.53500355480077       88.73416237120109       55.87833463522167
C           25.67270715526414       89.67570534345309       51.13372685954324
H           24.85098056089577       89.09817011003651       50.73835791282759
C           31.90386935665889       95.74544482689330       52.05400568756700
H           31.66614602923110       96.22927941696618       53.00184754886622
H           32.08435763582509       96.51906257869084       51.31183887628576
H           32.82507991569905       95.17731992986056       52.18741891443582
C           30.10863179269246       95.84055728538452       49.34711834972551
H           29.16343501750736       96.37149409475388       49.23143625926447
H           30.31091712526874       95.30602972310072       48.41878086623082
H           30.89667901024030       96.57414250621520       49.49894782207553
C           32.09007239201797       92.60469436738232       56.31648026633109
H           31.95452980130875       93.67964674666794       56.20573795146464
H           33.07230364446495       92.34588854069064       55.91694666424289
H           32.07664068804588       92.35984478590336       57.37662842192850
C           30.54834458188548       89.93191634970640       57.20143035028367
H           29.65528286680011       89.47511287495441       57.61184820426463
C           31.71341343538525       89.71951947607960       57.80491634424199
H           32.63960383878586       90.10678839583008       57.41758167672002
H           31.78331417952663       89.12335490494112       58.69960863219407
C           26.45640599086645       87.11130170974702       55.35165919104021
H           26.62130085454719       87.62949762229731       56.29518369420722
H           27.20739562265480       86.32440345932568       55.26302029052968
H           25.47277007402532       86.64700947597710       55.37759652347561
C           24.63449001161341       87.28776068050486       52.71243736204368
H           23.82624787115506       87.78796724540859       52.19158044508177
C           24.54356268468950       85.98124572559765       52.93889882006960
H           25.33590671902537       85.42470720624992       53.40849509162697
H           23.67801536357148       85.41562295250002       52.63580727857991
C           24.39139511199172       90.42965880504920       48.46472763333107
H           23.51107569833757       90.46239003421518       49.10684437450392
H           24.63628769988478       89.38335379755192       48.27994418813169
H           24.13952469241573       90.89521486103158       47.51503251899115
C           26.07376394069809       93.01623325673387       47.44133493070901
H           25.26451218853253       92.62281921837491       46.83114687276706
H           26.98922717804326       93.00003852414260       46.84936526871686
H           25.84631415305151       94.05448417537262       47.68404945775006
O           26.89199916315658       92.89790506026141       53.49094432256476
H           27.21172381018419       93.73822448744211       53.14486988180204
H           27.25462007545197       92.80076161469061       54.37814085827195
C           30.73361288509752       87.48896532602150       49.31672702101448
H           31.33761905127194       86.75055398890724       49.84383488516120
H           31.26828508205870       87.78523842375816       48.41429261052470
H           29.79371257357884       87.02841214350508       49.02930049547823
N           31.46827361411924       89.44271849305483       50.70053580033100
H           32.45496771584570       89.30331074435298       50.55717320073735
C           30.46589538962847       88.66550596108944       50.18194177688507
C           30.89066091240330       90.41901272039915       51.43605057846120
H           31.43503019963586       91.17632934084466       51.96111840251467
N           29.58478635631075       90.30755689339583       51.41443274044605
C           29.30505287652121       89.22146969462891       50.63785488452260
H           28.29479490878270       88.91472353208748       50.46130984129645
