 Entering Gaussian System, Link 0=g16
 Input=1dp605re.com
 Output=1dp605re.log
 Initial command:
 /sw/chem/gaussian/g16_C02/a100.el9/g16/l1.exe "/local/bebjones_9027003/Gau-519737.inp" -scrdir="/local/bebjones_9027003/"
 Entering Link 1 = /sw/chem/gaussian/g16_C02/a100.el9/g16/l1.exe PID=    519738.
  
 Copyright (c) 1988-2021, Gaussian, Inc.  All Rights Reserved.
  
 This is part of the Gaussian(R) 16 program.  It is based on
 the Gaussian(R) 09 system (copyright 2009, Gaussian, Inc.),
 the Gaussian(R) 03 system (copyright 2003, Gaussian, Inc.),
 the Gaussian(R) 98 system (copyright 1998, Gaussian, Inc.),
 the Gaussian(R) 94 system (copyright 1995, Gaussian, Inc.),
 the Gaussian 92(TM) system (copyright 1992, Gaussian, Inc.),
 the Gaussian 90(TM) system (copyright 1990, Gaussian, Inc.),
 the Gaussian 88(TM) system (copyright 1988, Gaussian, Inc.),
 the Gaussian 86(TM) system (copyright 1986, Carnegie Mellon
 University), and the Gaussian 82(TM) system (copyright 1983,
 Carnegie Mellon University). Gaussian is a federally registered
 trademark of Gaussian, Inc.
  
 This software contains proprietary and confidential information,
 including trade secrets, belonging to Gaussian, Inc.
  
 This software is provided under written license and may be
 used, copied, transmitted, or stored only in accord with that
 written license.
  
 The following legend is applicable only to US Government
 contracts under FAR:
  
                    RESTRICTED RIGHTS LEGEND
  
 Use, reproduction and disclosure by the US Government is
 subject to restrictions as set forth in subparagraphs (a)
 and (c) of the Commercial Computer Software - Restricted
 Rights clause in FAR 52.227-19.
  
 Gaussian, Inc.
 340 Quinnipiac St., Bldg. 40, Wallingford CT 06492
  
  
 ---------------------------------------------------------------
 Warning -- This program may not be used in any manner that
 competes with the business of Gaussian, Inc. or will provide
 assistance to any competitor of Gaussian, Inc.  The licensee
 of this program is prohibited from giving any competitor of
 Gaussian, Inc. access to this program.  By using this program,
 the user acknowledges that Gaussian, Inc. is engaged in the
 business of creating and licensing software in the field of
 computational chemistry and represents and warrants to the
 licensee that it is not a competitor of Gaussian, Inc. and that
 it will not use this program in any manner prohibited above.
 ---------------------------------------------------------------
  

 Cite this work as:
 Gaussian 16, Revision C.02,
 M. J. Frisch, G. W. Trucks, H. B. Schlegel, G. E. Scuseria, 
 M. A. Robb, J. R. Cheeseman, G. Scalmani, V. Barone, 
 G. A. Petersson, H. Nakatsuji, X. Li, M. Caricato, A. V. Marenich, 
 J. Bloino, B. G. Janesko, R. Gomperts, B. Mennucci, H. P. Hratchian, 
 J. V. Ortiz, A. F. Izmaylov, J. L. Sonnenberg, D. Williams-Young, 
 F. Ding, F. Lipparini, F. Egidi, J. Goings, B. Peng, A. Petrone, 
 T. Henderson, D. Ranasinghe, V. G. Zakrzewski, J. Gao, N. Rega, 
 G. Zheng, W. Liang, M. Hada, M. Ehara, K. Toyota, R. Fukuda, 
 J. Hasegawa, M. Ishida, T. Nakajima, Y. Honda, O. Kitao, H. Nakai, 
 T. Vreven, K. Throssell, J. A. Montgomery, Jr., J. E. Peralta, 
 F. Ogliaro, M. J. Bearpark, J. J. Heyd, E. N. Brothers, K. N. Kudin, 
 V. N. Staroverov, T. A. Keith, R. Kobayashi, J. Normand, 
 K. Raghavachari, A. P. Rendell, J. C. Burant, S. S. Iyengar, 
 J. Tomasi, M. Cossi, J. M. Millam, M. Klene, C. Adamo, R. Cammi, 
 J. W. Ochterski, R. L. Martin, K. Morokuma, O. Farkas, 
 J. B. Foresman, and D. J. Fox, Gaussian, Inc., Wallingford CT, 2019.
 
 ******************************************
 Gaussian 16:  ES64L-G16RevC.02  7-Dec-2021
                22-Jan-2026 
 ******************************************
 %mem=16GB
 %CPU=0-71
 SetSPE:  set environment variable "OMP_PROC_BIND" = "true"
 SetSPE:  set environment variable "OMP_PLACES" = "{0},{1},{2},{3},{4},{5},{6},{7},{8},{9},{10},{11},{12},{13},{14},{15},{16},{17},{18},{19},{20},{21},{22},{23},{24},{25},{26},{27},{28},{29},{30},{31},{32},{33},{34},{35},{36},{37},{38},{39},{40},{41},{42},{43},{44},{45},{46},{47},{48},{49},{50},{51},{52},{53},{54},{55},{56},{57},{58},{59},{60},{61},{62},{63},{64},{65},{66},{67},{68},{69},{70},{71}"
 Will use up to   72 processors via shared memory.
 %gpucpu=0,1,2,3=0,1,2,3
 Will use    4 GPUs:
 Thread  CPU   GPU
      0    0     0
      1    1     1
      2    2     2
      3    3     3
      4    4    -1
      5    5    -1
      6    6    -1
      7    7    -1
      8    8    -1
      9    9    -1
     10   10    -1
     11   11    -1
     12   12    -1
     13   13    -1
     14   14    -1
     15   15    -1
     16   16    -1
     17   17    -1
     18   18    -1
     19   19    -1
     20   20    -1
     21   21    -1
     22   22    -1
     23   23    -1
     24   24    -1
     25   25    -1
     26   26    -1
     27   27    -1
     28   28    -1
     29   29    -1
     30   30    -1
     31   31    -1
     32   32    -1
     33   33    -1
     34   34    -1
     35   35    -1
     36   36    -1
     37   37    -1
     38   38    -1
     39   39    -1
     40   40    -1
     41   41    -1
     42   42    -1
     43   43    -1
     44   44    -1
     45   45    -1
     46   46    -1
     47   47    -1
     48   48    -1
     49   49    -1
     50   50    -1
     51   51    -1
     52   52    -1
     53   53    -1
     54   54    -1
     55   55    -1
     56   56    -1
     57   57    -1
     58   58    -1
     59   59    -1
     60   60    -1
     61   61    -1
     62   62    -1
     63   63    -1
     64   64    -1
     65   65    -1
     66   66    -1
     67   67    -1
     68   68    -1
     69   69    -1
     70   70    -1
     71   71    -1
 SetGPE:  set environment variable "OMP_PROC_BIND" = "true"
 SetGPE:  set environment variable "OMP_PLACES" = "{0},{1},{2},{3},{4},{5},{6},{7},{8},{9},{10},{11},{12},{13},{14},{15},{16},{17},{18},{19},{20},{21},{22},{23},{24},{25},{26},{27},{28},{29},{30},{31},{32},{33},{34},{35},{36},{37},{38},{39},{40},{41},{42},{43},{44},{45},{46},{47},{48},{49},{50},{51},{52},{53},{54},{55},{56},{57},{58},{59},{60},{61},{62},{63},{64},{65},{66},{67},{68},{69},{70},{71}"
 %chk=1dp6_05_opt.chk
 Properties for Device   0
 Minimum vector length:                              32
 Maximum vector length:                            1024
 Number of SMPs:                                    108
 Maximum number of threads per SMP:                2048
 Number of ASync Engines:                             5
 Memory:                                           9206849536
 Properties for Device   1
 Minimum vector length:                              32
 Maximum vector length:                            1024
 Number of SMPs:                                    108
 Maximum number of threads per SMP:                2048
 Number of ASync Engines:                             5
 Memory:                                           9206849536
 Properties for Device   2
 Minimum vector length:                              32
 Maximum vector length:                            1024
 Number of SMPs:                                    108
 Maximum number of threads per SMP:                2048
 Number of ASync Engines:                             5
 Memory:                                           9206849536
 Properties for Device   3
 Minimum vector length:                              32
 Maximum vector length:                            1024
 Number of SMPs:                                    108
 Maximum number of threads per SMP:                2048
 Number of ASync Engines:                             5
 Memory:                                           9206849536
   8286164582 words of memory will be used on each GPU.
 -------------------------------
 # opt apfd/gen scf=maxcycle=999
 -------------------------------
 1/18=20,19=15,26=3,38=1/1,3;
 2/9=110,12=2,17=6,18=5,40=1/2;
 3/5=7,11=2,25=1,30=1,71=1,74=-44/1,2,3;
 4//1;
 5/5=2,7=999,38=5/2;
 6/7=2,8=2,9=2,10=2,28=1/1;
 7//1,2,3,16;
 1/18=20,19=15,26=3/3(2);
 2/9=110/2;
 99//99;
 2/9=110/2;
 3/5=7,6=1,11=2,25=1,30=1,71=1,74=-44,82=7/1,2,3;
 4/5=5,16=3,69=1/1;
 5/5=2,7=999,38=5/2;
 7//1,2,3,16;
 1/18=20,19=15,26=3/3(-5);
 2/9=110/2;
 6/7=2,8=2,9=2,10=2,19=2,28=1/1;
 99/9=1/99;
 -----------
 1dp6_05_opt
 -----------
 Symbolic Z-matrix:
 Charge =  0 Multiplicity = 5
 Fe                    48.02661   55.66604   33.87293 
 N                     47.25663   54.77794   32.23203 
 N                     49.85747   55.56835   33.05356 
 N                     48.7817   56.6463   35.46723 
 N                     46.17421   55.94506   34.5947 
 C                     45.94464   54.63113   31.92678 
 C                     45.7949   53.84896   30.71982 
 C                     47.05107   53.50476   30.32101 
 C                     47.96485   54.11423   31.26516 
 C                     50.21872   54.86358   31.95048 
 C                     51.59367   55.05372   31.65658 
 C                     52.07899   55.9475   32.60518 
 C                     50.9788   56.21589   33.49069 
 C                     50.07629   57.00187   35.65723 
 C                     50.26574   57.52171   36.98701 
 C                     49.04531   57.44902   37.61252 
 C                     48.12187   56.89724   36.63897 
 C                     45.84617   56.36595   35.83717 
 C                     44.42516   56.40831   35.99761 
 C                     43.88797   55.99951   34.79947 
 C                     44.99469   55.68675   33.94687 
 C                     44.88495   55.09883   32.69209 
 H                     43.88778   54.90814   32.32578 
 C                     49.33061   54.12213   31.13997 
 H                     49.76561   53.58606   30.31057 
 C                     51.09142   56.85984   34.7172 
 H                     52.0774   57.19366   34.99974 
 C                     46.76684   56.77598   36.82102 
 H                     46.35798   57.05225   37.78048 
 C                     47.4814   52.68396   29.15566 
 H                     46.62154   52.28502   28.62404 
 H                     48.09845   51.85     29.48812 
 H                     48.06965   53.28273   28.45945 
 C                     44.48274   53.5018   30.10575 
 H                     43.90981   54.40358   29.8901 
 H                     43.89679   52.88273   30.78509 
 H                     44.62318   52.95377   29.17774 
 C                     52.32088   54.44768   30.50545 
 H                     51.93768   54.83061   29.55806 
 H                     52.20144   53.36434   30.50423 
 H                     53.38144   54.67842   30.55827 
 C                     53.41236   56.48766   32.67186 
 H                     54.19324   55.83753   32.29318 
 C                     53.74901   57.70167   33.10588 
 H                     53.01475   58.41838   33.43196 
 H                     54.77572   58.02675   33.12145 
 C                     51.57163   57.95281   37.55634 
 H                     51.80034   58.98248   37.27547 
 H                     52.37682   57.31734   37.19262 
 H                     51.54214   57.89028   38.64185 
 C                     48.68236   57.80516   38.96463 
 H                     47.90011   57.20067   39.40691 
 C                     49.21825   58.79319   39.67586 
 H                     49.96462   59.45402   39.27066 
 H                     48.90608   58.98961   40.68781 
 C                     43.72627   56.8252   37.24621 
 H                     43.98933   57.84875   37.51649 
 H                     44.00869   56.17411   38.07319 
 H                     42.64798   56.7696   37.12159 
 C                     42.45497   55.8559   34.41594 
 H                     41.80726   56.27407   35.18214 
 H                     42.19667   54.80417   34.28823 
 H                     42.2535   56.37019   33.47634 
 O                     48.17859   54.13994   34.75056 
 O                     47.87313   53.83459   35.96014 
 C                     48.12064   60.05714   30.15957 
 H                     48.81868   60.86939   30.36091 
 H                     47.17592   60.49233   29.83433 
 H                     48.51931   59.44786   29.35461 
 N                     47.4299   59.72314   32.5436 
 H                     47.15593   60.67934   32.70309 
 C                     47.92612   59.2196   31.36872 
 C                     47.3801   58.71288   33.43566 
 H                     47.03208   58.81319   34.44367 
 N                     47.81359   57.60032   32.89868 
 C                     48.15715   57.89596   31.61385 
 H                     48.5447   57.14244   30.96018 
 
 Add virtual bond connecting atoms N75        and Fe1        Dist= 4.11D+00.

 GradGradGradGradGradGradGradGradGradGradGradGradGradGradGradGradGradGrad
 Berny optimization.
 Initialization pass.
                           ----------------------------
                           !    Initial Parameters    !
                           ! (Angstroms and Degrees)  !
 --------------------------                            --------------------------
 ! Name  Definition              Value          Derivative Info.                !
 --------------------------------------------------------------------------------
 ! R1    R(1,2)                  2.0184         estimate D2E/DX2                !
 ! R2    R(1,3)                  2.0082         estimate D2E/DX2                !
 ! R3    R(1,4)                  2.0181         estimate D2E/DX2                !
 ! R4    R(1,5)                  2.0075         estimate D2E/DX2                !
 ! R5    R(1,64)                 1.767          estimate D2E/DX2                !
 ! R6    R(1,75)                 2.1762         estimate D2E/DX2                !
 ! R7    R(2,6)                  1.355          estimate D2E/DX2                !
 ! R8    R(2,9)                  1.37           estimate D2E/DX2                !
 ! R9    R(3,10)                 1.3579         estimate D2E/DX2                !
 ! R10   R(3,13)                 1.3667         estimate D2E/DX2                !
 ! R11   R(4,14)                 1.3559         estimate D2E/DX2                !
 ! R12   R(4,17)                 1.368          estimate D2E/DX2                !
 ! R13   R(5,18)                 1.3522         estimate D2E/DX2                !
 ! R14   R(5,21)                 1.3703         estimate D2E/DX2                !
 ! R15   R(6,7)                  1.446          estimate D2E/DX2                !
 ! R16   R(6,22)                 1.3883         estimate D2E/DX2                !
 ! R17   R(7,8)                  1.3622         estimate D2E/DX2                !
 ! R18   R(7,34)                 1.4898         estimate D2E/DX2                !
 ! R19   R(8,9)                  1.4484         estimate D2E/DX2                !
 ! R20   R(8,30)                 1.4889         estimate D2E/DX2                !
 ! R21   R(9,24)                 1.3715         estimate D2E/DX2                !
 ! R22   R(10,11)                1.4188         estimate D2E/DX2                !
 ! R23   R(10,24)                1.4126         estimate D2E/DX2                !
 ! R24   R(11,12)                1.3908         estimate D2E/DX2                !
 ! R25   R(11,38)                1.4904         estimate D2E/DX2                !
 ! R26   R(12,13)                1.4376         estimate D2E/DX2                !
 ! R27   R(12,42)                1.4402         estimate D2E/DX2                !
 ! R28   R(13,26)                1.3899         estimate D2E/DX2                !
 ! R29   R(14,15)                1.4403         estimate D2E/DX2                !
 ! R30   R(14,26)                1.3908         estimate D2E/DX2                !
 ! R31   R(15,16)                1.3733         estimate D2E/DX2                !
 ! R32   R(15,47)                1.4884         estimate D2E/DX2                !
 ! R33   R(16,17)                1.4509         estimate D2E/DX2                !
 ! R34   R(16,51)                1.4446         estimate D2E/DX2                !
 ! R35   R(17,28)                1.3726         estimate D2E/DX2                !
 ! R36   R(18,19)                1.4307         estimate D2E/DX2                !
 ! R37   R(18,28)                1.4084         estimate D2E/DX2                !
 ! R38   R(19,20)                1.3752         estimate D2E/DX2                !
 ! R39   R(19,56)                1.4904         estimate D2E/DX2                !
 ! R40   R(20,21)                1.4316         estimate D2E/DX2                !
 ! R41   R(20,60)                1.4904         estimate D2E/DX2                !
 ! R42   R(21,22)                1.39           estimate D2E/DX2                !
 ! R43   R(22,23)                1.0793         estimate D2E/DX2                !
 ! R44   R(24,25)                1.0791         estimate D2E/DX2                !
 ! R45   R(26,27)                1.0786         estimate D2E/DX2                !
 ! R46   R(28,29)                1.0789         estimate D2E/DX2                !
 ! R47   R(30,31)                1.0868         estimate D2E/DX2                !
 ! R48   R(30,32)                1.0894         estimate D2E/DX2                !
 ! R49   R(30,33)                1.0905         estimate D2E/DX2                !
 ! R50   R(34,35)                1.0899         estimate D2E/DX2                !
 ! R51   R(34,36)                1.09           estimate D2E/DX2                !
 ! R52   R(34,37)                1.0869         estimate D2E/DX2                !
 ! R53   R(38,39)                1.0913         estimate D2E/DX2                !
 ! R54   R(38,40)                1.0899         estimate D2E/DX2                !
 ! R55   R(38,41)                1.0867         estimate D2E/DX2                !
 ! R56   R(42,43)                1.0844         estimate D2E/DX2                !
 ! R57   R(42,44)                1.3325         estimate D2E/DX2                !
 ! R58   R(44,45)                1.0766         estimate D2E/DX2                !
 ! R59   R(44,46)                1.0771         estimate D2E/DX2                !
 ! R60   R(47,48)                1.0915         estimate D2E/DX2                !
 ! R61   R(47,49)                1.0883         estimate D2E/DX2                !
 ! R62   R(47,50)                1.0877         estimate D2E/DX2                !
 ! R63   R(51,52)                1.083          estimate D2E/DX2                !
 ! R64   R(51,53)                1.3301         estimate D2E/DX2                !
 ! R65   R(53,54)                1.0761         estimate D2E/DX2                !
 ! R66   R(53,55)                1.0771         estimate D2E/DX2                !
 ! R67   R(56,57)                1.0908         estimate D2E/DX2                !
 ! R68   R(56,58)                1.0898         estimate D2E/DX2                !
 ! R69   R(56,59)                1.0869         estimate D2E/DX2                !
 ! R70   R(60,61)                1.0869         estimate D2E/DX2                !
 ! R71   R(60,62)                1.0905         estimate D2E/DX2                !
 ! R72   R(60,63)                1.0899         estimate D2E/DX2                !
 ! R73   R(64,65)                1.2844         estimate D2E/DX2                !
 ! R74   R(66,67)                1.0897         estimate D2E/DX2                !
 ! R75   R(66,68)                1.0898         estimate D2E/DX2                !
 ! R76   R(66,69)                1.0854         estimate D2E/DX2                !
 ! R77   R(66,72)                1.4837         estimate D2E/DX2                !
 ! R78   R(70,71)                1.0074         estimate D2E/DX2                !
 ! R79   R(70,72)                1.3712         estimate D2E/DX2                !
 ! R80   R(70,73)                1.3487         estimate D2E/DX2                !
 ! R81   R(72,76)                1.3658         estimate D2E/DX2                !
 ! R82   R(73,74)                1.0711         estimate D2E/DX2                !
 ! R83   R(73,75)                1.3092         estimate D2E/DX2                !
 ! R84   R(75,76)                1.3624         estimate D2E/DX2                !
 ! R85   R(76,77)                1.0702         estimate D2E/DX2                !
 ! A1    A(2,1,3)               89.6957         estimate D2E/DX2                !
 ! A2    A(2,1,5)               90.0824         estimate D2E/DX2                !
 ! A3    A(2,1,64)              93.2433         estimate D2E/DX2                !
 ! A4    A(2,1,75)              89.4155         estimate D2E/DX2                !
 ! A5    A(3,1,4)               90.2773         estimate D2E/DX2                !
 ! A6    A(3,1,64)              94.7161         estimate D2E/DX2                !
 ! A7    A(3,1,75)              87.124          estimate D2E/DX2                !
 ! A8    A(4,1,5)               89.6395         estimate D2E/DX2                !
 ! A9    A(4,1,64)              89.7108         estimate D2E/DX2                !
 ! A10   A(4,1,75)              87.625          estimate D2E/DX2                !
 ! A11   A(5,1,64)              91.1934         estimate D2E/DX2                !
 ! A12   A(5,1,75)              86.9676         estimate D2E/DX2                !
 ! A13   A(1,2,6)              126.8822         estimate D2E/DX2                !
 ! A14   A(1,2,9)              126.1348         estimate D2E/DX2                !
 ! A15   A(6,2,9)              106.8016         estimate D2E/DX2                !
 ! A16   A(1,3,10)             126.8139         estimate D2E/DX2                !
 ! A17   A(1,3,13)             126.475          estimate D2E/DX2                !
 ! A18   A(10,3,13)            106.7055         estimate D2E/DX2                !
 ! A19   A(1,4,14)             126.5347         estimate D2E/DX2                !
 ! A20   A(1,4,17)             125.8242         estimate D2E/DX2                !
 ! A21   A(14,4,17)            107.0015         estimate D2E/DX2                !
 ! A22   A(1,5,18)             126.688          estimate D2E/DX2                !
 ! A23   A(1,5,21)             126.7334         estimate D2E/DX2                !
 ! A24   A(18,5,21)            106.5144         estimate D2E/DX2                !
 ! A25   A(2,6,7)              110.2979         estimate D2E/DX2                !
 ! A26   A(2,6,22)             125.3366         estimate D2E/DX2                !
 ! A27   A(7,6,22)             124.285          estimate D2E/DX2                !
 ! A28   A(6,7,8)              106.5926         estimate D2E/DX2                !
 ! A29   A(6,7,34)             124.1463         estimate D2E/DX2                !
 ! A30   A(8,7,34)             129.2486         estimate D2E/DX2                !
 ! A31   A(7,8,9)              106.5364         estimate D2E/DX2                !
 ! A32   A(7,8,30)             129.4182         estimate D2E/DX2                !
 ! A33   A(9,8,30)             124.0429         estimate D2E/DX2                !
 ! A34   A(2,9,8)              109.7402         estimate D2E/DX2                !
 ! A35   A(2,9,24)             125.1983         estimate D2E/DX2                !
 ! A36   A(8,9,24)             124.832          estimate D2E/DX2                !
 ! A37   A(3,10,11)            110.8868         estimate D2E/DX2                !
 ! A38   A(3,10,24)            124.837          estimate D2E/DX2                !
 ! A39   A(11,10,24)           124.1089         estimate D2E/DX2                !
 ! A40   A(10,11,12)           106.4401         estimate D2E/DX2                !
 ! A41   A(10,11,38)           125.3349         estimate D2E/DX2                !
 ! A42   A(12,11,38)           128.1606         estimate D2E/DX2                !
 ! A43   A(11,12,13)           105.8462         estimate D2E/DX2                !
 ! A44   A(11,12,42)           126.5624         estimate D2E/DX2                !
 ! A45   A(13,12,42)           127.5911         estimate D2E/DX2                !
 ! A46   A(3,13,12)            110.0265         estimate D2E/DX2                !
 ! A47   A(3,13,26)            124.6297         estimate D2E/DX2                !
 ! A48   A(12,13,26)           124.6162         estimate D2E/DX2                !
 ! A49   A(4,14,15)            110.4634         estimate D2E/DX2                !
 ! A50   A(4,14,26)            125.1267         estimate D2E/DX2                !
 ! A51   A(15,14,26)           124.3947         estimate D2E/DX2                !
 ! A52   A(14,15,16)           106.5314         estimate D2E/DX2                !
 ! A53   A(14,15,47)           124.9672         estimate D2E/DX2                !
 ! A54   A(16,15,47)           128.3747         estimate D2E/DX2                !
 ! A55   A(15,16,17)           106.2671         estimate D2E/DX2                !
 ! A56   A(15,16,51)           129.5359         estimate D2E/DX2                !
 ! A57   A(17,16,51)           124.188          estimate D2E/DX2                !
 ! A58   A(4,17,16)            109.7262         estimate D2E/DX2                !
 ! A59   A(4,17,28)            125.0003         estimate D2E/DX2                !
 ! A60   A(16,17,28)           124.9559         estimate D2E/DX2                !
 ! A61   A(5,18,19)            110.6838         estimate D2E/DX2                !
 ! A62   A(5,18,28)            125.0214         estimate D2E/DX2                !
 ! A63   A(19,18,28)           124.2157         estimate D2E/DX2                !
 ! A64   A(18,19,20)           106.3486         estimate D2E/DX2                !
 ! A65   A(18,19,56)           124.6106         estimate D2E/DX2                !
 ! A66   A(20,19,56)           129.0408         estimate D2E/DX2                !
 ! A67   A(19,20,21)           106.3698         estimate D2E/DX2                !
 ! A68   A(19,20,60)           128.9342         estimate D2E/DX2                !
 ! A69   A(21,20,60)           124.6791         estimate D2E/DX2                !
 ! A70   A(5,21,20)            110.0406         estimate D2E/DX2                !
 ! A71   A(5,21,22)            125.0619         estimate D2E/DX2                !
 ! A72   A(20,21,22)           124.6786         estimate D2E/DX2                !
 ! A73   A(6,22,21)            125.4399         estimate D2E/DX2                !
 ! A74   A(6,22,23)            117.2971         estimate D2E/DX2                !
 ! A75   A(21,22,23)           117.0028         estimate D2E/DX2                !
 ! A76   A(9,24,10)            125.2208         estimate D2E/DX2                !
 ! A77   A(9,24,25)            117.9507         estimate D2E/DX2                !
 ! A78   A(10,24,25)           116.6347         estimate D2E/DX2                !
 ! A79   A(13,26,14)           125.7773         estimate D2E/DX2                !
 ! A80   A(13,26,27)           116.6551         estimate D2E/DX2                !
 ! A81   A(14,26,27)           117.2936         estimate D2E/DX2                !
 ! A82   A(17,28,18)           125.3377         estimate D2E/DX2                !
 ! A83   A(17,28,29)           117.9974         estimate D2E/DX2                !
 ! A84   A(18,28,29)           116.6176         estimate D2E/DX2                !
 ! A85   A(8,30,31)            110.8879         estimate D2E/DX2                !
 ! A86   A(8,30,32)            110.2957         estimate D2E/DX2                !
 ! A87   A(8,30,33)            110.6643         estimate D2E/DX2                !
 ! A88   A(31,30,32)           108.4462         estimate D2E/DX2                !
 ! A89   A(31,30,33)           108.4233         estimate D2E/DX2                !
 ! A90   A(32,30,33)           108.0359         estimate D2E/DX2                !
 ! A91   A(7,34,35)            110.5945         estimate D2E/DX2                !
 ! A92   A(7,34,36)            110.422          estimate D2E/DX2                !
 ! A93   A(7,34,37)            110.8332         estimate D2E/DX2                !
 ! A94   A(35,34,36)           108.0978         estimate D2E/DX2                !
 ! A95   A(35,34,37)           108.4316         estimate D2E/DX2                !
 ! A96   A(36,34,37)           108.3752         estimate D2E/DX2                !
 ! A97   A(11,38,39)           110.8844         estimate D2E/DX2                !
 ! A98   A(11,38,40)           110.5837         estimate D2E/DX2                !
 ! A99   A(11,38,41)           110.6299         estimate D2E/DX2                !
 ! A100  A(39,38,40)           108.018          estimate D2E/DX2                !
 ! A101  A(39,38,41)           108.0833         estimate D2E/DX2                !
 ! A102  A(40,38,41)           108.5462         estimate D2E/DX2                !
 ! A103  A(12,42,43)           115.1943         estimate D2E/DX2                !
 ! A104  A(12,42,44)           126.2071         estimate D2E/DX2                !
 ! A105  A(43,42,44)           118.5581         estimate D2E/DX2                !
 ! A106  A(42,44,45)           122.1984         estimate D2E/DX2                !
 ! A107  A(42,44,46)           121.3676         estimate D2E/DX2                !
 ! A108  A(45,44,46)           116.4117         estimate D2E/DX2                !
 ! A109  A(15,47,48)           111.0165         estimate D2E/DX2                !
 ! A110  A(15,47,49)           110.6196         estimate D2E/DX2                !
 ! A111  A(15,47,50)           109.9564         estimate D2E/DX2                !
 ! A112  A(48,47,49)           108.0466         estimate D2E/DX2                !
 ! A113  A(48,47,50)           108.4645         estimate D2E/DX2                !
 ! A114  A(49,47,50)           108.6641         estimate D2E/DX2                !
 ! A115  A(16,51,52)           115.2209         estimate D2E/DX2                !
 ! A116  A(16,51,53)           125.6189         estimate D2E/DX2                !
 ! A117  A(52,51,53)           119.1592         estimate D2E/DX2                !
 ! A118  A(51,53,54)           122.2941         estimate D2E/DX2                !
 ! A119  A(51,53,55)           121.4043         estimate D2E/DX2                !
 ! A120  A(54,53,55)           116.2839         estimate D2E/DX2                !
 ! A121  A(19,56,57)           110.9132         estimate D2E/DX2                !
 ! A122  A(19,56,58)           110.3104         estimate D2E/DX2                !
 ! A123  A(19,56,59)           110.7845         estimate D2E/DX2                !
 ! A124  A(57,56,58)           108.065          estimate D2E/DX2                !
 ! A125  A(57,56,59)           108.4005         estimate D2E/DX2                !
 ! A126  A(58,56,59)           108.2736         estimate D2E/DX2                !
 ! A127  A(20,60,61)           110.7625         estimate D2E/DX2                !
 ! A128  A(20,60,62)           110.5372         estimate D2E/DX2                !
 ! A129  A(20,60,63)           110.7392         estimate D2E/DX2                !
 ! A130  A(61,60,62)           108.2067         estimate D2E/DX2                !
 ! A131  A(61,60,63)           108.4212         estimate D2E/DX2                !
 ! A132  A(62,60,63)           108.0799         estimate D2E/DX2                !
 ! A133  A(1,64,65)            130.7398         estimate D2E/DX2                !
 ! A134  A(67,66,68)           108.2259         estimate D2E/DX2                !
 ! A135  A(67,66,69)           108.6717         estimate D2E/DX2                !
 ! A136  A(67,66,72)           110.7415         estimate D2E/DX2                !
 ! A137  A(68,66,69)           108.7381         estimate D2E/DX2                !
 ! A138  A(68,66,72)           110.7924         estimate D2E/DX2                !
 ! A139  A(69,66,72)           109.6134         estimate D2E/DX2                !
 ! A140  A(71,70,72)           125.637          estimate D2E/DX2                !
 ! A141  A(71,70,73)           126.6029         estimate D2E/DX2                !
 ! A142  A(72,70,73)           107.7599         estimate D2E/DX2                !
 ! A143  A(66,72,70)           122.5775         estimate D2E/DX2                !
 ! A144  A(66,72,76)           132.1553         estimate D2E/DX2                !
 ! A145  A(70,72,76)           105.2672         estimate D2E/DX2                !
 ! A146  A(70,73,74)           124.3558         estimate D2E/DX2                !
 ! A147  A(70,73,75)           110.6736         estimate D2E/DX2                !
 ! A148  A(74,73,75)           124.9705         estimate D2E/DX2                !
 ! A149  A(1,75,73)            127.1646         estimate D2E/DX2                !
 ! A150  A(1,75,76)            126.1825         estimate D2E/DX2                !
 ! A151  A(73,75,76)           106.612          estimate D2E/DX2                !
 ! A152  A(72,76,75)           109.6872         estimate D2E/DX2                !
 ! A153  A(72,76,77)           129.3453         estimate D2E/DX2                !
 ! A154  A(75,76,77)           120.9674         estimate D2E/DX2                !
 ! A155  L(2,1,4,3,-1)         179.973          estimate D2E/DX2                !
 ! A156  L(3,1,5,2,-1)         179.7781         estimate D2E/DX2                !
 ! A157  L(64,1,75,2,-1)       182.6588         estimate D2E/DX2                !
 ! A158  L(2,1,4,3,-2)         177.0381         estimate D2E/DX2                !
 ! A159  L(3,1,5,2,-2)         185.9065         estimate D2E/DX2                !
 ! A160  L(64,1,75,2,-2)       178.1666         estimate D2E/DX2                !
 ! D1    D(3,1,2,6)           -170.4351         estimate D2E/DX2                !
 ! D2    D(3,1,2,9)             15.1169         estimate D2E/DX2                !
 ! D3    D(5,1,2,6)              3.6584         estimate D2E/DX2                !
 ! D4    D(5,1,2,9)           -170.7896         estimate D2E/DX2                !
 ! D5    D(64,1,2,6)            94.8584         estimate D2E/DX2                !
 ! D6    D(64,1,2,9)           -79.5896         estimate D2E/DX2                !
 ! D7    D(75,1,2,6)           -83.3082         estimate D2E/DX2                !
 ! D8    D(75,1,2,9)           102.2438         estimate D2E/DX2                !
 ! D9    D(2,1,3,10)           -11.6563         estimate D2E/DX2                !
 ! D10   D(2,1,3,13)           167.3696         estimate D2E/DX2                !
 ! D11   D(4,1,3,10)           171.3056         estimate D2E/DX2                !
 ! D12   D(4,1,3,13)            -9.6685         estimate D2E/DX2                !
 ! D13   D(64,1,3,10)           81.5728         estimate D2E/DX2                !
 ! D14   D(64,1,3,13)          -99.4012         estimate D2E/DX2                !
 ! D15   D(75,1,3,10)         -101.0864         estimate D2E/DX2                !
 ! D16   D(75,1,3,13)           77.9395         estimate D2E/DX2                !
 ! D17   D(3,1,4,14)             0.8394         estimate D2E/DX2                !
 ! D18   D(3,1,4,17)          -168.7827         estimate D2E/DX2                !
 ! D19   D(5,1,4,14)          -173.2505         estimate D2E/DX2                !
 ! D20   D(5,1,4,17)            17.1274         estimate D2E/DX2                !
 ! D21   D(64,1,4,14)           95.5543         estimate D2E/DX2                !
 ! D22   D(64,1,4,17)          -74.0678         estimate D2E/DX2                !
 ! D23   D(75,1,4,14)          -86.2706         estimate D2E/DX2                !
 ! D24   D(75,1,4,17)          104.1073         estimate D2E/DX2                !
 ! D25   D(2,1,5,18)           170.3359         estimate D2E/DX2                !
 ! D26   D(2,1,5,21)            -6.3514         estimate D2E/DX2                !
 ! D27   D(4,1,5,18)           -12.613          estimate D2E/DX2                !
 ! D28   D(4,1,5,21)           170.6997         estimate D2E/DX2                !
 ! D29   D(64,1,5,18)           77.0902         estimate D2E/DX2                !
 ! D30   D(64,1,5,21)          -99.5971         estimate D2E/DX2                !
 ! D31   D(75,1,5,18)         -100.2537         estimate D2E/DX2                !
 ! D32   D(75,1,5,21)           83.0589         estimate D2E/DX2                !
 ! D33   D(2,1,64,65)         -134.8344         estimate D2E/DX2                !
 ! D34   D(3,1,64,65)          135.2036         estimate D2E/DX2                !
 ! D35   D(4,1,64,65)           44.9492         estimate D2E/DX2                !
 ! D36   D(5,1,64,65)          -44.6842         estimate D2E/DX2                !
 ! D37   D(2,1,75,73)          137.4661         estimate D2E/DX2                !
 ! D38   D(2,1,75,76)          -45.1755         estimate D2E/DX2                !
 ! D39   D(3,1,75,73)         -132.8093         estimate D2E/DX2                !
 ! D40   D(3,1,75,76)           44.5492         estimate D2E/DX2                !
 ! D41   D(4,1,75,73)          -42.412          estimate D2E/DX2                !
 ! D42   D(4,1,75,76)          134.9464         estimate D2E/DX2                !
 ! D43   D(5,1,75,73)           47.3526         estimate D2E/DX2                !
 ! D44   D(5,1,75,76)         -135.289          estimate D2E/DX2                !
 ! D45   D(1,2,6,7)           -175.4636         estimate D2E/DX2                !
 ! D46   D(1,2,6,22)             1.3819         estimate D2E/DX2                !
 ! D47   D(9,2,6,7)             -0.1454         estimate D2E/DX2                !
 ! D48   D(9,2,6,22)           176.7001         estimate D2E/DX2                !
 ! D49   D(1,2,9,8)            174.4175         estimate D2E/DX2                !
 ! D50   D(1,2,9,24)           -10.8796         estimate D2E/DX2                !
 ! D51   D(6,2,9,8)             -0.9458         estimate D2E/DX2                !
 ! D52   D(6,2,9,24)           173.7571         estimate D2E/DX2                !
 ! D53   D(1,3,10,11)          178.9946         estimate D2E/DX2                !
 ! D54   D(1,3,10,24)            3.5429         estimate D2E/DX2                !
 ! D55   D(13,3,10,11)          -0.1876         estimate D2E/DX2                !
 ! D56   D(13,3,10,24)        -175.6393         estimate D2E/DX2                !
 ! D57   D(1,3,13,12)         -177.1408         estimate D2E/DX2                !
 ! D58   D(1,3,13,26)           12.2703         estimate D2E/DX2                !
 ! D59   D(10,3,13,12)           2.045          estimate D2E/DX2                !
 ! D60   D(10,3,13,26)        -168.5438         estimate D2E/DX2                !
 ! D61   D(1,4,14,15)         -172.1689         estimate D2E/DX2                !
 ! D62   D(1,4,14,26)            6.46           estimate D2E/DX2                !
 ! D63   D(17,4,14,15)          -0.9544         estimate D2E/DX2                !
 ! D64   D(17,4,14,26)         177.6745         estimate D2E/DX2                !
 ! D65   D(1,4,17,16)          171.7864         estimate D2E/DX2                !
 ! D66   D(1,4,17,28)          -14.4309         estimate D2E/DX2                !
 ! D67   D(14,4,17,16)           0.492          estimate D2E/DX2                !
 ! D68   D(14,4,17,28)         174.2746         estimate D2E/DX2                !
 ! D69   D(1,5,18,19)         -178.3502         estimate D2E/DX2                !
 ! D70   D(1,5,18,28)            4.7763         estimate D2E/DX2                !
 ! D71   D(21,5,18,19)          -1.1188         estimate D2E/DX2                !
 ! D72   D(21,5,18,28)        -177.9923         estimate D2E/DX2                !
 ! D73   D(1,5,21,20)          179.2138         estimate D2E/DX2                !
 ! D74   D(1,5,21,22)            4.3916         estimate D2E/DX2                !
 ! D75   D(18,5,21,20)           1.984          estimate D2E/DX2                !
 ! D76   D(18,5,21,22)        -172.8382         estimate D2E/DX2                !
 ! D77   D(2,6,7,8)              1.2299         estimate D2E/DX2                !
 ! D78   D(2,6,7,34)          -179.9488         estimate D2E/DX2                !
 ! D79   D(22,6,7,8)          -175.6557         estimate D2E/DX2                !
 ! D80   D(22,6,7,34)            3.1656         estimate D2E/DX2                !
 ! D81   D(2,6,22,21)           -5.9892         estimate D2E/DX2                !
 ! D82   D(2,6,22,23)         -179.9336         estimate D2E/DX2                !
 ! D83   D(7,6,22,21)          170.4295         estimate D2E/DX2                !
 ! D84   D(7,6,22,23)           -3.5149         estimate D2E/DX2                !
 ! D85   D(6,7,8,9)             -1.7205         estimate D2E/DX2                !
 ! D86   D(6,7,8,30)           178.842          estimate D2E/DX2                !
 ! D87   D(34,7,8,9)           179.5392         estimate D2E/DX2                !
 ! D88   D(34,7,8,30)            0.1017         estimate D2E/DX2                !
 ! D89   D(6,7,34,35)           56.6948         estimate D2E/DX2                !
 ! D90   D(6,7,34,36)          -62.9099         estimate D2E/DX2                !
 ! D91   D(6,7,34,37)          176.9845         estimate D2E/DX2                !
 ! D92   D(8,7,34,35)         -124.764          estimate D2E/DX2                !
 ! D93   D(8,7,34,36)          115.6313         estimate D2E/DX2                !
 ! D94   D(8,7,34,37)           -4.4742         estimate D2E/DX2                !
 ! D95   D(7,8,9,2)              1.7225         estimate D2E/DX2                !
 ! D96   D(7,8,9,24)          -173.0042         estimate D2E/DX2                !
 ! D97   D(30,8,9,2)          -178.802          estimate D2E/DX2                !
 ! D98   D(30,8,9,24)            6.4713         estimate D2E/DX2                !
 ! D99   D(7,8,30,31)           -3.949          estimate D2E/DX2                !
 ! D100  D(7,8,30,32)         -124.0963         estimate D2E/DX2                !
 ! D101  D(7,8,30,33)          116.4126         estimate D2E/DX2                !
 ! D102  D(9,8,30,31)          176.7017         estimate D2E/DX2                !
 ! D103  D(9,8,30,32)           56.5545         estimate D2E/DX2                !
 ! D104  D(9,8,30,33)          -62.9366         estimate D2E/DX2                !
 ! D105  D(2,9,24,10)           -3.0265         estimate D2E/DX2                !
 ! D106  D(2,9,24,25)         -177.7822         estimate D2E/DX2                !
 ! D107  D(8,9,24,10)          170.8967         estimate D2E/DX2                !
 ! D108  D(8,9,24,25)           -3.859          estimate D2E/DX2                !
 ! D109  D(3,10,11,12)          -1.7655         estimate D2E/DX2                !
 ! D110  D(3,10,11,38)        -179.0427         estimate D2E/DX2                !
 ! D111  D(24,10,11,12)        173.7258         estimate D2E/DX2                !
 ! D112  D(24,10,11,38)         -3.5514         estimate D2E/DX2                !
 ! D113  D(3,10,24,9)            6.9982         estimate D2E/DX2                !
 ! D114  D(3,10,24,25)        -178.1841         estimate D2E/DX2                !
 ! D115  D(11,10,24,9)        -167.868          estimate D2E/DX2                !
 ! D116  D(11,10,24,25)          6.9497         estimate D2E/DX2                !
 ! D117  D(10,11,12,13)          2.8622         estimate D2E/DX2                !
 ! D118  D(10,11,12,42)       -176.9883         estimate D2E/DX2                !
 ! D119  D(38,11,12,13)       -179.9628         estimate D2E/DX2                !
 ! D120  D(38,11,12,42)          0.1867         estimate D2E/DX2                !
 ! D121  D(10,11,38,39)         65.208          estimate D2E/DX2                !
 ! D122  D(10,11,38,40)        -54.5894         estimate D2E/DX2                !
 ! D123  D(10,11,38,41)       -174.8824         estimate D2E/DX2                !
 ! D124  D(12,11,38,39)       -111.4701         estimate D2E/DX2                !
 ! D125  D(12,11,38,40)        128.7325         estimate D2E/DX2                !
 ! D126  D(12,11,38,41)          8.4395         estimate D2E/DX2                !
 ! D127  D(11,12,13,3)          -3.126          estimate D2E/DX2                !
 ! D128  D(11,12,13,26)        167.4643         estimate D2E/DX2                !
 ! D129  D(42,12,13,3)         176.7225         estimate D2E/DX2                !
 ! D130  D(42,12,13,26)        -12.6872         estimate D2E/DX2                !
 ! D131  D(11,12,42,43)        -30.5704         estimate D2E/DX2                !
 ! D132  D(11,12,42,44)        147.0677         estimate D2E/DX2                !
 ! D133  D(13,12,42,43)        149.611          estimate D2E/DX2                !
 ! D134  D(13,12,42,44)        -32.7508         estimate D2E/DX2                !
 ! D135  D(3,13,26,14)          -3.2053         estimate D2E/DX2                !
 ! D136  D(3,13,26,27)         170.5924         estimate D2E/DX2                !
 ! D137  D(12,13,26,14)       -172.4464         estimate D2E/DX2                !
 ! D138  D(12,13,26,27)          1.3514         estimate D2E/DX2                !
 ! D139  D(4,14,15,16)           1.067          estimate D2E/DX2                !
 ! D140  D(4,14,15,47)         177.261          estimate D2E/DX2                !
 ! D141  D(26,14,15,16)       -177.574          estimate D2E/DX2                !
 ! D142  D(26,14,15,47)         -1.38           estimate D2E/DX2                !
 ! D143  D(4,14,26,13)          -6.7705         estimate D2E/DX2                !
 ! D144  D(4,14,26,27)         179.4672         estimate D2E/DX2                !
 ! D145  D(15,14,26,13)        171.6727         estimate D2E/DX2                !
 ! D146  D(15,14,26,27)         -2.0896         estimate D2E/DX2                !
 ! D147  D(14,15,16,17)         -0.7144         estimate D2E/DX2                !
 ! D148  D(14,15,16,51)        178.2124         estimate D2E/DX2                !
 ! D149  D(47,15,16,17)       -176.7357         estimate D2E/DX2                !
 ! D150  D(47,15,16,51)          2.1911         estimate D2E/DX2                !
 ! D151  D(14,15,47,48)         84.3675         estimate D2E/DX2                !
 ! D152  D(14,15,47,49)        -35.5756         estimate D2E/DX2                !
 ! D153  D(14,15,47,50)       -155.6016         estimate D2E/DX2                !
 ! D154  D(16,15,47,48)       -100.2883         estimate D2E/DX2                !
 ! D155  D(16,15,47,49)        139.7685         estimate D2E/DX2                !
 ! D156  D(16,15,47,50)         19.7426         estimate D2E/DX2                !
 ! D157  D(15,16,17,4)           0.166          estimate D2E/DX2                !
 ! D158  D(15,16,17,28)       -173.62           estimate D2E/DX2                !
 ! D159  D(51,16,17,4)        -178.8334         estimate D2E/DX2                !
 ! D160  D(51,16,17,28)          7.3806         estimate D2E/DX2                !
 ! D161  D(15,16,51,52)       -147.1565         estimate D2E/DX2                !
 ! D162  D(15,16,51,53)         33.2107         estimate D2E/DX2                !
 ! D163  D(17,16,51,52)         31.598          estimate D2E/DX2                !
 ! D164  D(17,16,51,53)       -148.0348         estimate D2E/DX2                !
 ! D165  D(4,17,28,18)           0.5073         estimate D2E/DX2                !
 ! D166  D(4,17,28,29)        -176.9004         estimate D2E/DX2                !
 ! D167  D(16,17,28,18)        173.3621         estimate D2E/DX2                !
 ! D168  D(16,17,28,29)         -4.0456         estimate D2E/DX2                !
 ! D169  D(5,18,19,20)          -0.1849         estimate D2E/DX2                !
 ! D170  D(5,18,19,56)         179.873          estimate D2E/DX2                !
 ! D171  D(28,18,19,20)        176.7189         estimate D2E/DX2                !
 ! D172  D(28,18,19,56)         -3.2232         estimate D2E/DX2                !
 ! D173  D(5,18,28,17)           4.719          estimate D2E/DX2                !
 ! D174  D(5,18,28,29)        -177.8413         estimate D2E/DX2                !
 ! D175  D(19,18,28,17)       -171.7434         estimate D2E/DX2                !
 ! D176  D(19,18,28,29)          5.6963         estimate D2E/DX2                !
 ! D177  D(18,19,20,21)          1.3519         estimate D2E/DX2                !
 ! D178  D(18,19,20,60)        179.8932         estimate D2E/DX2                !
 ! D179  D(56,19,20,21)       -178.7095         estimate D2E/DX2                !
 ! D180  D(56,19,20,60)         -0.1682         estimate D2E/DX2                !
 ! D181  D(18,19,56,57)         59.8012         estimate D2E/DX2                !
 ! D182  D(18,19,56,58)        -59.8953         estimate D2E/DX2                !
 ! D183  D(18,19,56,59)       -179.7693         estimate D2E/DX2                !
 ! D184  D(20,19,56,57)       -120.1272         estimate D2E/DX2                !
 ! D185  D(20,19,56,58)        120.1763         estimate D2E/DX2                !
 ! D186  D(20,19,56,59)          0.3023         estimate D2E/DX2                !
 ! D187  D(19,20,21,5)          -2.1156         estimate D2E/DX2                !
 ! D188  D(19,20,21,22)        172.7308         estimate D2E/DX2                !
 ! D189  D(60,20,21,5)         179.2642         estimate D2E/DX2                !
 ! D190  D(60,20,21,22)         -5.8895         estimate D2E/DX2                !
 ! D191  D(19,20,60,61)          8.9453         estimate D2E/DX2                !
 ! D192  D(19,20,60,62)       -110.9787         estimate D2E/DX2                !
 ! D193  D(19,20,60,63)        129.2711         estimate D2E/DX2                !
 ! D194  D(21,20,60,61)       -172.7567         estimate D2E/DX2                !
 ! D195  D(21,20,60,62)         67.3193         estimate D2E/DX2                !
 ! D196  D(21,20,60,63)        -52.4309         estimate D2E/DX2                !
 ! D197  D(5,21,22,6)            2.919          estimate D2E/DX2                !
 ! D198  D(5,21,22,23)         176.8794         estimate D2E/DX2                !
 ! D199  D(20,21,22,6)        -171.1635         estimate D2E/DX2                !
 ! D200  D(20,21,22,23)          2.7969         estimate D2E/DX2                !
 ! D201  D(12,42,44,45)         -1.7408         estimate D2E/DX2                !
 ! D202  D(12,42,44,46)       -179.9651         estimate D2E/DX2                !
 ! D203  D(43,42,44,45)        175.826          estimate D2E/DX2                !
 ! D204  D(43,42,44,46)         -2.3984         estimate D2E/DX2                !
 ! D205  D(16,51,53,54)          2.583          estimate D2E/DX2                !
 ! D206  D(16,51,53,55)       -179.0008         estimate D2E/DX2                !
 ! D207  D(52,51,53,54)       -177.0366         estimate D2E/DX2                !
 ! D208  D(52,51,53,55)          1.3797         estimate D2E/DX2                !
 ! D209  D(67,66,72,70)         60.2611         estimate D2E/DX2                !
 ! D210  D(67,66,72,76)       -119.6671         estimate D2E/DX2                !
 ! D211  D(68,66,72,70)        -59.8406         estimate D2E/DX2                !
 ! D212  D(68,66,72,76)        120.2313         estimate D2E/DX2                !
 ! D213  D(69,66,72,70)       -179.8469         estimate D2E/DX2                !
 ! D214  D(69,66,72,76)          0.2249         estimate D2E/DX2                !
 ! D215  D(71,70,72,66)         -0.0286         estimate D2E/DX2                !
 ! D216  D(71,70,72,76)        179.9162         estimate D2E/DX2                !
 ! D217  D(73,70,72,66)       -179.909          estimate D2E/DX2                !
 ! D218  D(73,70,72,76)          0.0358         estimate D2E/DX2                !
 ! D219  D(71,70,73,74)          0.131          estimate D2E/DX2                !
 ! D220  D(71,70,73,75)       -179.8999         estimate D2E/DX2                !
 ! D221  D(72,70,73,74)       -179.9901         estimate D2E/DX2                !
 ! D222  D(72,70,73,75)         -0.021          estimate D2E/DX2                !
 ! D223  D(66,72,76,75)        179.8988         estimate D2E/DX2                !
 ! D224  D(66,72,76,77)         -0.0227         estimate D2E/DX2                !
 ! D225  D(70,72,76,75)         -0.0385         estimate D2E/DX2                !
 ! D226  D(70,72,76,77)       -179.9599         estimate D2E/DX2                !
 ! D227  D(70,73,75,1)         177.7721         estimate D2E/DX2                !
 ! D228  D(70,73,75,76)         -0.0031         estimate D2E/DX2                !
 ! D229  D(74,73,75,1)          -2.259          estimate D2E/DX2                !
 ! D230  D(74,73,75,76)        179.9658         estimate D2E/DX2                !
 ! D231  D(1,75,76,72)        -177.777          estimate D2E/DX2                !
 ! D232  D(1,75,76,77)           2.1521         estimate D2E/DX2                !
 ! D233  D(73,75,76,72)          0.0264         estimate D2E/DX2                !
 ! D234  D(73,75,76,77)        179.9556         estimate D2E/DX2                !
 --------------------------------------------------------------------------------
 Trust Radius=3.00D-01 FncErr=1.00D-07 GrdErr=1.00D-06 EigMax=2.50D+02 EigMin=1.00D-04
 Number of steps in this run=    462 maximum allowed number of steps=    462.
 GradGradGradGradGradGradGradGradGradGradGradGradGradGradGradGradGradGrad

 Stoichiometry    C34H34FeN6O2(5)
 Framework group  C1[X(C34H34FeN6O2)]
 Deg. of freedom   225
 Full point group                 C1      NOp   1
 Largest Abelian subgroup         C1      NOp   1
 Largest concise Abelian subgroup C1      NOp   1
                         Standard orientation:                         
 ---------------------------------------------------------------------
 Center     Atomic      Atomic             Coordinates (Angstroms)
 Number     Number       Type             X           Y           Z
 ---------------------------------------------------------------------
      1         26           0       -0.149706   -0.142917   -0.487600
      2          7           0       -2.163218   -0.281171   -0.515616
      3          7           0       -0.296686    1.858294   -0.568171
      4          7           0        1.859012    0.000132   -0.355476
      5          7           0       -0.014679   -2.125319   -0.201191
      6          6           0       -2.904892   -1.395291   -0.304170
      7          6           0       -4.307343   -1.111319   -0.512619
      8          6           0       -4.388497    0.197155   -0.882464
      9          6           0       -3.036859    0.717093   -0.857903
     10          6           0       -1.414323    2.582023   -0.834821
     11          6           0       -1.140418    3.973175   -0.783081
     12          6           0        0.198984    4.097754   -0.429932
     13          6           0        0.709208    2.756407   -0.346028
     14          6           0        2.586862    1.143847   -0.330078
     15          6           0        3.993806    0.847295   -0.413682
     16          6           0        4.099975   -0.518104   -0.515648
     17          6           0        2.745025   -1.035269   -0.474885
     18          6           0        1.110175   -2.874100   -0.251465
     19          6           0        0.807992   -4.255300   -0.032850
     20          6           0       -0.551801   -4.328385    0.159059
     21          6           0       -1.051075   -2.993747    0.021040
     22          6           0       -2.398135   -2.651473    0.000071
     23          1           0       -3.109160   -3.450985    0.141905
     24          6           0       -2.701138    2.034967   -1.035449
     25          1           0       -3.491701    2.731212   -1.269464
     26          6           0        2.057234    2.428139   -0.263833
     27          1           0        2.755008    3.250362   -0.241537
     28          6           0        2.412380   -2.365951   -0.423927
     29          1           0        3.210292   -3.089993   -0.480197
     30          6           0       -5.586179    1.005644   -1.241421
     31          1           0       -6.481860    0.390127   -1.246559
     32          1           0       -5.463442    1.443929   -2.231179
     33          1           0       -5.730192    1.817785   -0.528013
     34          6           0       -5.395714   -2.117249   -0.361227
     35          1           0       -5.376587   -2.555569    0.636500
     36          1           0       -5.273896   -2.921510   -1.086778
     37          1           0       -6.369245   -1.659829   -0.517003
     38          6           0       -2.139086    5.057130   -1.004283
     39          1           0       -2.899292    5.051434   -0.221295
     40          1           0       -2.641232    4.925777   -1.962663
     41          1           0       -1.655604    6.030282   -0.997917
     42          6           0        0.913878    5.325874   -0.195979
     43          1           0        0.566570    6.178488   -0.768921
     44          6           0        1.907391    5.504878    0.673744
     45          1           0        2.253633    4.716058    1.319506
     46          1           0        2.388816    6.461812    0.785785
     47          6           0        5.078211    1.865224   -0.470585
     48          1           0        5.354024    2.199782    0.531117
     49          1           0        4.757600    2.735334   -1.040298
     50          1           0        5.959646    1.442394   -0.947446
     51          6           0        5.278640   -1.340450   -0.661439
     52          1           0        5.143310   -2.241213   -1.247314
     53          6           0        6.473869   -1.080784   -0.138727
     54          1           0        6.653103   -0.225849    0.489685
     55          1           0        7.313057   -1.735334   -0.304298
     56          6           0        1.817343   -5.351852   -0.025679
     57          1           0        2.567468   -5.185543    0.748645
     58          1           0        2.328873   -5.401401   -0.986640
     59          1           0        1.342303   -6.312128    0.157440
     60          6           0       -1.397101   -5.526745    0.424792
     61          1           0       -0.778583   -6.400421    0.613401
     62          1           0       -2.037218   -5.740920   -0.431680
     63          1           0       -2.036306   -5.363485    1.292372
     64          8           0       -0.011002   -0.348956   -2.237066
     65          8           0        0.783052   -1.078524   -2.934814
     66          6           0       -1.382694    1.376315    4.920842
     67          1           0       -0.641557    1.968849    5.456721
     68          1           0       -1.774801    0.622613    5.603377
     69          1           0       -2.195519    2.028451    4.617283
     70          7           0        0.268310   -0.139177    3.802907
     71          1           0        0.723710   -0.434187    4.651662
     72          6           0       -0.780758    0.740163    3.723204
     73          6           0        0.574836   -0.528652    2.548623
     74          1           0        1.358124   -1.216981    2.303849
     75          7           0       -0.215291    0.049075    1.679146
     76          6           0       -1.064880    0.841274    2.391078
     77          1           0       -1.815005    1.425380    1.899752
 ---------------------------------------------------------------------
 Rotational constants (GHZ):           0.0928988           0.0890267           0.0599530
 General basis read from cards:  (5D, 7F)
 There are   734 symmetry adapted cartesian basis functions of A   symmetry.
 There are   689 symmetry adapted basis functions of A   symmetry.
   689 basis functions,  1398 primitive gaussians,   734 cartesian basis functions
   163 alpha electrons      159 beta electrons
       nuclear repulsion energy      6211.0154477627 Hartrees.
 NAtoms=   77 NActive=   77 NUniq=   77 SFac= 1.00D+00 NAtFMM=   60 NAOKFM=T Big=T
 Integral buffers will be    131072 words long.
 Raffenetti 2 integral format.
 Two-electron integral symmetry is turned on.
 R6APFD:  NTU= -4 IXU= 1 FactS= 1.050
 Nuclear repulsion after empirical dispersion term =     6210.8638934811 Hartrees.
 One-electron integrals computed using PRISM.
 NBasis=   689 RedAO= T EigKep=  2.73D-04  NBF=   689
 NBsUse=   689 1.00D-06 EigRej= -1.00D+00 NBFU=   689
 ExpMin= 4.20D-02 ExpMax= 3.01D+05 ExpMxC= 2.91D+03 IAcc=3 IRadAn=         5 AccDes= 0.00D+00
 Harris functional with IExCor= 3731 and IRadAn=       5 diagonalized for initial guess.
 HarFok:  IExCor= 3731 AccDes= 0.00D+00 IRadAn=         5 IDoV= 1 UseB2=F ITyADJ=14
 ICtDFT=  3500011 ScaDFX=  1.000000  1.000000  1.000000  1.000000
 FoFCou: FMM=F IPFlag=           0 FMFlag=      100000 FMFlg1=        2001
         NFxFlg=           0 DoJE=T BraDBF=F KetDBF=T FulRan=T
         wScrn=  0.000000 ICntrl=       500 IOpCl=  0 I1Cent=   200000004 NGrid=           0
         NMat0=    1 NMatS0=      1 NMatT0=    0 NMatD0=    1 NMtDS0=    0 NMtDT0=    0
 Petite list used in FoFCou.
 Initial guess <Sx>= 0.0000 <Sy>= 0.0000 <Sz>= 2.0000 <S**2>= 6.0000 S= 2.0000
 Requested convergence on RMS density matrix=1.00D-08 within 999 cycles.
 Requested convergence on MAX density matrix=1.00D-06.
 Requested convergence on             energy=1.00D-06.
 No special actions if energy rises.
 EnCoef did   100 forward-backward iterations
 EnCoef did   100 forward-backward iterations
 EnCoef did   100 forward-backward iterations
 EnCoef did   100 forward-backward iterations
 EnCoef did     5 forward-backward iterations
 EnCoef did   100 forward-backward iterations
 Restarting incremental Fock formation.
 Restarting incremental Fock formation.
 Restarting incremental Fock formation.
 SCF Done:  E(UAPFD) =  -3057.18347124     A.U. after   63 cycles
            NFock= 63  Conv=0.47D-08     -V/T= 2.0038
 <Sx>= 0.0000 <Sy>= 0.0000 <Sz>= 2.0000 <S**2>= 6.0991 S= 2.0197
 <L.S>=  0.00000000000    
 Annihilation of the first spin contaminant:
 S**2 before annihilation     6.0991,   after     6.0034

 **********************************************************************

            Population analysis using the SCF Density.

 **********************************************************************

 Orbital symmetries:
 Alpha Orbitals:
       Occupied  (A) (A) (A) (A) (A) (A) (A) (A) (A) (A) (A) (A)
                 (A) (A) (A) (A) (A) (A) (A) (A) (A) (A) (A) (A)
                 (A) (A) (A) (A) (A) (A) (A) (A) (A) (A) (A) (A)
                 (A) (A) (A) (A) (A) (A) (A) (A) (A) (A) (A) (A)
                 (A) (A) (A) (A) (A) (A) (A) (A) (A) (A) (A) (A)
                 (A) (A) (A) (A) (A) (A) (A) (A) (A) (A) (A) (A)
                 (A) (A) (A) (A) (A) (A) (A) (A) (A) (A) (A) (A)
                 (A) (A) (A) (A) (A) (A) (A) (A) (A) (A) (A) (A)
                 (A) (A) (A) (A) (A) (A) (A) (A) (A) (A) (A) (A)
                 (A) (A) (A) (A) (A) (A) (A) (A) (A) (A) (A) (A)
                 (A) (A) (A) (A) (A) (A) (A) (A) (A) (A) (A) (A)
                 (A) (A) (A) (A) (A) (A) (A) (A) (A) (A) (A) (A)
                 (A) (A) (A) (A) (A) (A) (A) (A) (A) (A) (A) (A)
                 (A) (A) (A) (A) (A) (A) (A)
       Virtual   (A) (A) (A) (A) (A) (A) (A) (A) (A) (A) (A) (A)
                 (A) (A) (A) (A) (A) (A) (A) (A) (A) (A) (A) (A)
                 (A) (A) (A) (A) (A) (A) (A) (A) (A) (A) (A) (A)
                 (A) (A) (A) (A) (A) (A) (A) (A) (A) (A) (A) (A)
                 (A) (A) (A) (A) (A) (A) (A) (A) (A) (A) (A) (A)
                 (A) (A) (A) (A) (A) (A) (A) (A) (A) (A) (A) (A)
                 (A) (A) (A) (A) (A) (A) (A) (A) (A) (A) (A) (A)
                 (A) (A) (A) (A) (A) (A) (A) (A) (A) (A) (A) (A)
                 (A) (A) (A) (A) (A) (A) (A) (A) (A) (A) (A) (A)
                 (A) (A) (A) (A) (A) (A) (A) (A) (A) (A) (A) (A)
                 (A) (A) (A) (A) (A) (A) (A) (A) (A) (A) (A) (A)
                 (A) (A) (A) (A) (A) (A) (A) (A) (A) (A) (A) (A)
                 (A) (A) (A) (A) (A) (A) (A) (A) (A) (A) (A) (A)
                 (A) (A) (A) (A) (A) (A) (A) (A) (A) (A) (A) (A)
                 (A) (A) (A) (A) (A) (A) (A) (A) (A) (A) (A) (A)
                 (A) (A) (A) (A) (A) (A) (A) (A) (A) (A) (A) (A)
                 (A) (A) (A) (A) (A) (A) (A) (A) (A) (A) (A) (A)
                 (A) (A) (A) (A) (A) (A) (A) (A) (A) (A) (A) (A)
                 (A) (A) (A) (A) (A) (A) (A) (A) (A) (A) (A) (A)
                 (A) (A) (A) (A) (A) (A) (A) (A) (A) (A) (A) (A)
                 (A) (A) (A) (A) (A) (A) (A) (A) (A) (A) (A) (A)
                 (A) (A) (A) (A) (A) (A) (A) (A) (A) (A) (A) (A)
                 (A) (A) (A) (A) (A) (A) (A) (A) (A) (A) (A) (A)
                 (A) (A) (A) (A) (A) (A) (A) (A) (A) (A) (A) (A)
                 (A) (A) (A) (A) (A) (A) (A) (A) (A) (A) (A) (A)
                 (A) (A) (A) (A) (A) (A) (A) (A) (A) (A) (A) (A)
                 (A) (A) (A) (A) (A) (A) (A) (A) (A) (A) (A) (A)
                 (A) (A) (A) (A) (A) (A) (A) (A) (A) (A) (A) (A)
                 (A) (A) (A) (A) (A) (A) (A) (A) (A) (A) (A) (A)
                 (A) (A) (A) (A) (A) (A) (A) (A) (A) (A) (A) (A)
                 (A) (A) (A) (A) (A) (A) (A) (A) (A) (A) (A) (A)
                 (A) (A) (A) (A) (A) (A) (A) (A) (A) (A) (A) (A)
                 (A) (A) (A) (A) (A) (A) (A) (A) (A) (A) (A) (A)
                 (A) (A) (A) (A) (A) (A) (A) (A) (A) (A) (A) (A)
                 (A) (A) (A) (A) (A) (A) (A) (A) (A) (A) (A) (A)
                 (A) (A) (A) (A) (A) (A) (A) (A) (A) (A) (A) (A)
                 (A) (A) (A) (A) (A) (A) (A) (A) (A) (A) (A) (A)
                 (A) (A) (A) (A) (A) (A) (A) (A) (A) (A) (A) (A)
                 (A) (A) (A) (A) (A) (A) (A) (A) (A) (A) (A) (A)
                 (A) (A) (A) (A) (A) (A) (A) (A) (A) (A) (A) (A)
                 (A) (A) (A) (A) (A) (A) (A) (A) (A) (A) (A) (A)
                 (A) (A) (A) (A) (A) (A) (A) (A) (A) (A) (A) (A)
                 (A) (A) (A) (A) (A) (A) (A) (A) (A) (A) (A) (A)
                 (A) (A) (A) (A) (A) (A) (A) (A) (A) (A)
 Beta  Orbitals:
       Occupied  (A) (A) (A) (A) (A) (A) (A) (A) (A) (A) (A) (A)
                 (A) (A) (A) (A) (A) (A) (A) (A) (A) (A) (A) (A)
                 (A) (A) (A) (A) (A) (A) (A) (A) (A) (A) (A) (A)
                 (A) (A) (A) (A) (A) (A) (A) (A) (A) (A) (A) (A)
                 (A) (A) (A) (A) (A) (A) (A) (A) (A) (A) (A) (A)
                 (A) (A) (A) (A) (A) (A) (A) (A) (A) (A) (A) (A)
                 (A) (A) (A) (A) (A) (A) (A) (A) (A) (A) (A) (A)
                 (A) (A) (A) (A) (A) (A) (A) (A) (A) (A) (A) (A)
                 (A) (A) (A) (A) (A) (A) (A) (A) (A) (A) (A) (A)
                 (A) (A) (A) (A) (A) (A) (A) (A) (A) (A) (A) (A)
                 (A) (A) (A) (A) (A) (A) (A) (A) (A) (A) (A) (A)
                 (A) (A) (A) (A) (A) (A) (A) (A) (A) (A) (A) (A)
                 (A) (A) (A) (A) (A) (A) (A) (A) (A) (A) (A) (A)
                 (A) (A) (A)
       Virtual   (A) (A) (A) (A) (A) (A) (A) (A) (A) (A) (A) (A)
                 (A) (A) (A) (A) (A) (A) (A) (A) (A) (A) (A) (A)
                 (A) (A) (A) (A) (A) (A) (A) (A) (A) (A) (A) (A)
                 (A) (A) (A) (A) (A) (A) (A) (A) (A) (A) (A) (A)
                 (A) (A) (A) (A) (A) (A) (A) (A) (A) (A) (A) (A)
                 (A) (A) (A) (A) (A) (A) (A) (A) (A) (A) (A) (A)
                 (A) (A) (A) (A) (A) (A) (A) (A) (A) (A) (A) (A)
                 (A) (A) (A) (A) (A) (A) (A) (A) (A) (A) (A) (A)
                 (A) (A) (A) (A) (A) (A) (A) (A) (A) (A) (A) (A)
                 (A) (A) (A) (A) (A) (A) (A) (A) (A) (A) (A) (A)
                 (A) (A) (A) (A) (A) (A) (A) (A) (A) (A) (A) (A)
                 (A) (A) (A) (A) (A) (A) (A) (A) (A) (A) (A) (A)
                 (A) (A) (A) (A) (A) (A) (A) (A) (A) (A) (A) (A)
                 (A) (A) (A) (A) (A) (A) (A) (A) (A) (A) (A) (A)
                 (A) (A) (A) (A) (A) (A) (A) (A) (A) (A) (A) (A)
                 (A) (A) (A) (A) (A) (A) (A) (A) (A) (A) (A) (A)
                 (A) (A) (A) (A) (A) (A) (A) (A) (A) (A) (A) (A)
                 (A) (A) (A) (A) (A) (A) (A) (A) (A) (A) (A) (A)
                 (A) (A) (A) (A) (A) (A) (A) (A) (A) (A) (A) (A)
                 (A) (A) (A) (A) (A) (A) (A) (A) (A) (A) (A) (A)
                 (A) (A) (A) (A) (A) (A) (A) (A) (A) (A) (A) (A)
                 (A) (A) (A) (A) (A) (A) (A) (A) (A) (A) (A) (A)
                 (A) (A) (A) (A) (A) (A) (A) (A) (A) (A) (A) (A)
                 (A) (A) (A) (A) (A) (A) (A) (A) (A) (A) (A) (A)
                 (A) (A) (A) (A) (A) (A) (A) (A) (A) (A) (A) (A)
                 (A) (A) (A) (A) (A) (A) (A) (A) (A) (A) (A) (A)
                 (A) (A) (A) (A) (A) (A) (A) (A) (A) (A) (A) (A)
                 (A) (A) (A) (A) (A) (A) (A) (A) (A) (A) (A) (A)
                 (A) (A) (A) (A) (A) (A) (A) (A) (A) (A) (A) (A)
                 (A) (A) (A) (A) (A) (A) (A) (A) (A) (A) (A) (A)
                 (A) (A) (A) (A) (A) (A) (A) (A) (A) (A) (A) (A)
                 (A) (A) (A) (A) (A) (A) (A) (A) (A) (A) (A) (A)
                 (A) (A) (A) (A) (A) (A) (A) (A) (A) (A) (A) (A)
                 (A) (A) (A) (A) (A) (A) (A) (A) (A) (A) (A) (A)
                 (A) (A) (A) (A) (A) (A) (A) (A) (A) (A) (A) (A)
                 (A) (A) (A) (A) (A) (A) (A) (A) (A) (A) (A) (A)
                 (A) (A) (A) (A) (A) (A) (A) (A) (A) (A) (A) (A)
                 (A) (A) (A) (A) (A) (A) (A) (A) (A) (A) (A) (A)
                 (A) (A) (A) (A) (A) (A) (A) (A) (A) (A) (A) (A)
                 (A) (A) (A) (A) (A) (A) (A) (A) (A) (A) (A) (A)
                 (A) (A) (A) (A) (A) (A) (A) (A) (A) (A) (A) (A)
                 (A) (A) (A) (A) (A) (A) (A) (A) (A) (A) (A) (A)
                 (A) (A) (A) (A) (A) (A) (A) (A) (A) (A) (A) (A)
                 (A) (A) (A) (A) (A) (A) (A) (A) (A) (A) (A) (A)
                 (A) (A)
 The electronic state is 5-A.
 Alpha  occ. eigenvalues -- -256.23320 -30.09975 -25.94551 -25.93730 -25.92614
 Alpha  occ. eigenvalues --  -19.24923 -19.21089 -14.43850 -14.38291 -14.36252
 Alpha  occ. eigenvalues --  -14.36186 -14.36003 -14.35953 -10.27206 -10.25201
 Alpha  occ. eigenvalues --  -10.22520 -10.22495 -10.22475 -10.22350 -10.22333
 Alpha  occ. eigenvalues --  -10.22101 -10.21907 -10.21841 -10.21573 -10.21177
 Alpha  occ. eigenvalues --  -10.20963 -10.20804 -10.20554 -10.20420 -10.20397
 Alpha  occ. eigenvalues --  -10.20245 -10.20002 -10.19925 -10.19919 -10.19780
 Alpha  occ. eigenvalues --  -10.19509 -10.19409 -10.19128 -10.19014 -10.18902
 Alpha  occ. eigenvalues --  -10.18851 -10.18767 -10.18757 -10.18713 -10.18654
 Alpha  occ. eigenvalues --  -10.18459 -10.18446  -3.48711  -2.27077  -2.24887
 Alpha  occ. eigenvalues --   -2.22561  -1.16462  -1.06245  -0.97747  -0.96998
 Alpha  occ. eigenvalues --   -0.96493  -0.95756  -0.91588  -0.82983  -0.82090
 Alpha  occ. eigenvalues --   -0.81369  -0.81030  -0.80989  -0.80542  -0.80149
 Alpha  occ. eigenvalues --   -0.80057  -0.78848  -0.76964  -0.75834  -0.74985
 Alpha  occ. eigenvalues --   -0.74551  -0.73317  -0.72504  -0.71105  -0.69996
 Alpha  occ. eigenvalues --   -0.68609  -0.68210  -0.67821  -0.65239  -0.64930
 Alpha  occ. eigenvalues --   -0.64649  -0.61994  -0.60807  -0.60588  -0.57820
 Alpha  occ. eigenvalues --   -0.57718  -0.56617  -0.54786  -0.54299  -0.53868
 Alpha  occ. eigenvalues --   -0.52275  -0.51646  -0.51223  -0.50592  -0.48696
 Alpha  occ. eigenvalues --   -0.48391  -0.48252  -0.48066  -0.47911  -0.47684
 Alpha  occ. eigenvalues --   -0.46430  -0.45966  -0.45450  -0.45050  -0.44844
 Alpha  occ. eigenvalues --   -0.44485  -0.43835  -0.43779  -0.43679  -0.43629
 Alpha  occ. eigenvalues --   -0.43417  -0.43242  -0.43063  -0.42856  -0.42792
 Alpha  occ. eigenvalues --   -0.42446  -0.42179  -0.41727  -0.41169  -0.41117
 Alpha  occ. eigenvalues --   -0.40624  -0.40399  -0.40105  -0.40010  -0.39814
 Alpha  occ. eigenvalues --   -0.39649  -0.39327  -0.39153  -0.38782  -0.38064
 Alpha  occ. eigenvalues --   -0.37810  -0.37538  -0.37127  -0.36700  -0.36466
 Alpha  occ. eigenvalues --   -0.35901  -0.35406  -0.34694  -0.34357  -0.34246
 Alpha  occ. eigenvalues --   -0.33881  -0.32812  -0.32368  -0.32053  -0.31062
 Alpha  occ. eigenvalues --   -0.30435  -0.29857  -0.29477  -0.29213  -0.28553
 Alpha  occ. eigenvalues --   -0.27249  -0.27089  -0.25703  -0.24344  -0.23255
 Alpha  occ. eigenvalues --   -0.22368  -0.22250  -0.21967  -0.21378  -0.20502
 Alpha  occ. eigenvalues --   -0.20460  -0.18507  -0.11283
 Alpha virt. eigenvalues --   -0.06987  -0.02793  -0.01730  -0.00980   0.01441
 Alpha virt. eigenvalues --    0.01808   0.02757   0.05806   0.05906   0.07161
 Alpha virt. eigenvalues --    0.08362   0.09096   0.09676   0.10707   0.10888
 Alpha virt. eigenvalues --    0.11686   0.11782   0.11894   0.12756   0.13106
 Alpha virt. eigenvalues --    0.13425   0.13807   0.14101   0.14384   0.14665
 Alpha virt. eigenvalues --    0.14727   0.15286   0.15813   0.16055   0.16155
 Alpha virt. eigenvalues --    0.16597   0.17185   0.17239   0.17462   0.17508
 Alpha virt. eigenvalues --    0.17559   0.18010   0.18363   0.18537   0.18724
 Alpha virt. eigenvalues --    0.18857   0.19332   0.19466   0.20258   0.20964
 Alpha virt. eigenvalues --    0.21115   0.21229   0.21558   0.21820   0.21987
 Alpha virt. eigenvalues --    0.22569   0.23030   0.23439   0.23636   0.24411
 Alpha virt. eigenvalues --    0.24876   0.25045   0.25677   0.26073   0.26401
 Alpha virt. eigenvalues --    0.26730   0.27076   0.27499   0.27734   0.29316
 Alpha virt. eigenvalues --    0.29949   0.30763   0.30884   0.31661   0.32623
 Alpha virt. eigenvalues --    0.33352   0.34263   0.34733   0.35134   0.36049
 Alpha virt. eigenvalues --    0.36252   0.36544   0.36780   0.37133   0.38863
 Alpha virt. eigenvalues --    0.39679   0.40887   0.41655   0.42039   0.43402
 Alpha virt. eigenvalues --    0.43737   0.43840   0.44488   0.44613   0.46562
 Alpha virt. eigenvalues --    0.47942   0.48072   0.48445   0.49288   0.49589
 Alpha virt. eigenvalues --    0.50095   0.50430   0.50631   0.51005   0.51630
 Alpha virt. eigenvalues --    0.51773   0.52064   0.52529   0.52926   0.53117
 Alpha virt. eigenvalues --    0.53255   0.53542   0.54169   0.54606   0.54881
 Alpha virt. eigenvalues --    0.55221   0.55589   0.55723   0.56372   0.57251
 Alpha virt. eigenvalues --    0.57547   0.57719   0.57937   0.58548   0.58977
 Alpha virt. eigenvalues --    0.59674   0.59851   0.60440   0.60800   0.61148
 Alpha virt. eigenvalues --    0.61420   0.62052   0.62368   0.62983   0.63175
 Alpha virt. eigenvalues --    0.63647   0.64141   0.64757   0.64956   0.65321
 Alpha virt. eigenvalues --    0.65757   0.66103   0.66276   0.66524   0.67061
 Alpha virt. eigenvalues --    0.67180   0.67310   0.67581   0.67992   0.68590
 Alpha virt. eigenvalues --    0.69327   0.69887   0.70260   0.70947   0.71192
 Alpha virt. eigenvalues --    0.71847   0.72056   0.72861   0.73015   0.73546
 Alpha virt. eigenvalues --    0.74005   0.74316   0.74595   0.75024   0.75776
 Alpha virt. eigenvalues --    0.76472   0.76598   0.77326   0.77528   0.77835
 Alpha virt. eigenvalues --    0.78351   0.78881   0.78994   0.79410   0.79676
 Alpha virt. eigenvalues --    0.80098   0.80680   0.80938   0.81265   0.81694
 Alpha virt. eigenvalues --    0.82059   0.82973   0.83455   0.84564   0.85138
 Alpha virt. eigenvalues --    0.85634   0.86028   0.86908   0.87043   0.87482
 Alpha virt. eigenvalues --    0.87608   0.88049   0.88213   0.88491   0.88767
 Alpha virt. eigenvalues --    0.89114   0.89544   0.89981   0.90032   0.90540
 Alpha virt. eigenvalues --    0.90646   0.91211   0.91325   0.91536   0.91735
 Alpha virt. eigenvalues --    0.92836   0.92955   0.93387   0.93718   0.93868
 Alpha virt. eigenvalues --    0.94190   0.95061   0.95452   0.95850   0.96509
 Alpha virt. eigenvalues --    0.96809   0.96964   0.97042   0.97844   0.98529
 Alpha virt. eigenvalues --    0.98801   0.99085   0.99386   0.99906   0.99974
 Alpha virt. eigenvalues --    1.00270   1.00598   1.00993   1.01441   1.01953
 Alpha virt. eigenvalues --    1.02494   1.02765   1.03391   1.04108   1.04770
 Alpha virt. eigenvalues --    1.04912   1.05748   1.06438   1.06738   1.07105
 Alpha virt. eigenvalues --    1.07471   1.08411   1.09590   1.10186   1.11598
 Alpha virt. eigenvalues --    1.11827   1.12170   1.12907   1.13408   1.14430
 Alpha virt. eigenvalues --    1.15647   1.15815   1.16483   1.16972   1.17368
 Alpha virt. eigenvalues --    1.17419   1.17993   1.18528   1.19077   1.20033
 Alpha virt. eigenvalues --    1.20306   1.20870   1.21497   1.22082   1.22424
 Alpha virt. eigenvalues --    1.23370   1.24317   1.24593   1.24774   1.25553
 Alpha virt. eigenvalues --    1.25951   1.26867   1.28413   1.28548   1.30252
 Alpha virt. eigenvalues --    1.30644   1.31117   1.31642   1.31903   1.32876
 Alpha virt. eigenvalues --    1.33563   1.34524   1.34812   1.35663   1.36191
 Alpha virt. eigenvalues --    1.36896   1.37629   1.37796   1.37835   1.38413
 Alpha virt. eigenvalues --    1.39100   1.39679   1.39695   1.40574   1.40918
 Alpha virt. eigenvalues --    1.41877   1.42749   1.43750   1.44688   1.44843
 Alpha virt. eigenvalues --    1.45197   1.46041   1.46897   1.47662   1.48730
 Alpha virt. eigenvalues --    1.48953   1.50140   1.50843   1.51224   1.52711
 Alpha virt. eigenvalues --    1.52858   1.53795   1.54076   1.55035   1.55166
 Alpha virt. eigenvalues --    1.55549   1.56262   1.57044   1.58170   1.58583
 Alpha virt. eigenvalues --    1.59950   1.60218   1.60675   1.61941   1.63034
 Alpha virt. eigenvalues --    1.63325   1.64634   1.65527   1.66010   1.67401
 Alpha virt. eigenvalues --    1.68714   1.69141   1.70105   1.71054   1.71234
 Alpha virt. eigenvalues --    1.72423   1.73262   1.74632   1.76534   1.78428
 Alpha virt. eigenvalues --    1.78925   1.79106   1.79829   1.80629   1.81004
 Alpha virt. eigenvalues --    1.81632   1.81797   1.82395   1.83075   1.83499
 Alpha virt. eigenvalues --    1.84195   1.84397   1.85452   1.86099   1.86366
 Alpha virt. eigenvalues --    1.87188   1.87460   1.88029   1.88370   1.89039
 Alpha virt. eigenvalues --    1.89815   1.90245   1.90773   1.91605   1.92358
 Alpha virt. eigenvalues --    1.92919   1.93040   1.93858   1.94528   1.94761
 Alpha virt. eigenvalues --    1.95625   1.95886   1.96523   1.97105   1.97208
 Alpha virt. eigenvalues --    1.98180   1.99370   1.99995   2.00297   2.00660
 Alpha virt. eigenvalues --    2.00906   2.02764   2.03749   2.04313   2.04471
 Alpha virt. eigenvalues --    2.05050   2.05871   2.06189   2.06708   2.07130
 Alpha virt. eigenvalues --    2.07994   2.08967   2.09038   2.10683   2.11471
 Alpha virt. eigenvalues --    2.12056   2.12246   2.12827   2.14270   2.14583
 Alpha virt. eigenvalues --    2.15337   2.15511   2.16370   2.17538   2.18372
 Alpha virt. eigenvalues --    2.19195   2.19379   2.20490   2.22044   2.22180
 Alpha virt. eigenvalues --    2.22679   2.23219   2.23688   2.24464   2.25172
 Alpha virt. eigenvalues --    2.25482   2.25552   2.26497   2.26972   2.27218
 Alpha virt. eigenvalues --    2.27868   2.28397   2.29144   2.29868   2.30181
 Alpha virt. eigenvalues --    2.30576   2.30784   2.31174   2.31797   2.32281
 Alpha virt. eigenvalues --    2.33308   2.33794   2.34635   2.35015   2.35427
 Alpha virt. eigenvalues --    2.36064   2.36649   2.36959   2.37324   2.37947
 Alpha virt. eigenvalues --    2.38495   2.38971   2.40223   2.40678   2.41103
 Alpha virt. eigenvalues --    2.41794   2.42034   2.42458   2.42990   2.43377
 Alpha virt. eigenvalues --    2.44177   2.44395   2.44937   2.46794   2.47564
 Alpha virt. eigenvalues --    2.48019   2.49842   2.51238   2.52258   2.52438
 Alpha virt. eigenvalues --    2.53239   2.53727   2.53836   2.54352   2.54801
 Alpha virt. eigenvalues --    2.55512   2.56633   2.56769   2.57738   2.58704
 Alpha virt. eigenvalues --    2.59906   2.60498   2.61143   2.61508   2.61976
 Alpha virt. eigenvalues --    2.63409   2.63959   2.65901   2.67122   2.69117
 Alpha virt. eigenvalues --    2.70015   2.70308   2.71494   2.72155   2.73499
 Alpha virt. eigenvalues --    2.74317   2.75997   2.78054   2.78331   2.80111
 Alpha virt. eigenvalues --    2.80660   2.82040   2.86794   2.87937   2.88671
 Alpha virt. eigenvalues --    2.90140   2.91011   2.91844   2.92247   2.94893
 Alpha virt. eigenvalues --    2.96185   2.96631   2.97533   2.97864   2.98522
 Alpha virt. eigenvalues --    2.99769   3.00720   3.03833   3.05115   3.06618
 Alpha virt. eigenvalues --    3.07651   3.10232   3.13295   3.14790   3.15131
[...]
   D115      -2.79367   0.00072  -0.02124   0.05062   0.02978  -2.76390
   D116       0.16772   0.00028  -0.00732   0.01963   0.01240   0.18012
   D117       0.08650  -0.00096  -0.00389  -0.01748  -0.02134   0.06515
   D118      -3.08215  -0.00035  -0.00023  -0.01547  -0.01565  -3.09779
   D119       3.13544  -0.00079   0.00125  -0.01746  -0.01624   3.11920
   D120      -0.03321  -0.00017   0.00492  -0.01544  -0.01054  -0.04375
   D121       1.09558  -0.00012   0.00604  -0.01063  -0.00462   1.09096
   D122      -1.00635   0.00036   0.00651  -0.00912  -0.00264  -1.00900
   D123      -3.09981   0.00010   0.00640  -0.00987  -0.00350  -3.10331
   D124      -1.93580  -0.00039  -0.00018  -0.01066  -0.01081  -1.94661
   D125       2.24545   0.00009   0.00029  -0.00915  -0.00883   2.23661
   D126       0.15199  -0.00017   0.00018  -0.00990  -0.00969   0.14231
   D127      -0.07913   0.00143   0.00103   0.02676   0.02772  -0.05142
   D128       2.87367   0.00213   0.00427   0.02290   0.02702   2.90070
   D129       3.08993   0.00070  -0.00267   0.02431   0.02164   3.11157
   D130      -0.24045   0.00140   0.00057   0.02044   0.02095  -0.21950
   D131      -0.60658   0.00023   0.00857  -0.00973  -0.00111  -0.60769
   D132       2.49309   0.00111   0.00815   0.01309   0.02127   2.51436
   D133       2.50226   0.00104   0.01297  -0.00696   0.00599   2.50825
   D134      -0.68127   0.00192   0.01255   0.01587   0.02838  -0.65289
   D135      -0.02085   0.00020  -0.00820   0.01784   0.00989  -0.01096
   D136       2.97750   0.00070  -0.00018   0.01945   0.01934   2.99684
   D137      -2.95220  -0.00015  -0.01142   0.02249   0.01145  -2.94075
   D138       0.04615   0.00036  -0.00339   0.02410   0.02090   0.06705
   D139       0.02250   0.00005  -0.00203   0.00298   0.00088   0.02338
   D140       3.09982   0.00001  -0.00132   0.00559   0.00420   3.10402
   D141      -3.03296   0.00076  -0.01324   0.02589   0.01278  -3.02017
   D142       0.04436   0.00072  -0.01253   0.02850   0.01611   0.06047
   D143      -0.15395   0.00035   0.00744  -0.00402   0.00353  -0.15042
   D144       3.13381  -0.00013  -0.00105  -0.00486  -0.00573   3.12808
   D145       2.88896  -0.00024   0.02040  -0.02994  -0.00954   2.87943
   D146      -0.10647  -0.00072   0.01191  -0.03078  -0.01880  -0.12526
   D147      -0.02134  -0.00036   0.00246  -0.01359  -0.01117  -0.03251
   D148       3.08939   0.00026   0.00359  -0.00552  -0.00190   3.08749
   D149      -3.09646  -0.00037   0.00185  -0.01664  -0.01482  -3.11128
   D150       0.01426   0.00025   0.00298  -0.00858  -0.00555   0.00871
   D151       1.51630  -0.00025  -0.00685   0.01197   0.00513   1.52143
   D152      -0.58941   0.00007  -0.00570   0.01123   0.00555  -0.58386
   D153      -2.68505  -0.00007  -0.00504   0.00959   0.00456  -2.68049
   D154      -1.70361  -0.00022  -0.00613   0.01555   0.00940  -1.69421
   D155       2.47386   0.00010  -0.00498   0.01481   0.00982   2.48368
   D156       0.37822  -0.00004  -0.00432   0.01316   0.00883   0.38706
   D157       0.01411   0.00064  -0.00211   0.02066   0.01867   0.03278
   D158      -3.07859   0.00216   0.00551   0.02084   0.02668  -3.05190
   D159      -3.09873   0.00011  -0.00317   0.01330   0.01015  -3.08858
   D160       0.09176   0.00163   0.00446   0.01349   0.01816   0.10992
   D161      -2.51260  -0.00063  -0.00623   0.00278  -0.00351  -2.51611
   D162       0.62241  -0.00074  -0.00552  -0.00449  -0.01007   0.61234
   D163       0.59328   0.00002  -0.00496   0.01203   0.00713   0.60041
   D164      -2.55489  -0.00009  -0.00425   0.00476   0.00057  -2.55432
   D165      -0.22230   0.00100   0.03638  -0.04878  -0.01279  -0.23509
   D166      -3.13587   0.00079   0.00849  -0.00726   0.00136  -3.13450
   D167       2.86400  -0.00076   0.02774  -0.04896  -0.02185   2.84215
   D168      -0.04957  -0.00097  -0.00015  -0.00744  -0.00769  -0.05726
   D169      -0.00896  -0.00060   0.00240  -0.01563  -0.01340  -0.02236
   D170      -3.14029  -0.00025  -0.00023  -0.00379  -0.00408   3.13881
   D171       3.06710  -0.00147   0.00516  -0.03340  -0.02863   3.03848
   D172      -0.06423  -0.00112   0.00253  -0.02157  -0.01931  -0.08354
   D173       0.28216  -0.00063  -0.03105   0.04113   0.01058   0.29274
   D174      -3.08384  -0.00061  -0.00373  -0.00009  -0.00397  -3.08781
   D175      -2.78579   0.00048  -0.03414   0.06121   0.02787  -2.75792
   D176       0.13140   0.00050  -0.00682   0.01999   0.01333   0.14472
   D177       0.02744   0.00002  -0.00243   0.00429   0.00195   0.02939
   D178       3.10465   0.00023   0.00354  -0.00229   0.00132   3.10597
   D179      -3.12499  -0.00034   0.00035  -0.00820  -0.00787  -3.13287
   D180      -0.04778  -0.00014   0.00632  -0.01478  -0.00851  -0.05629
   D181       1.03368  -0.00039   0.00282  -0.01188  -0.00912   1.02456
   D182      -1.06241  -0.00010   0.00274  -0.01063  -0.00796  -1.07037
   D183       3.12917  -0.00018   0.00312  -0.01146  -0.00840   3.12077
   D184      -2.09519   0.00004  -0.00044   0.00276   0.00239  -2.09281
   D185       2.09190   0.00033  -0.00053   0.00402   0.00356   2.09545
   D186       0.00029   0.00025  -0.00014   0.00319   0.00311   0.00340
   D187      -0.03724   0.00039   0.00162   0.00788   0.00956  -0.02768
   D188       2.93396  -0.00005   0.01551  -0.02035  -0.00491   2.92904
   D189      -3.11690   0.00014  -0.00419   0.01425   0.01009  -3.10681
   D190      -0.14570  -0.00030   0.00969  -0.01398  -0.00438  -0.15008
   D191       0.17882  -0.00016  -0.00349   0.00493   0.00147   0.18028
   D192      -1.91262  -0.00025  -0.00364   0.00458   0.00096  -1.91166
   D193       2.27083   0.00017  -0.00351   0.00620   0.00271   2.27354
   D194      -3.03817   0.00011   0.00343  -0.00266   0.00075  -3.03743
   D195       1.15358   0.00002   0.00328  -0.00302   0.00024   1.15382
   D196      -0.94616   0.00044   0.00342  -0.00140   0.00200  -0.94416
   D197       0.10073  -0.00093  -0.00875   0.00225  -0.00659   0.09414
   D198       3.09058  -0.00041   0.00140  -0.00221  -0.00107   3.08950
   D199      -2.84988  -0.00043  -0.02410   0.03330   0.00934  -2.84054
   D200       0.13997   0.00010  -0.01395   0.02883   0.01485   0.15482
   D201      -0.05399   0.00097  -0.00052   0.01337   0.01284  -0.04115
   D202       3.12916  -0.00027   0.00079  -0.01202  -0.01124   3.11792
   D203       3.04517   0.00182  -0.00099   0.03644   0.03546   3.08063
   D204      -0.05486   0.00058   0.00032   0.01106   0.01138  -0.04348
   D205       0.06850  -0.00042  -0.00222  -0.00119  -0.00340   0.06510
   D206      -3.09906  -0.00012  -0.00176   0.00566   0.00390  -3.09516
   D207      -3.07971  -0.00054  -0.00151  -0.00853  -0.01005  -3.08976
   D208       0.03591  -0.00024  -0.00106  -0.00167  -0.00274   0.03317
   D209       1.06587  -0.00048  -0.00085  -0.00111  -0.00196   1.06391
   D210      -2.07004  -0.00052  -0.00126  -0.00074  -0.00200  -2.07204
   D211      -1.06827   0.00049   0.00203  -0.00185   0.00018  -1.06809
   D212       2.07901   0.00045   0.00162  -0.00149   0.00014   2.07914
   D213       3.13894   0.00004   0.00065  -0.00133  -0.00068   3.13826
   D214       0.00303   0.00000   0.00024  -0.00096  -0.00072   0.00231
   D215       0.00712   0.00002  -0.00114   0.00291   0.00177   0.00890
   D216      -3.13888   0.00005  -0.00081   0.00262   0.00180  -3.13708
   D217      -3.13449   0.00003  -0.00054   0.00188   0.00133  -3.13316
   D218       0.00269   0.00006  -0.00022   0.00159   0.00136   0.00405
   D219       0.00263  -0.00001  -0.00001  -0.00005  -0.00006   0.00257
   D220       3.13718   0.00005   0.00093  -0.00068   0.00024   3.13743
   D221      -3.13894  -0.00002  -0.00060   0.00096   0.00037  -3.13857
   D222      -0.00438   0.00004   0.00034   0.00033   0.00068  -0.00371
   D223       3.13660  -0.00011   0.00036  -0.00320  -0.00284   3.13376
   D224       0.00604  -0.00004  -0.00081   0.00138   0.00057   0.00661
   D225      -0.00009  -0.00014   0.00002  -0.00288  -0.00287  -0.00296
   D226      -3.13066  -0.00007  -0.00116   0.00170   0.00055  -3.13011
   D227       3.12259  -0.00003  -0.00328   0.00611   0.00286   3.12544
   D228       0.00431  -0.00015  -0.00034  -0.00219  -0.00251   0.00180
   D229      -0.02599   0.00003  -0.00236   0.00551   0.00316  -0.02283
   D230       3.13892  -0.00009   0.00059  -0.00280  -0.00221   3.13671
   D231      -3.11951   0.00005   0.00292  -0.00524  -0.00225  -3.12176
   D232       0.01232  -0.00003   0.00394  -0.00930  -0.00531   0.00701
   D233      -0.00262   0.00019   0.00020   0.00325   0.00342   0.00081
   D234       3.12922   0.00011   0.00122  -0.00081   0.00036   3.12957
         Item               Value     Threshold  Converged?
 Maximum Force            0.033383     0.000450     NO 
 RMS     Force            0.003259     0.000300     NO 
 Maximum Displacement     0.417505     0.001800     NO 
 RMS     Displacement     0.040964     0.001200     NO 
 Predicted change in Energy=-6.374334D-03
 GradGradGradGradGradGradGradGradGradGradGradGradGradGradGradGradGradGrad

 Stoichiometry    C34H34FeN6O2(5)
 Framework group  C1[X(C34H34FeN6O2)]
 Deg. of freedom   225
 Full point group                 C1      NOp   1
 Largest Abelian subgroup         C1      NOp   1
 Largest concise Abelian subgroup C1      NOp   1
                         Standard orientation:                         
 ---------------------------------------------------------------------
 Center     Atomic      Atomic             Coordinates (Angstroms)
 Number     Number       Type             X           Y           Z
 ---------------------------------------------------------------------
      1         26           0       -0.070604   -0.179487   -0.382036
      2          7           0       -1.971817   -0.609234   -0.571238
      3          7           0       -0.474856    1.733907   -0.643174
      4          7           0        1.805841    0.265176   -0.315661
      5          7           0        0.300112   -2.036132   -0.189172
      6          6           0       -2.597616   -1.776171   -0.200046
      7          6           0       -4.016912   -1.695474   -0.438227
      8          6           0       -4.244520   -0.471409   -0.998079
      9          6           0       -2.965565    0.210616   -1.023856
     10          6           0       -1.664767    2.281634   -1.025178
     11          6           0       -1.641464    3.691150   -0.929804
     12          6           0       -0.392019    4.015455   -0.386979
     13          6           0        0.312565    2.797295   -0.261865
     14          6           0        2.384614    1.521067   -0.126753
     15          6           0        3.817769    1.425384   -0.190002
     16          6           0        4.109296    0.109595   -0.448808
     17          6           0        2.840492   -0.589996   -0.495594
     18          6           0        1.508976   -2.638954   -0.326220
     19          6           0        1.441281   -4.022233   -0.019157
     20          6           0        0.121971   -4.269326    0.352895
     21          6           0       -0.570000   -3.049122    0.222776
     22          6           0       -1.949164   -2.893096    0.260611
     23          1           0       -2.548430   -3.754198    0.548193
     24          6           0       -2.820828    1.540568   -1.343775
     25          1           0       -3.690469    2.090016   -1.690209
     26          6           0        1.688150    2.684720   -0.021829
     27          1           0        2.231172    3.612016    0.137186
     28          6           0        2.706954   -1.959322   -0.633044
     29          1           0        3.600479   -2.560067   -0.766666
     30          6           0       -5.523911    0.136918   -1.452066
     31          1           0       -6.367749   -0.556670   -1.353994
     32          1           0       -5.485203    0.445050   -2.508141
     33          1           0       -5.782729    1.040112   -0.877457
     34          6           0       -4.984823   -2.787553   -0.144279
     35          1           0       -4.968505   -3.082845    0.915860
     36          1           0       -4.773490   -3.698954   -0.723669
     37          1           0       -6.015848   -2.494531   -0.375857
     38          6           0       -2.774976    4.604820   -1.237788
     39          1           0       -3.643572    4.443851   -0.578561
     40          1           0       -3.143736    4.489797   -2.268701
     41          1           0       -2.490115    5.658494   -1.121472
     42          6           0        0.091972    5.343733   -0.048314
     43          1           0       -0.234331    6.157751   -0.702087
     44          6           0        0.876956    5.657687    0.995558
     45          1           0        1.193017    4.906305    1.719412
     46          1           0        1.210081    6.681157    1.160189
     47          6           0        4.766354    2.565917   -0.078551
     48          1           0        5.035593    2.796441    0.964036
     49          1           0        4.359291    3.488783   -0.511415
     50          1           0        5.704125    2.338875   -0.602394
     51          6           0        5.400567   -0.520823   -0.671022
     52          1           0        5.426219   -1.333739   -1.402087
     53          6           0        6.555867   -0.186099   -0.073543
     54          1           0        6.603230    0.580076    0.699522
     55          1           0        7.486498   -0.687433   -0.334333
     56          6           0        2.591368   -4.964347   -0.075206
     57          1           0        3.419860   -4.663333    0.586270
     58          1           0        3.021988   -5.048646   -1.085905
     59          1           0        2.305978   -5.980692    0.224802
     60          6           0       -0.499005   -5.569136    0.732853
     61          1           0        0.252378   -6.356415    0.872347
     62          1           0       -1.202018   -5.939163   -0.029952
     63          1           0       -1.066195   -5.508080    1.674125
     64          8           0        0.169709   -0.441958   -2.492323
     65          8           0        1.091085   -1.166804   -2.828263
     66          6           0       -1.964643    1.238023    4.547752
     67          1           0       -1.395486    1.966917    5.142658
     68          1           0       -2.334041    0.462027    5.233765
     69          1           0       -2.842794    1.762939    4.154162
     70          7           0       -0.004477   -0.037573    3.590553
     71          1           0        0.433667   -0.263887    4.471085
     72          6           0       -1.177247    0.680024    3.422397
     73          6           0        0.466411   -0.391937    2.375383
     74          1           0        1.364169   -0.960780    2.186432
     75          7           0       -0.351601    0.061643    1.453911
     76          6           0       -1.373607    0.725412    2.068556
     77          1           0       -2.159061    1.190945    1.491196
 ---------------------------------------------------------------------
 Rotational constants (GHZ):           0.0964444           0.0918014           0.0613940
 Basis read from rwf:  (5D, 7F)
 There are   734 symmetry adapted cartesian basis functions of A   symmetry.
 There are   689 symmetry adapted basis functions of A   symmetry.
   689 basis functions,  1398 primitive gaussians,   734 cartesian basis functions
   163 alpha electrons      159 beta electrons
       nuclear repulsion energy      6289.4623209009 Hartrees.
 NAtoms=   77 NActive=   77 NUniq=   77 SFac= 1.00D+00 NAtFMM=   60 NAOKFM=T Big=T
 Integral buffers will be    131072 words long.
 Raffenetti 2 integral format.
 Two-electron integral symmetry is turned on.
 R6APFD:  NTU= -4 IXU= 1 FactS= 1.050
 Nuclear repulsion after empirical dispersion term =     6289.2968507003 Hartrees.
 One-electron integrals computed using PRISM.
 NBasis=   689 RedAO= T EigKep=  2.88D-04  NBF=   689
 NBsUse=   689 1.00D-06 EigRej= -1.00D+00 NBFU=   689
 Initial guess from the checkpoint file:  "1dp6_05_opt.chk"
 B after Tr=    -0.000000    0.000000   -0.000000
         Rot=    0.999992   -0.002781   -0.000925   -0.002610 Ang=  -0.45 deg.
 Initial guess <Sx>= 0.0000 <Sy>= 0.0000 <Sz>= 2.0000 <S**2>= 6.0589 S= 2.0118
 ExpMin= 4.20D-02 ExpMax= 3.01D+05 ExpMxC= 2.91D+03 IAcc=3 IRadAn=         5 AccDes= 0.00D+00
 Harris functional with IExCor= 3731 and IRadAn=       5 diagonalized for initial guess.
 HarFok:  IExCor= 3731 AccDes= 0.00D+00 IRadAn=         5 IDoV= 1 UseB2=F ITyADJ=14
 ICtDFT=  3500011 ScaDFX=  1.000000  1.000000  1.000000  1.000000
 FoFCou: FMM=F IPFlag=           0 FMFlag=      100000 FMFlg1=        2001
         NFxFlg=           0 DoJE=T BraDBF=F KetDBF=T FulRan=T
         wScrn=  0.000000 ICntrl=       500 IOpCl=  0 I1Cent=   200000004 NGrid=           0
         NMat0=    1 NMatS0=      1 NMatT0=    0 NMatD0=    1 NMtDS0=    0 NMtDT0=    0
 Petite list used in FoFCou.
 Requested convergence on RMS density matrix=1.00D-08 within 999 cycles.
 Requested convergence on MAX density matrix=1.00D-06.
 Requested convergence on             energy=1.00D-06.
 No special actions if energy rises.
 Restarting incremental Fock formation.
 Restarting incremental Fock formation.
 Restarting incremental Fock formation.
 Restarting incremental Fock formation.
 Restarting incremental Fock formation.
 Restarting incremental Fock formation.
 Restarting incremental Fock formation.
 Restarting incremental Fock formation.
 Restarting incremental Fock formation.
 Restarting incremental Fock formation.
 Restarting incremental Fock formation.
 Restarting incremental Fock formation.
 Restarting incremental Fock formation.
 Restarting incremental Fock formation.
 Restarting incremental Fock formation.
 Restarting incremental Fock formation.
 Restarting incremental Fock formation.
 Restarting incremental Fock formation.
 Restarting incremental Fock formation.
 Restarting incremental Fock formation.
 Restarting incremental Fock formation.
 Restarting incremental Fock formation.
 Restarting incremental Fock formation.
 Restarting incremental Fock formation.
 Restarting incremental Fock formation.
 Restarting incremental Fock formation.
 Restarting incremental Fock formation.
 Restarting incremental Fock formation.
 Restarting incremental Fock formation.
 Restarting incremental Fock formation.
 Restarting incremental Fock formation.
 Restarting incremental Fock formation.
 Restarting incremental Fock formation.
 Restarting incremental Fock formation.
 Restarting incremental Fock formation.
 Restarting incremental Fock formation.
 Restarting incremental Fock formation.
 Restarting incremental Fock formation.
 Restarting incremental Fock formation.
 Restarting incremental Fock formation.
 Restarting incremental Fock formation.
 Restarting incremental Fock formation.
 Restarting incremental Fock formation.
 Restarting incremental Fock formation.
 Restarting incremental Fock formation.
 Restarting incremental Fock formation.
 Restarting incremental Fock formation.
 Restarting incremental Fock formation.
 Restarting incremental Fock formation.
 >>>>>>>>>> Convergence criterion not met.
 SCF Done:  E(UAPFD) =  -3057.20902310     A.U. after 1000 cycles
            NFock=999  Conv=0.98D-04     -V/T= 2.0040
 <Sx>= 0.0000 <Sy>= 0.0000 <Sz>= 2.0000 <S**2>= 6.0662 S= 2.0132
 <L.S>=  0.00000000000    
 Annihilation of the first spin contaminant:
 S**2 before annihilation     6.0662,   after     6.0015
 Convergence failure -- run terminated.
 Error termination via Lnk1e in /sw/chem/gaussian/g16_C02/a100.el9/g16/l502.exe at Thu Jan 22 10:54:07 2026.
 Job cpu time:       2 days 23 hours 47 minutes 35.4 seconds.
 Elapsed time:       0 days  1 hours 13 minutes  9.1 seconds.
 File lengths (MBytes):  RWF=    513 Int=      0 D2E=      0 Chk=     64 Scr=      1
