72
 energy: -105.895704586441 gnorm: 0.237024349059 xtb: 6.7.1 (edcfbbe)
Fe          27.64200000000000        3.81700000000000       13.51500000000000
N           25.99900000000000        4.22200000000000       14.67800000000000
N           26.44100000000000        2.92600000000000       12.11300000000000
N           29.26900000000000        3.32300000000000       12.40600000000000
N           28.82800000000000        4.65800000000000       14.95200000000000
C           25.98900000000000        4.90400000000000       15.88100000000000
C           24.61200000000000        5.01100000000000       16.32100000000000
C           23.83700000000000        4.41100000000000       15.40900000000000
C           24.69300000000000        3.90200000000000       14.35800000000000
C           25.06500000000000        2.84700000000000       12.17100000000000
C           24.58800000000000        2.30400000000000       10.91700000000000
C           25.65600000000000        2.06100000000000       10.13400000000000
C           26.84000000000000        2.45400000000000       10.87900000000000
C           29.26300000000000        2.78900000000000       11.13200000000000
C           30.63200000000000        2.74200000000000       10.65600000000000
C           31.42599999999999        3.23900000000000       11.62700000000000
C           30.57700000000000        3.61000000000000       12.74100000000000
C           30.20900000000000        4.62100000000000       14.95500000000000
C           30.66400000000000        5.16100000000000       16.22100000000000
C           29.58800000000000        5.50100000000000       16.94000000000000
C           28.40800000000000        5.19300000000000       16.15600000000000
C           27.09800000000000        5.39400000000000       16.53700000000000
H           26.92500000000000        5.99100000000000       17.43300000000000
C           24.27500000000000        3.22000000000000       13.23700000000000
H           23.22000000000000        2.95000000000000       13.18800000000000
C           28.14500000000000        2.37200000000000       10.43800000000000
H           28.30800000000000        1.93800000000000        9.45100000000000
C           31.00700000000000        4.15600000000000       13.93200000000000
H           32.08500000000000        4.22700000000000       14.07900000000000
C           22.29900000000000        4.27300000000000       15.45200000000000
H           21.87700000000000        5.03400000000000       16.14200000000000
H           22.02300000000000        3.26200000000000       15.81900000000000
H           21.87900000000000        4.43600000000000       14.43600000000000
C           24.13100000000000        5.70100000000000       17.61700000000000
H           23.75000000000000        6.71700000000000       17.37700000000000
H           24.97800000000000        5.79300000000000       18.33000000000000
H           23.31100000000000        5.10800000000000       18.07600000000000
C           23.08900000000000        2.07000000000000       10.62100000000000
H           22.47400000000000        2.68800000000000       11.30900000000000
H           22.83800000000000        0.99900000000000       10.77800000000000
H           22.86300000000000        2.36400000000000        9.57400000000000
C           25.72600000000000        1.48400000000000        8.69400000000000
H           26.71500000000000        1.28400000000000        8.25700000000000
C           24.66700000000000        1.20400000000000        7.92500000000000
H           23.64600000000000        1.37800000000000        8.29600000000000
H           24.80400000000000        0.79600000000000        6.91300000000000
C           31.02600000000000        2.20300000000000        9.26100000000000
H           30.19500000000000        2.38300000000000        8.54600000000000
H           31.21900000000000        1.11100000000000        9.32200000000000
H           31.93400000000000        2.73000000000000        8.89800000000000
C           32.96600000000000        3.42800000000000       11.66900000000000
H           33.41200000000000        3.90100000000000       12.55600000000000
C           33.81300000000000        3.05800000000000       10.70200000000000
H           33.43900000000000        2.57800000000000        9.78600000000000
H           34.89400000000000        3.22900000000000       10.81100000000000
C           32.13800000000000        5.30900000000000       16.65600000000000
H           32.57300000000000        6.21900000000000       16.18900000000000
H           32.71800000000000        4.42100000000000       16.32400000000000
H           32.19500000000000        5.40900000000000       17.76100000000000
C           29.59000000000000        6.11900000000000       18.35600000000000
H           30.50900000000000        6.72800000000000       18.49299999999999
H           29.57600000000000        5.31100000000000       19.11799999999999
H           28.70100000000000        6.77400000000000       18.48100000000000
C           26.53000000000000        7.01000000000000       12.88900000000000
H           26.03300000000000        7.59100000000000       12.08300000000000
H           27.13700000000000        7.71500000000000       13.49600000000000
H           25.73900000000000        6.56700000000000       13.53000000000000
S           27.58300000000000        5.70800000000000       12.20600000000000
H           26.60000000000000        5.08500000000000       11.57300000000000
O           26.98600000000000        1.61700000000000       14.94000000000000
H           26.22000000000000        1.85900000000000       15.46100000000000
H           27.39000000000000        0.82500000000000       14.93500000000000
72
 energy: -105.939933490068 gnorm: 0.097086679748 xtb: 6.7.1 (edcfbbe)
Fe          27.63940811529434        3.75102451606598       13.54930226393942
N           25.99864419096205        4.24031846004521       14.66669110685202
N           26.44253909805040        2.93130167129604       12.10494694675460
N           29.27257707772936        3.31943506334086       12.41425246861896
N           28.82386823806394        4.62232765739226       14.96315018476259
C           25.98095412594999        4.91208790860798       15.86377675605210
C           24.61014677468641        5.02100407732898       16.32860485212327
C           23.82642733515580        4.40681392964394       15.40930349393707
C           24.70120586260663        3.90692767324159       14.36529826549612
C           25.07618169130314        2.83737136079019       12.16003823972585
C           24.57898878661561        2.29293927077528       10.91167453791123
C           25.66009113051582        2.04842963255213       10.11319695920167
C           26.83419371230040        2.45061124348620       10.88111596116745
C           29.27620985454768        2.79296481100284       11.14682641247239
C           30.64045847284343        2.73841129699477       10.64928998283556
C           31.44975429521687        3.23549492659184       11.63054723904897
C           30.57402706675527        3.60588439455587       12.73492366918783
C           30.19534143270313        4.61438193512202       14.96577735988340
C           30.67435434650012        5.16140535695566       16.22265295390083
C           29.58569525998301        5.51709264042436       16.94433950582783
C           28.41817540203967        5.18835865237888       16.14548736469438
C           27.10027868214908        5.39108462652063       16.52380412233978
H           26.92996536404235        5.96409378357676       17.43025785805450
C           24.28650482927618        3.22160023217202       13.23564856767523
H           23.23227675307538        2.97031583127578       13.18390829594807
C           28.14935491096355        2.37569770673491       10.44990416311236
H           28.31178005182078        1.94765768395873        9.46694071905265
C           30.99638026998617        4.15537787279370       13.93408019296880
H           32.06799479957679        4.23578214143963       14.08043373552693
C           22.31823541737022        4.27413305099920       15.44740199152161
H           21.89103085744165        5.01952159180816       16.12519451892039
H           22.02996355379500        3.27939537568320       15.80537731962564
H           21.88959797056158        4.42954076164636       14.45256253223185
C           24.14217202925568        5.69620002167243       17.60112542670156
H           23.75986169413672        6.69967973237704       17.37869772662713
H           24.96218283840848        5.78987747222937       18.31745030068313
H           23.33500089319406        5.11904779657231       18.06398755818886
C           23.10577488397027        2.07729449906282       10.63128221629930
H           22.48706361975614        2.67788304848447       11.30278062047700
H           22.84556405671587        1.02130712128909       10.76979032323526
H           22.86001006084780        2.37302557698700        9.60877630726057
C           25.71705837366665        1.49488186180699        8.72197156725466
H           26.70552881404339        1.30468603270671        8.30617986431670
C           24.67726795433914        1.20635800601951        7.94182495607660
H           23.66073601636987        1.35769755931864        8.27051253850522
H           24.81294845121064        0.80807675894037        6.94129279975436
C           31.00901522285418        2.21161841162750        9.27687563100322
H           30.19858103391542        2.37876339716891        8.56252836767712
H           31.21505323935744        1.13551525761323        9.32478336606784
H           31.89387780413007        2.72448756448910        8.89487460529109
C           32.93669659274347        3.41807119095190       11.65912775714066
H           33.35900051228813        3.89128153196689       12.54479590954322
C           33.79870472333698        3.05477532510021       10.71201186848399
H           33.47325529210632        2.57015702206202        9.80469563219383
H           34.86462755084326        3.22948811166867       10.81880796099278
C           32.12185820560769        5.30426424407921       16.64359611570477
H           32.56358474983538        6.19990586345158       16.19065987991267
H           32.70574363941905        4.43386676073922       16.33050612443153
H           32.19182702301926        5.40064845428657       17.73123583617676
C           29.58413754469866        6.11599353138752       18.33598049550397
H           30.48645000218846        6.71687292272390       18.48698208667701
H           29.56824770161889        5.32668952588033       19.09689736418229
H           28.71360458813341        6.76136220075381       18.47997434493576
C           26.51405887947888        7.01971375183513       12.89671634195545
H           26.04494744057916        7.58520272807070       12.08462814324616
H           27.13410968138589        7.69690758559236       13.49021747061531
H           25.74454442762627        6.57508728017637       13.53253865025651
S           27.57465722187585        5.70995453030144       12.22543915116796
H           26.59648219871767        5.11374111423774       11.54560948824672
O           27.01092649374448        1.67396546541941       14.91784239909222
H           26.23488596558901        1.87227824469916       15.44004662930172
H           27.40234684911122        0.81758535904822       14.92524563344786
72
 energy: -105.955479048260 gnorm: 0.027783862205 xtb: 6.7.1 (edcfbbe)
Fe          27.62383972620644        3.74960409474077       13.55253279383707
N           26.00042195542213        4.24647509101247       14.65967669575620
N           26.44474104822243        2.91284021033282       12.11204245096567
N           29.27327881678764        3.29530589194407       12.43266465029598
N           28.81679655263752        4.57590742902273       14.97802560352012
C           25.97774628967934        4.91391886009396       15.84771315825098
C           24.61367637364516        5.03010752717711       16.32671983560488
C           23.82434939268441        4.40490831100192       15.40403175929713
C           24.71084395347438        3.91228599204794       14.36701613939307
C           25.08646881158968        2.82552297577525       12.15833155667761
C           24.57323317860887        2.28677592780182       10.91699388930727
C           25.66319790796610        2.03815396784412       10.10879211764272
C           26.83047570189617        2.43880803771382       10.89374462382857
C           29.28058420555111        2.78450107672232       11.16849323097182
C           30.63491012923453        2.73306259036425       10.64830775140969
C           31.45720408920273        3.22807061553285       11.63601513926732
C           30.56633859317343        3.58518187729748       12.73997399773114
C           30.17840389534415        4.58644220277546       14.97937224548440
C           30.67572987563661        5.15548392048018       16.21962888574287
C           29.57949765453208        5.52612775682156       16.94150307653081
C           28.42269052056666        5.16586618974687       16.14064189389271
C           27.10277773858317        5.37693649764278       16.51613228138762
H           26.93589857194213        5.93106106781607       17.43015340368538
C           24.29605378426106        3.22974868221209       13.23231681983880
H           23.24097974421906        3.00132692905396       13.17575640513189
C           28.15009946778730        2.37391142881504       10.46641150645464
H           28.31452765348858        1.95920055513573        9.48273069733042
C           30.98409476062002        4.14045619695469       13.94151767704772
H           32.05038393004802        4.24945025580869       14.08213536220005
C           22.33946844909746        4.27305840458062       15.43969109357365
H           21.91118210452212        5.01086385892481       16.11208654259374
H           22.04185663631833        3.28571327569977       15.79110896156997
H           21.90682643718061        4.42427881728332       14.45505296045504
C           24.15631741059716        5.69365450357294       17.58189268331452
H           23.77336008823428        6.69200519758611       17.37135485254936
H           24.96219064283349        5.78667396627675       18.30105244860694
H           23.35490702757518        5.12337076893063       18.04551101990115
C           23.12248053695501        2.08474747625591       10.64067457832944
H           22.50680793196397        2.67073703860917       11.31437422878188
H           22.85518693934914        1.03503737264928       10.76002913538284
H           22.86759691564975        2.38829665747311        9.63118534269361
C           25.71439911949513        1.50648599436494        8.76520433822607
H           26.70688900730013        1.33302709432114        8.36701943223042
C           24.69104101864239        1.20699250352997        7.96683437045422
H           23.66764282158911        1.33560871538738        8.25403619409101
H           24.83874153403016        0.81893606809583        6.97295595435592
C           30.98925538900023        2.22172429399545        9.29356488091515
H           30.17976066618002        2.37360308132937        8.58744248937731
H           31.21025600948626        1.15460687042593        9.33434022236814
H           31.85945364442331        2.73268073197426        8.89848130356643
C           32.89274496428655        3.40565096218251       11.65559176704261
H           33.29200194143384        3.88758400230404       12.54005244036047
C           33.77715346411536        3.04521018075139       10.72695199610448
H           33.50111348048772        2.54958241046665        9.81863770362487
H           34.83144922927018        3.23435338380212       10.84116995686759
C           32.10364206212643        5.29766061141758       16.62639946148537
H           32.55010399635492        6.18466169813119       16.17824856462118
H           32.68936722272279        4.43524957428838       16.32393137766170
H           32.18084933873835        5.39389212632057       17.70564318253233
C           29.57343431974881        6.11767764088565       18.31110198194464
H           30.46833511192215        6.71268379798853       18.47194269965293
H           29.55570699635953        5.33445393708231       19.06926797512638
H           28.71062323417921        6.75574860483007       18.46840847508282
C           26.49958040611592        7.03530440111083       12.90815575005301
H           26.04963285257038        7.58675590269666       12.09045257926025
H           27.13096967301847        7.69129530495791       13.49415045836238
H           25.74464150786531        6.58279884775829       13.53782233526660
S           27.57782442629014        5.73956978372356       12.21802051073879
H           26.60758863456422        5.15368927017483       11.50700804065913
O           27.10007919247252        1.75231891891487       14.90682872553511
H           26.27124433331585        1.88650224107264       15.38113900225225
H           27.40204895861029        0.83081154818327       14.89080633394398
72
 energy: -105.960721220254 gnorm: 0.045412824823 xtb: 6.7.1 (edcfbbe)
Fe          27.62264224406607        3.70634821476775       13.57942240737760
N           26.00298817685615        4.25667904712733       14.64913741196432
N           26.44311594129794        2.90838975153529       12.12648861969258
N           29.26741113444196        3.26943457229356       12.45029419200327
N           28.80859922347767        4.54716514899032       14.98490255497797
C           25.97989680607106        4.91820113920466       15.83751639826522
C           24.61992563770854        5.03728201015456       16.31723570078043
C           23.82972949743404        4.41225398189717       15.39578957277268
C           24.71446115800178        3.92377067579568       14.36084170133040
C           25.08640965108292        2.82624545237119       12.16750650316290
C           24.57064088699201        2.28811964033451       10.93341888303503
C           25.66160045911466        2.03557729527983       10.12712194253133
C           26.82726274591979        2.43150609492864       10.91219224611292
C           29.27043586756747        2.76809867411010       11.18563464925001
C           30.61589423678089        2.72101439758902       10.65651201090094
C           31.44205289317458        3.21262733450682       11.64315565416558
C           30.55648900803726        3.56250689557031       12.75190974648356
C           30.16678208995564        4.56092938671319       14.98401307913282
C           30.66671179688014        5.14453130082494       16.21349452415475
C           29.57159433096954        5.52185353849858       16.93299171935656
C           28.41791875431288        5.14816145609496       16.13919309763879
C           27.10276499307870        5.36535624655522       16.51615609146030
H           26.93859550161567        5.90277442509749       17.43939155951011
C           24.29455711385061        3.24234507112314       13.23175846525762
H           23.23635085932338        3.03471663233024       13.16825839830401
C           28.14270484832404        2.36400599078949       10.48198049812255
H           28.30869119026154        1.96219424116054        9.49392714594816
C           30.97579637840893        4.12159677432176       13.94878539332631
H           32.03969883153489        4.25491186157300       14.08473385734033
C           22.34823173360862        4.27270662526470       15.42991808311995
H           21.91890816256440        5.00860976600431       16.10476935095472
H           22.05336535280762        3.28188123457085       15.77740798401637
H           21.91662302276300        4.42384415551267       14.44347899026624
C           24.16737198171969        5.69813179828129       17.57237646850128
H           23.78619677689483        6.69873032559185       17.36403988241132
H           24.97534650571402        5.78720670688237       18.29134361196772
H           23.36495439243727        5.12593353580458       18.03403770563995
C           23.12325891145661        2.09354067689178       10.65245229575747
H           22.51039657020252        2.66483188641811       11.34338519007123
H           22.85519901878031        1.03948973811595       10.74609913004303
H           22.86869489406350        2.42233040896419        9.64901023624424
C           25.72242296743449        1.50941762211608        8.78965408853820
H           26.72311748541023        1.35348232504522        8.40383389790722
C           24.71235412751127        1.19621900646393        7.97654716735178
H           23.67707460831098        1.29752351955924        8.24316375773804
H           24.88590872677838        0.81781980057414        6.98331349496114
C           30.96422239410365        2.22542768433730        9.29812340656265
H           30.13987618166035        2.36229466090664        8.60371301349402
H           31.20808069533175        1.16150155541418        9.33524230529259
H           31.82083278334219        2.75640611818006        8.89478451452889
C           32.86882246326680        3.39894077447640       11.66180363233060
H           33.25115802713334        3.89777165050519       12.54464661723376
C           33.77014730560041        3.03496573245489       10.74825051790747
H           33.52540189024035        2.50859480569594        9.84354190107263
H           34.81860632463236        3.24497106184078       10.87913503489079
C           32.09470712552577        5.28902610772554       16.61009361851764
H           32.53985512215684        6.17424443640685       16.15468770052899
H           32.67820154263342        4.42353069329249       16.30780731556681
H           32.17570192321698        5.38952527287733       17.68969172980675
C           29.55970070600037        6.12280139473067       18.29553983990720
H           30.45513105625595        6.71809004163902       18.45743497522530
H           29.53811892618730        5.33843695675698       19.05410561115465
H           28.69479198670911        6.76074995857726       18.44979005671583
C           26.49469474983423        7.04015712951409       12.92018945313875
H           26.05846497401694        7.59697185096199       12.09793084829431
H           27.13080819731607        7.68661015654405       13.51268739903584
H           25.73220204872283        6.59141012952163       13.54333763246095
S           27.57064017285415        5.73139000318845       12.23820036839770
H           26.61432875212282        5.20455458807830       11.44847245917049
O           27.22885990119611        1.84002885933339       14.90931428261007
H           26.31578127431672        1.90745333798178       15.28251106548452
H           27.43471598063077        0.87684865545698       14.81536934082218
72
 energy: -105.963603660827 gnorm: 0.034084499902 xtb: 6.7.1 (edcfbbe)
Fe          27.61574831066129        3.71511876034870       13.58111608765685
N           26.00728344032600        4.26554804761948       14.63744941434839
N           26.44107470012015        2.90189072632343       12.14817168782040
N           29.25714147782097        3.23984271727689       12.47265842155425
N           28.79760539263808        4.51565411834245       14.99011710875012
C           25.98403400728446        4.91942363583398       15.82863043552289
C           24.62831169853177        5.04280702264614       16.30619928223405
C           23.83767456183744        4.42129750276351       15.38667510016729
C           24.71782163056588        3.93532103692788       14.35395710887808
C           25.08415756220354        2.82720007471451       12.18140399908363
C           24.56855674898763        2.29067170653452       10.95440093810730
C           25.65938913207340        2.03252117903679       10.15409949893190
C           26.82369001976381        2.42087927629494       10.93731431447449
C           29.25533553128342        2.74584510049579       11.20734393545711
C           30.59085366858663        2.70438064982602       10.67000575356069
C           31.41941585860723        3.18979849590121       11.65428556429843
C           30.54371562935044        3.53203885666306       12.76946846021802
C           30.15314039901011        4.52736845856955       14.98886595890992
C           30.65382502858456        5.12675454022728       16.20671815735966
C           29.56204826618190        5.51031173358022       16.92267617746057
C           28.41042907902348        5.12359801493750       16.13891952137136
C           27.10258707630166        5.34849222026356       16.51914537747153
H           26.94169584804360        5.86709906326744       17.45264255377709
C           24.28973838099431        3.25796288199657       13.23170403543470
H           23.22764545220915        3.07637209431641       13.15925041991007
C           28.13231248929363        2.35036062853977       10.50133860981426
H           28.30061191996752        1.96426405604337        9.50773849857893
C           30.96648104850087        4.09578740081828       13.95884116587837
H           32.02728647733196        4.25458406441917       14.09129403291471
C           22.35630092805146        4.27344152953400       15.41777137439414
H           21.92469098175386        5.00667201662277       16.09658350547322
H           22.06670527126243        3.27695779058983       15.75990007320749
H           21.92713549624270        4.42615791022816       14.42793199378120
C           24.18045405104167        5.70336582016242       17.56381415374495
H           23.80322844875881        6.70773723359632       17.35666888073742
H           24.99267536998452        5.78649018665775       18.28212536040382
H           23.37552529038950        5.12930446842317       18.02298711415392
C           23.12236815822402        2.10474270295421       10.66169201311915
H           22.50946228841820        2.65679123577949       11.37268590321041
H           22.85356580927117        1.04521709031677       10.72226198275447
H           22.87436939583169        2.46563870731435        9.66385838130590
C           25.73195244142475        1.51376227836720        8.81422849396244
H           26.74116953553557        1.38040556324327        8.43936979637858
C           24.73511891719809        1.18645867942264        7.98860865863911
H           23.68864420028215        1.25989835937158        8.23743688037282
H           24.93905882211480        0.82093378019735        6.99456989583808
C           30.93646527627671        2.22948176015528        9.30332242189849
H           30.09469581995416        2.34908046784672        8.62172908423449
H           31.20883058484499        1.16941423123013        9.33298291199413
H           31.77722972224403        2.78863975988792        8.89493769867894
C           32.84417385769348        3.38907651612800       11.67084076782741
H           33.20879964705541        3.91374194874771       12.54765420069121
C           33.76024055042213        3.01670524970167       10.77388324652618
H           33.54442438207328        2.46027466803553        9.87383193949508
H           34.80229024684579        3.25511118695763       10.92192546976978
C           32.08564345870148        5.27523968617919       16.59125799186453
H           32.52751400379660        6.15889308084179       16.12479815389586
H           32.66564565905938        4.40482460756419       16.28790965650692
H           32.17225503537522        5.38213694116485       17.67180262720953
C           29.54314709744804        6.12625180119232       18.27934363758184
H           30.43979528600796        6.72277480526982       18.44108963524730
H           29.51565671655962        5.34175416829750       19.04046873847491
H           28.67517160591892        6.76599927151943       18.42521228099206
C           26.49332495917581        7.05358434033878       12.93320564745254
H           26.06001410984092        7.62021704773321       12.11518793504647
H           27.13235917509486        7.69056086525253       13.53635563617739
H           25.72817541880924        6.59755657517882       13.55196473717251
S           27.57565168054792        5.75538284738194       12.23013478362076
H           26.63358994098191        5.26213803488434       11.39606400482155
O           27.24895421203001        1.84659632414702       14.75992134151342
H           26.45028020292943        1.95796720644133       15.24950307764190
H           27.52863510845457        0.94242719061038       14.80474629224422
72
 energy: -105.965566878928 gnorm: 0.020322272666 xtb: 6.7.1 (edcfbbe)
Fe          27.60450099463613        3.79102530828132       13.54037037221121
N           26.00844044325548        4.26609347082024       14.63532615214016
N           26.43445089335832        2.91454052444708       12.15306593541566
N           29.24715291168905        3.23633065105327       12.47946457669584
N           28.78948914448428        4.50871053563943       14.98709730388064
C           25.98377495314423        4.91681229865932       15.83004593119497
C           24.62856499016512        5.04512790569655       16.30587728856034
C           23.83713382600387        4.42953526450813       15.38467379622508
C           24.71551267078884        3.94345106561197       14.35177063069426
C           25.07682070855458        2.83454910761367       12.18475995958694
C           24.56424362709089        2.28952354723831       10.96015327982088
C           25.65598343251796        2.02576560223336       10.16571645639873
C           26.81759071982081        2.41815466390634       10.94800944932891
C           29.24618458001108        2.73435161474133       11.21711456414255
C           30.58129569078842        2.69073947393300       10.68011273311184
C           31.41005016282878        3.17275745192481       11.66361938802985
C           30.53651227275862        3.51714555360242       12.77780914479461
C           30.14596744142972        4.51480507779069       14.98969637304058
C           30.64751637076279        5.11548872433599       16.20584909058684