72
 energy: -105.979698122048 gnorm: 0.000134940846 xtb: 6.7.1 (edcfbbe)
Fe          13.84523561136952       -0.57353275949323        9.61846152499959
N           12.08624645423670       -1.56117471849962        9.67693752831361
N           13.72079106578202       -0.24434446747371       11.57950887636477
N           15.55330262918930        0.43635780869097        9.53384520225073
N           13.89170770664173       -0.82661237950383        7.62467849741872
C           11.39082976780851       -2.07288172601409        8.62322225632013
C           10.19619977149534       -2.74418463921646        9.07925857129013
C           10.18985543281102       -2.63623966262747       10.43613799290628
C           11.37122720114756       -1.88498473736096       10.79049324545908
C           12.77260829200034       -0.71784049625202       12.43190676914291
C           13.01792616065351       -0.25679749745707       13.77393513123548
C           14.12514490310949        0.54325117214713       13.70981920556643
C           14.56439795933083        0.50807887599273       12.32823407234375
C           16.20257745769602        1.01602940396285       10.57668617314443
C           17.45602214891958        1.58676011905846       10.14761756908738
C           17.55342642983122        1.33378643272887        8.80676595189907
C           16.34119613125019        0.62120030882444        8.44673116021807
C           14.89643218724492       -0.45787442031419        6.78581138908777
C           14.58539503569338       -0.82784188252697        5.42428139410648
C           13.36149500191524       -1.42194607594319        5.45835881097225
C           12.94912639038609       -1.42230340930961        6.84271895834998
C           11.77349828398286       -1.99174597910004        7.29641409292331
H           11.11961701579014       -2.43587224714231        6.56239116325739
C           11.69458244081130       -1.51164130989754       12.08008028701089
H           11.03472358666128       -1.83291759893250       12.87082999553581
C           15.74360058167991        1.06640812867150       11.87897710538219
H           16.36576109666255        1.55670920696246       12.61070309887649
C           16.05318656884654        0.19535966338619        7.16452423319312
H           16.77961199857430        0.39900868530580        6.39348609650053
C            9.19544241805272       -3.14857404120538       11.41969359659133
H            9.67526883818458       -3.81055684988082       12.14079015180456
H            8.40584718530221       -3.70277066318384       10.91850980084626
H            8.74045281898243       -2.32408629835281       11.96923359226929
C            9.21291382466516       -3.41054498392259        8.17993856321224
H            9.68728972815522       -4.21928078786521        7.62303350160448
H            8.80666318039297       -2.69886791834561        7.46086065608460
H            8.38776271568911       -3.82736666639793        8.75177552604792
C           12.16361514989500       -0.56559427024650       14.95398387358375
H           12.05959021231065       -1.64327240517407       15.08285869954401
H           11.16623857335195       -0.14304066118944       14.82733299656536
H           12.59720502327834       -0.14663863883641       15.85829285163262
C           14.73154183795229        1.28269040809929       14.79815998749929
H           14.73924822719991        0.77549267644334       15.75690075748870
C           15.22120484036426        2.51387702352672       14.71199867778411
H           15.18467636271266        3.07842950397147       13.79572938253364
H           15.65172702028724        3.01082898987872       15.56546428830042
C           18.38884559681242        2.35294890527087       11.01728894924469
H           19.02014083975086        1.67792248856577       11.59702843204730
H           17.83701838017722        2.97976521430939       11.71575227872148
H           19.03006185126594        2.98772116965001       10.40919887534877
C           18.59938700111083        1.70377448559233        7.87852466220548
H           18.27242707240567        1.93970881083309        6.87244402704941
C           19.89528676428174        1.76478433886322        8.16593795491328
H           20.27997807494765        1.49516413589717        9.13388010198506
H           20.62232493129576        2.06206306931575        7.42853282197152
C           15.47689452645432       -0.56754838145700        4.25982843471153
H           16.44595469367667       -1.04495809531624        4.40559719703396
H           15.64320309903647        0.50290684518813        4.13669830253420
H           15.03891713353901       -0.95393834523669        3.34287833269584
C           12.55544753182113       -1.99070014801106        4.34181671792147
H           13.05966950907939       -1.84637343572590        3.38973565885240
H           11.57864719661872       -1.50940415992511        4.28887079782603
H           12.39781389906868       -3.05984100580968        4.48757011575433
O           12.64095371497979        1.27747361381297        9.21755920575823
H           11.75717748062753        0.96748892518599        9.44640706345006
H           12.68485548238473        1.32741448699956        8.25560078425791
C           14.59592766657764       -3.76118198923994        8.72935780687030
H           14.87675884995547       -4.76078086383641        9.04620463873584
H           15.17512207647795       -3.46696729687680        7.86055151618240
H           13.53728078746146       -3.70107145459008        8.50254545459052
S           15.00755779977468       -2.57417692583699       10.05623710511865
H           14.14493477208949       -3.08413260358778       10.94257950759973
