78
 energy: -116.057499652907 gnorm: 0.000105001542 xtb: 6.7.1 (edcfbbe)
Fe         -23.06151219459314       24.38599252433916       -5.21779404075990
N          -22.13197504961276       22.81889888518960       -4.40904030738925
N          -23.53859409294069       25.05901521403889       -3.40367887586948
N          -24.01274575890131       25.95297664049980       -6.05301297429967
N          -22.67520502796534       23.66262897985086       -7.05408926175889
C          -21.49943548217262       21.81223540382872       -5.06468260828904
C          -20.90508144011035       20.88309216088943       -4.12721622581524
C          -21.19602676259919       21.35526005751110       -2.88654673904083
C          -21.96560105963376       22.56503859777995       -3.08418135378222
C          -23.21327288681250       24.48822125004667       -2.21367151975106
C          -23.75305919138534       25.24850267581325       -1.11663171961568
C          -24.44224866716057       26.29224490579559       -1.67160338024363
C          -24.26859009243485       26.16540259401977       -3.10643592689338
C          -24.56509984686797       27.00920694976425       -5.39246934586567
C          -25.05542978909063       27.99338119328123       -6.32082136342394
C          -24.79781202361223       27.50361985660967       -7.57528149762104
C          -24.13193788296109       26.23178581814073       -7.37774174617260
C          -23.03087649379142       24.21579463430414       -8.24645725474461
C          -22.57086900008546       23.39764924494789       -9.34599984710858
C          -21.91351052394702       22.34456896581953       -8.78920647382908
C          -21.98534829031307       22.53040515253085       -7.35760272295968
C          -21.42689807137942       21.66466266580634       -6.43703795971191
H          -20.89557180392071       20.80673834164542       -6.81952618460253
C          -22.46442621764525       23.33470263670880       -2.05271362074382
H          -22.26850335597641       23.00622199470605       -1.04311488066973
C          -24.70012028656953       27.10759751891096       -4.01900345882957
H          -25.17905683513463       27.99074113026452       -3.62641335025487
C          -23.71015709255952       25.40938925776235       -8.40792113423064
H          -23.90734361573822       25.73284492901376       -9.41845165140202
C          -20.83987988208575       20.79357420285364       -1.55269292254983
H          -20.25106447399865       19.88589118730124       -1.65972772197544
H          -21.74038839889759       20.55321457008116       -0.98733115773839
H          -20.25956531450915       21.51264812083858       -0.97363340377779
C          -20.14098149220289       19.66529223278764       -4.51990278360364
H          -19.28327388194977       19.93278303472177       -5.13756859622334
H          -20.77203049865723       18.98637246437216       -5.09383495366999
H          -19.77935107653073       19.13534887386287       -3.64212116911963
C          -23.61460638973221       24.89023252715204        0.32281226347662
H          -22.56364959795909       24.79682317947846        0.59873894582168
H          -24.10211028375628       23.93666188941571        0.52762225445211
H          -24.07378898550949       25.64858285719015        0.95194624173591
C          -25.19835315659812       27.30670861547673       -0.96679975385448
H          -24.76653182310925       27.63649208093593       -0.02753738347791
C          -26.36444455403065       27.81315232446834       -1.35151695963186
H          -26.86480042478782       27.48072907668847       -2.24501692521794
H          -26.87349523170593       28.56256122385177       -0.76814289294362
C          -25.66152991328731       29.29941190699983       -5.94280200984204
H          -25.17478834208266       29.70753732492660       -5.05851824093695
H          -26.72413305383426       29.18662867824961       -5.72065769449287
H          -25.55630302029935       30.01029954376417       -6.76004852909433
C          -25.07469129049596       28.09666076486191       -8.86455464482693
H          -24.35921630575889       27.87098642266229       -9.64709963954842
C          -26.11812579307460       28.86821017227685       -9.15234896780888
H          -26.88554059724467       29.08777859272065       -8.43100581820825
H          -26.25341179572871       29.28828531656339      -10.13525752080919
C          -22.80527293675115       23.71228511864446      -10.78384755906217
H          -22.32584780170745       24.65375126629682      -11.05418247191148
H          -23.87210836871578       23.80640249888959      -10.98800152061110
H          -22.40245748950177       22.92919583155229      -11.42141717797413
C          -21.23562978259715       21.19627426618417       -9.45434218476111
H          -20.17624142968424       21.17673577900135       -9.19766196934478
H          -21.32439296320785       21.26739493993361      -10.53563227110569
H          -21.67779030481652       20.25237236574460       -9.13462902794727
O          -25.05521790887929       23.25740090307436       -5.36687559463726
H          -25.64083307242425       23.99077985220364       -5.58458365421352
H          -24.90493261477115       22.76406203151116       -6.18072613182695
C          -18.69684319912791       27.58185018902987       -6.56946343973240
H          -17.71491649236086       27.11193959765923       -6.62469220377947
H          -18.58839959925435       28.53919617773594       -6.05987217299667
H          -19.05304770083017       27.76353980857929       -7.57855101918956
N          -19.47090802139770       26.31230694793603       -4.55422374003619
H          -18.68897119844551       26.56156727373932       -3.97106108336095
C          -19.66007501423577       26.70882919842325       -5.85216407615583
C          -20.52006695062942       25.53333201099707       -4.20644364010937
H          -20.63914850442800       25.07967274664796       -3.24394692931110
N          -21.36123607867271       25.41271509505353       -5.20483827662455
C          -20.83964144849012       26.13793381992082       -6.23540779861828
H          -21.34365670532243       26.20077491693231       -7.17708864715924
