78
 energy: -115.978537537749 gnorm: 0.282821829455 xtb: 6.7.1 (edcfbbe)
Fe         -22.92800000000000       24.48100000000000       -5.21700000000000
N          -22.28000000000000       22.84800000000000       -4.41000000000000
N          -23.61800000000000       25.08400000000000       -3.37600000000000
N          -23.99100000000000       25.92200000000000       -6.02600000000000
N          -22.65500000000000       23.72600000000000       -7.09400000000000
C          -21.62000000000000       21.81900000000000       -5.09100000000000
C          -21.00600000000000       20.95300000000000       -4.14900000000000
C          -21.24700000000000       21.43100000000000       -2.93300000000000
C          -22.03800000000000       22.60600000000000       -3.06200000000000
C          -23.24900000000000       24.52400000000000       -2.17700000000000
C          -23.80900000000000       25.31300000000000       -1.08700000000000
C          -24.47700000000000       26.30700000000000       -1.65700000000000
C          -24.34200000000000       26.18600000000000       -3.10800000000000
C          -24.64099999999999       26.95500000000000       -5.37500000000000
C          -25.15000000000000       27.87800000000000       -6.33700000000000
C          -24.80000000000000       27.45200000000000       -7.53100000000000
C          -24.07600000000000       26.23800000000000       -7.35200000000000
C          -22.97200000000000       24.31700000000000       -8.26400000000000
C          -22.60100000000000       23.42300000000000       -9.36500000000000
C          -22.04900000000000       22.36900000000000       -8.80500000000000
C          -22.05700000000000       22.53700000000000       -7.38200000000000
C          -21.58200000000000       21.64400000000000       -6.45600000000000
H          -21.13900000000000       20.72100000000000       -6.83100000000000
C          -22.51200000000000       23.37400000000000       -2.02300000000000
H          -22.28700000000000       23.04800000000000       -1.00800000000000
C          -24.86799999999999       27.05900000000000       -4.01000000000000
H          -25.49300000000000       27.87300000000000       -3.64500000000000
C          -23.56600000000000       25.52400000000000       -8.43700000000000
H          -23.64600000000000       25.94300000000000       -9.43900000000000
C          -20.78000000000000       20.82000000000000       -1.59400000000000
H          -20.05000000000000       20.00600000000000       -1.79200000000000
H          -21.65200000000000       20.39800000000000       -1.05000000000000
H          -20.28900000000000       21.60200000000000       -0.97600000000000
C          -20.18800000000000       19.69600000000000       -4.55800000000000
H          -19.16600000000000       20.00300000000000       -4.86600000000000
H          -20.68400000000000       19.18700000000000       -5.41200000000000
H          -20.11100000000000       19.00100000000000       -3.69500000000000
C          -23.62000000000000       24.96700000000000        0.40800000000000
H          -22.56300000000000       25.14500000000000        0.69900000000000
H          -23.86600000000000       23.89699999999999        0.58000000000000
H          -24.27800000000000       25.61199999999999        1.02900000000000
C          -25.23500000000000       27.43700000000000       -0.95800000000000
H          -24.79799999999999       28.02900000000000       -0.14200000000000
C          -26.46200000000000       27.67800000000000       -1.38400000000000
H          -26.89600000000000       27.08300000000000       -2.20100000000000
H          -27.06500000000000       28.47600000000000       -0.92700000000000
C          -25.99400000000000       29.12500000000000       -6.00400000000000
H          -25.71200000000000       29.50600000000000       -4.99900000000000
H          -27.07200000000000       28.85800000000000       -5.99800000000000
H          -25.80400000000000       29.91900000000000       -6.75700000000000
C          -25.08500000000000       28.02100000000000       -8.94000000000000
H          -24.40900000000000       27.77800000000000       -9.77300000000000
C          -26.11700000000000       28.79700000000000       -9.19500000000000
H          -26.82200000000000       29.06900000000000       -8.39600000000000
H          -26.28800000000000       29.18300000000000      -10.21100000000000
C          -22.83299999999999       23.76900000000000      -10.83800000000000
H          -22.28000000000000       24.69800000000000      -11.09200000000000
H          -23.91700000000000       23.93400000000000      -11.01900000000000
H          -22.46200000000000       22.94200000000000      -11.48100000000000
C          -21.51500000000000       21.10600000000000       -9.51900000000000
H          -20.41000000000000       21.17300000000000       -9.61500000000000
H          -21.96100000000000       21.03200000000000      -10.53400000000000
H          -21.77000000000000       20.20300000000000       -8.92500000000000
O          -24.84400000000000       23.34800000000000       -5.48800000000000
H          -25.49500000000000       23.99300000000000       -5.76700000000000
H          -24.98400000000000       22.47900000000000       -5.36500000000000
C          -18.31600000000000       27.71200000000000       -6.33700000000000
H          -17.49300000000000       27.06800000000000       -6.71400000000000
H          -17.90500000000000       28.41600000000000       -5.58200000000000
H          -18.74900000000000       28.27900000000000       -7.18900000000000
N          -19.07500000000000       26.05500000000000       -4.64100000000000
H          -18.20400000000000       26.05800000000000       -4.15000000000000
C          -19.37900000000000       26.85200000000000       -5.70500000000000
C          -20.12400000000000       25.29300000000000       -4.38400000000000
H          -20.14700000000000       24.52800000000000       -3.60900000000000
N          -21.10200000000000       25.60800000000000       -5.19900000000000
C          -20.63600000000000       26.55200000000000       -6.06800000000000
H          -21.25400000000000       26.92600000000000       -6.87500000000000
78
 energy: -116.029848584552 gnorm: 0.107807294744 xtb: 6.7.1 (edcfbbe)
Fe         -22.98469212725355       24.46516449344742       -5.22486185416476
N          -22.22031218491033       22.86142845919830       -4.41063815588490
N          -23.58616509215305       25.09438639080138       -3.36693958543797
N          -23.97283067988530       25.96172827040342       -6.03985491100617
N          -22.62644348674248       23.73307809689935       -7.09226109070885
C          -21.60977672020894       21.82053525533365       -5.08503336458825
C          -20.99377248181610       20.92607542038472       -4.15223922737743
C          -21.23727143713467       21.41126633872406       -2.91409338741010
C          -22.02159879336829       22.60318202085033       -3.06930199191507
C          -23.24861855040177       24.52639879345060       -2.17225788655650
C          -23.79608859550912       25.30900012092765       -1.07449167350640
C          -24.47336751128933       26.33015837324546       -1.64336792092092
C          -24.33592521840260       26.18496827044974       -3.09176223642856
C          -24.65233663979866       26.96451158052120       -5.38600557463695
C          -25.17337949652788       27.90439172831073       -6.34052377792969
C          -24.80524125287417       27.47166313370364       -7.56887120673096
C          -24.05964663048400       26.26138376475066       -7.36656754993970
C          -22.95506419562007       24.30853472920794       -8.27012327529556
C          -22.59417418408980       23.43130321472528       -9.37959387586231
C          -22.04220241712517       22.34177195953339       -8.81767305145268
C          -22.05843236319595       22.53343942060554       -7.38707273448430
C          -21.58200739698448       21.64223108737490       -6.45439165493282
H          -21.13309799476291       20.72964528052209       -6.82755443200966
C          -22.50852881501244       23.37148786873211       -2.02674661221405
H          -22.28818339139324       23.04530285116581       -1.01681297919614
C          -24.86369470083583       27.05744264171322       -4.01710035141171
H          -25.47184907702593       27.87505309380996       -3.65294444257933
C          -23.55937792457676       25.52627713393262       -8.43178289017475
H          -23.66082698954127       25.92760189679932       -9.42980197830375
C          -20.78268890737884       20.82396085276795       -1.59812318005773
H          -20.06287737204929       20.02125306405491       -1.78281288510065
H          -21.63780601248629       20.40953070522654       -1.05329094609036
H          -20.30021649875437       21.58911463674178       -0.98133485450191
C          -20.19342517812533       19.70320059718957       -4.55276024177383
H          -19.18387416222841       19.99896788103210       -4.86136059425769
H          -20.67597246855972       19.19216161368015       -5.39084003660961
H          -20.11358475994367       19.00898468533760       -3.71216463775051
C          -23.61976911377606       24.97179573395984        0.39054232530058
H          -22.57916722902165       25.14084086427076        0.69175179469668
H          -23.86509264403852       23.91996941213462        0.57396740555696
H          -24.26763898011560       25.60007039006683        1.01029790275394
C          -25.23825215943203       27.41998276107250       -0.97618313897253
H          -24.78892484537421       27.99119421084494       -0.16500683739116
C          -26.47057962457013       27.68120549499248       -1.38416904273712
H          -26.91642479554528       27.09634906071373       -2.17947084169114
H          -27.06605426581571       28.46873565594468       -0.93461646552813
C          -25.98848548737247       29.12559805042238       -5.99631252767848
H          -25.71744735956111       29.50556178071846       -5.00765517107278
H          -27.05428674156565       28.86856617712879       -5.99506420159043
H          -25.80603696203358       29.90907032555818       -6.73735976972003
C          -25.08536253688348       28.02909382458958       -8.92129990506123
H          -24.40718797209079       27.77354958547646       -9.73378411718770
C          -26.12382987574093       28.80212650316538       -9.19309497482413
H          -26.83547548691656       29.06846617949213       -8.42451010553452
H          -26.29314153537063       29.18251426237221      -10.19504844112468
C          -22.82942625251741       23.76845218346182      -10.82791534416603
H          -22.28782921290190       24.68385710619769      -11.09070421888413
H          -23.89702190746367       23.93057051260465      -11.01589589675755
H          -22.47220151653982       22.95867535064576      -11.47155397263694
C          -21.51440149367516       21.10872446160480       -9.51468423979739
H          -20.42440556385598       21.16859312381293       -9.61231299552658
H          -21.95124929285711       21.02836964243363      -10.51429366401662
H          -21.76707537887224       20.21325666829573       -8.94020960645030
O          -24.85780709666237       23.36461212332360       -5.47254535156188
H          -25.52560082880908       23.97815918815518       -5.77329056145063
H          -25.01298623257377       22.44481482516833       -5.36460213673332
C          -18.31985851138781       27.71276613794350       -6.33536597972337
H          -17.50276669788139       27.08514329901341       -6.71117952668847
H          -17.90887211731385       28.41212638971526       -5.59862082262134
H          -18.74221207062363       28.27410095913435       -7.17208922459753
N          -19.06710624897995       26.05248336501230       -4.64430222589230
H          -18.19269973369911       26.05640950081303       -4.14923938064753
C          -19.36756232975966       26.84612070804225       -5.71513416912784
C          -20.14034263453599       25.29353214531869       -4.37855798629976
H          -20.16394229308639       24.54210088321514       -3.60805925592740
N          -21.11934674505059       25.57183139913572       -5.20874348951850
C          -20.64729818205757       26.53753303994459       -6.05933792705246
H          -21.25947833522103       26.91849098852847       -6.85598886291360
78
 energy: -116.043853703224 gnorm: 0.026164119435 xtb: 6.7.1 (edcfbbe)
Fe         -23.00953267277150       24.45819281591691       -5.23429512289875
N          -22.18168753919700       22.86461805911856       -4.41414675300829
N          -23.56509120505929       25.09772512921000       -3.37237022500150
N          -23.96249163398204       25.98714294987907       -6.05232997341810
N          -22.61415865965335       23.73478933557382       -7.08854058686220
C          -21.59017346292559       21.83077004875415       -5.07992213326976
C          -20.98354133110688       20.90928468503531       -4.15228634346541
C          -21.22787981835537       21.39917454124366       -2.90450920073147
C          -21.99766376786576       22.60884221858224       -3.08236420631537
C          -23.23612146798853       24.53415745060300       -2.18038838549198
C          -23.78334875159311       25.30466946231178       -1.08077019741859
C          -24.47270515905389       26.33823774354253       -1.64715596804472
C          -24.32327809719649       26.18481700921348       -3.08972532830532
C          -24.65211353907636       26.97257234480514       -5.39950255589783
C          -25.19038143073815       27.92117018371378       -6.34410472195822
C          -24.80885094796258       27.49296596305568       -7.59073726469184
C          -24.04188925903278       26.28607529378121       -7.37570390918328
C          -22.93688058082801       24.30472552176196       -8.27240797462040
C          -22.58381186894391       23.43832517858028       -9.38067610473863
C          -22.03886514200052       22.32433762873427       -8.82210534071792
C          -22.05620634435331       22.53423136830196       -7.38846996660150
C          -21.56755503997503       21.64777937547813       -6.45197386975621
H          -21.12025952514580       20.73807567987738       -6.82271981214931
C          -22.48941310992353       23.37731244930118       -2.03848875519511
H          -22.28684753252983       23.03977277200906       -1.03152153871698
C          -24.84251394193824       27.05977250649451       -4.02849416688328
H          -25.43725290389953       27.88136658908831       -3.66129161693431
C          -23.54803174445674       25.53059069835063       -8.42369358101289
H          -23.68226489156447       25.90598497749211       -9.42511212093830
C          -20.78766898320885       20.82774674377197       -1.60100743408210
H          -20.07235480640640       20.02800206214737       -1.76917631156962
H          -21.63438146989571       20.42163552979240       -1.05006011188041
H          -20.31165704792249       21.58627135372560       -0.98396330838265
C          -20.20045534017020       19.70536602266768       -4.54489372189277
H          -19.19683595295075       19.99411431724476       -4.85768599766046
H          -20.67470545534018       19.18979974746992       -5.37521154822887
H          -20.11457130783650       19.01012570509969       -3.71587753334905
C          -23.61809485056045       24.97781721250538        0.36589461723742
H          -22.58654775727930       25.13980642371995        0.68030677703371
H          -23.86520384340674       23.93542925431782        0.55895160623653
H          -24.26364494994271       25.59957564457693        0.98082508012747
C          -25.24164213244631       27.39186550588312       -1.00063609431629
H          -24.77544115074777       27.93825316273263       -0.18802644302618
C          -26.48040904563264       27.68134248300531       -1.38246631563058
H          -26.95103914545812       27.11150768779815       -2.16393189656403
H          -27.06112106646190       28.46628966427271       -0.92988444848315
C          -25.98541682616280       29.12691116588265       -5.99188324633832
H          -25.71719204315815       29.50186941077221       -5.00954322276950
H          -27.04906105872870       28.88721344600394       -5.98755294235630
H          -25.80968769717108       29.91156023130736       -6.72242958813094
C          -25.09040258290009       28.04372561060112       -8.89320165001166
H          -24.40278061539196       27.77996193493995       -9.68696719556057
C          -26.13449608372544       28.81161993066616       -9.19018493961852
H          -26.86752128205054       29.07123895054177       -8.45198310514421
H          -26.29413825639634       29.18586460349403      -10.18643846169089
C          -22.82134970612477       23.76695874434225      -10.81448358188128
H          -22.28906357241519       24.67656801906416      -11.08873485668767
H          -23.88171882848678       23.92808287691606      -11.00466534105087
H          -22.47535868142241       22.96457697159794      -11.45986821662875
C          -21.51591844098160       21.11074781408152       -9.50892819136163
H          -20.43217532204058       21.16312488297657       -9.60640024797099
H          -21.94296876662225       21.02475346766067      -10.50395860951420
H          -21.76513128079461       20.21406991749392       -8.94887115401588
O          -24.89036406127438       23.38485146278958       -5.39893450446840
H          -25.57518720555750       23.93732582014733       -5.79729343386234
H          -25.03743008763355       22.43351052524052       -5.38696700145717
C          -18.33065123497645       27.71139581892819       -6.33559207066067
H          -17.50994068534802       27.10118090543078       -6.71297834217877
H          -17.92398166824018       28.40898239489075       -5.60567967632023
H          -18.75086909155242       28.27222741515835       -7.16151173840651
N          -19.06406887626208       26.04083315238418       -4.64701255067871
H          -18.18845035511335       26.04451961749969       -4.14924552568415
C          -19.36243615057471       26.83128851705399       -5.72512248108052
C          -20.15320530408302       25.29032959971486       -4.37195099031983
H          -20.18521096002130       24.55597556523415       -3.59483963610223
N          -21.13026830593759       25.55550066659377       -5.20366031190055
C          -20.65277616438646       26.51590326135564       -6.05456639651771
H          -21.26419312968092       26.90689879869434       -6.84089998097127
78
 energy: -116.045895083790 gnorm: 0.069593250910 xtb: 6.7.1 (edcfbbe)
Fe         -23.01807410827762       24.45652342426175       -5.24130431260672
N          -22.15087517576902       22.86958929920875       -4.41870786561223
N          -23.53889683388292       25.10648357449154       -3.38448719396187
N          -23.95256249261072       26.00535092473431       -6.06080488481612
N          -22.61115455628272       23.73391356763932       -7.08468049711601
C          -21.56951835840096       21.83541015776514       -5.07973841024226
C          -20.97137071107383       20.90426618192835       -4.15073812617998
C          -21.21575406086683       21.39765997433721       -2.90321375981096
C          -21.97497850255808       22.61560330283070       -3.09069727141290
C          -23.21412938031403       24.54181693046352       -2.19363428923566
C          -23.76783003766471       25.30368591396951       -1.09736736273631
C          -24.46933535345582       26.33403918928133       -1.66260515819811
C          -24.30628877558668       26.18728225711836       -3.09948417991138
C          -24.64343865583888       26.98345142213656       -5.40701064156459
C          -25.19545343178468       27.93172379357549       -6.34317816593955
C          -24.81203033607059       27.50873389511901       -7.59546450644248
C          -24.03349325922467       26.30341909206550       -7.38216153832920
C          -22.92812588313766       24.30569885075681       -8.27122108751466
C          -22.57327157781409       23.44270170693337       -9.37494754252929
C          -22.03294887098059       22.32105529957208       -8.81898503101229
C          -22.05060143548202       22.53482423914670       -7.38602460362354
C          -21.55040192702140       21.64995808437664       -6.45168657208731
H          -21.09770258859550       20.74382119517337       -6.82277150731968
C          -22.46779170777993       23.38334510639267       -2.04881046639777
H          -22.27616596194462       23.03897069571395       -1.04271857427366
C          -24.82030933273950       27.06669974627201       -4.03614583956357
H          -25.40269547017496       27.89396561010943       -3.66180821204469
C          -23.54582581180912       25.53224525459636       -8.42098802311352
H          -23.70262280387034       25.88668670448953       -9.42790266981743
C          -20.79093132114731       20.83205948248543       -1.59485847036451
H          -20.07757295054024       20.02710841707803       -1.74796277924271
H          -21.64231051494999       20.43473535109845       -1.04359464456967
H          -20.31793965559807       21.59276441807027       -0.97753595189129
C          -20.19965218202545       19.69580983180282       -4.53961999291660
H          -19.19615990343209       19.97823321151595       -4.86024178161856
H          -20.67858194429049       19.17503543378976       -5.36457940048855
H          -20.11113519962378       19.00339846388808       -3.70830900407704
C          -23.61387985585988       24.98042857632660        0.34709479802248
H          -22.58442565311905       25.13955939050292        0.67044666735477
H          -23.86639867989734       23.93976245270960        0.54276369401224
H          -24.26377076878023       25.60672272458246        0.95216304749593
C          -25.24863229979423       27.36949008767910       -1.01474646694874
H          -24.77266790922702       27.89490202338115       -0.19396526658958
C          -26.48889999837245       27.68091379296360       -1.37854482538197
H          -26.98386087504597       27.12803354036560       -2.15874339667435
H          -27.05586685999316       28.46531664910064       -0.90912965248492
C          -25.98488880083254       29.13624445334580       -5.98341558627696
H          -25.71239636514693       29.50592393590770       -4.99960876405640
H          -27.05145869624720       28.90756921679198       -5.97476971911753
H          -25.81169373278548       29.92494362913628       -6.71097509713941
C          -25.09994092467040       28.06513549749633       -8.88616027854444
H          -24.39842147753104       27.80984524319952       -9.67002956593718
C          -26.14823918528276       28.82590276709908       -9.19698412411441
H          -26.90711436415385       29.07101717864695       -8.47750325466428
H          -26.29536772991400       29.20113752330314      -10.19360187414468
C          -22.81330228620081       23.76664736580631      -10.80706124078138
H          -22.28380062732181       24.67578149544277      -11.08858990411335
H          -23.87455113193082       23.92693463891076      -10.99411873730173
H          -22.47135058654517       22.96222436078570      -11.45143619182047
C          -21.51298028569392       21.10810793570809       -9.50400340224700
H          -20.42816754238260       21.15457115863403       -9.59819887603267
H          -21.93481059389806       21.02186345923943      -10.50166182298556
H          -21.76547317532401       20.20803057640940       -8.94959193994079
O          -24.95388177812393       23.40608650397711       -5.25952847763891
H          -25.61215085453810       23.88623369815082       -5.85773835504441
H          -25.05733094515800       22.42091033842302       -5.44652255280942
C          -18.34736486938836       27.70577970820162       -6.33628757326442
H          -17.51577110019509       27.11423148074469       -6.72051783309283
H          -17.94989435773806       28.40528974813569       -5.60313188997744
H          -18.77641014966972       28.26891874034009       -7.15609838909100
N          -19.06832015799499       26.02381271527076       -4.64744987283697
H          -18.19248394490582       26.02805293949904       -4.14925260923277
C          -19.36718716600637       26.80985769678473       -5.73084604574581
C          -20.16360562164511       25.28174287197438       -4.36342317794655
H          -20.20616089975970       24.56596234257593       -3.56935119128565
N          -21.13706908712642       25.53939778054413       -5.19917042817059
C          -20.65930869143333       26.49209860760732       -6.05395551681004
H          -21.27276889774609       26.88854515010763       -6.83536398805795
78
 energy: -116.049545494690 gnorm: 0.020797934469 xtb: 6.7.1 (edcfbbe)
Fe         -23.01971083485485       24.45594910153940       -5.24749266846081
N          -22.13034129568848       22.87202995166280       -4.42349367247455
N          -23.51747057280540       25.11322562582716       -3.39846792529566
N          -23.94537400727682       26.01727194743739       -6.06807401655230
N          -22.61171454358494       23.73199299932093       -7.08233030864611
C          -21.55154618738392       21.83721116375215       -5.08158001106260
C          -20.96085683701365       20.90289726066656       -4.14925244997395
C          -21.20579835399384       21.39844302549161       -2.90494611697657
C          -21.95766213741656       22.62038872607244       -3.09691814674260
C          -23.19444873876533       24.54718874705516       -2.20759191820124
C          -23.75643048504875       25.30229398309915       -1.11526678698223
C          -24.46771809622252       26.32534295293263       -1.68017628810919
C          -24.29253192441648       26.18813741265213       -3.11259747024431
C          -24.63460338713058       26.99253458561908       -5.41282151234692
C          -25.19620795324772       27.93845119460196       -6.34249711253668
C          -24.81467903514859       27.51999634180410       -7.59538579533432
C          -24.02968608697033       26.31548216086707       -7.38818120565951
C          -22.92280101749770       24.30820750308926       -8.27032693952331
C          -22.56301273947836       23.44594499268910       -9.36940241711268
C          -22.02567707698737       22.32299905640931       -8.81526953289191
C          -22.04371295400416       22.53550599462310       -7.38385351976010
C          -21.53356075392616       21.65136596152546       -6.45281847939267
H          -21.07463659052426       20.74848685017783       -6.82501378241602
C          -22.44971386952531       23.38811239263094       -2.05784550458774
H          -22.26586588530328       23.03960169485616       -1.05175523171720
C          -24.80240844511908       27.07282370258911       -4.04257977721285
H          -25.37574312590680       27.90422319737489       -3.66097434104784
C          -23.54615939968685       25.53311654064752       -8.42144833167224
H          -23.71729682279096       25.87258351053183       -9.43273012783925
C          -20.79384836877116       20.83565642970659       -1.58819607439322
H          -20.08161644146432       20.02468676189034       -1.72901978425950
H          -21.65264644580097       20.44586416234801       -1.03907353419765
H          -20.32275705380419       21.60024982619998       -0.97074654545866
C          -20.19656768920900       19.68535889489242       -4.53580689125348
H          -19.19215047916128       19.96291301192925       -4.86376154216258
H          -20.68299990380097       19.16047628776986       -5.35649727615166
H          -20.10686985589644       18.99683523064302       -3.69897155577840
C          -23.61173433532013       24.98066413925088        0.33176580396301
H          -22.58251047044457       25.13801615891228        0.66159449275790
H          -23.86993478141200       23.93990561219447        0.52787893113664
H          -24.26632462753921       25.61320712274243        0.92783132876715
C          -25.25658899471935       27.35061507279744       -1.02495418737275
H          -24.77448239193943       27.85934544043119       -0.19572537425142
C          -26.49666172506834       27.67798008168708       -1.37546140058785
H          -27.01089252542876       27.14230619615170       -2.15934244437538
H          -27.05220853635515       28.46208110122310       -0.88790053090682
C          -25.98506406675702       29.14513666379545       -5.97682153161372
H          -25.70749979647711       29.51037463289175       -4.99011141537368
H          -27.05470356360117       28.92289669876826       -5.96410331890702
H          -25.81317483297339       29.93783825930588       -6.70348684275672
C          -25.10780059473444       28.08439365365705       -8.88565536616017
H          -24.39277839196665       27.84076842716874       -9.66275464465463
C          -26.15984333833854       28.83721633869379       -9.20468403558139
H          -26.93865301142678       29.07105168293610       -8.49736254111303
H          -26.29536053479988       29.21632984162378      -10.20273102389261
C          -22.80459975364613       23.76741677752855      -10.80330928837416
H          -22.27574421127496       24.67737399307464      -11.08905447106284
H          -23.86831706569144       23.92707699957241      -10.98670181904786
H          -22.46400546289151       22.95931802600025      -11.44612502499366
C          -21.50734097360341       21.10608077767707       -9.50062087200707
H          -20.42004371688227       21.14793474317436       -9.59052284164701
H          -21.92565990706140       21.02128592170598      -10.50208788652090
H          -21.76505737682816       20.20340169319463       -8.94844430068326
O          -24.96544537446553       23.38543759144347       -5.33035249506945
H          -25.65288086546642       23.87274675889742       -5.77731366096700
H          -25.10114772500733       22.43630956003831       -5.40984451608147
C          -18.36358957017615       27.70055066347346       -6.33493226394979