78
 energy: -116.058024737761 gnorm: 0.000195272399 xtb: 6.7.1 (edcfbbe)
Fe          16.65247863473396      -30.74997577133742       -3.40177868987837
N           15.73587789351583      -32.11280953298458       -2.27610960709807
N           16.59436664924532      -29.44242146471409       -1.89430550928240
N           17.52506107670846      -29.36164577663007       -4.57485413475027
N           16.66753859719137      -32.04026930890510       -4.94434393755722
C           15.40666269871316      -33.38215099757108       -2.62797852320586
C           14.75291366147074      -34.06540925399787       -1.53197261492065
C           14.69431585299265      -33.17383910451462       -0.50814779877478
C           15.31832863915619      -31.96048912264333       -0.99183304016525
C           16.07453875267362      -29.65082386144443       -0.65522695392416
C           16.22709421244915      -28.48007451927827        0.17078142903260
C           16.85824272241933      -27.54350959397976       -0.60335818487114
C           17.08403012104662      -28.17607695153814       -1.88973803927356
C           17.89737732004088      -28.10389143221224       -4.20608064842171
C           18.51858514153069      -27.41133097792510       -5.30422761581945
C           18.51755625801447      -28.28385661217462       -6.36143507308856
C           17.90376407846740      -29.50208875142575       -5.87281632951423
C           17.15833627755411      -31.81996971888436       -6.19493207150933
C           17.02644650869397      -33.00552196004518       -7.01155267371695
C           16.45397622308685      -33.95226691156935       -6.21975191324035
C           16.23690049623340      -33.33018368358914       -4.93332106206714
C           15.64677159458611      -33.96537748040971       -3.85768808344174
H           15.34132402905118      -34.99169341359579       -3.99191739733472
C           15.47041786539612      -30.82109326512898       -0.22794167933405
H           15.08076017046702      -30.84243539557069        0.77850827330385
C           17.68758949456739      -27.54348580701309       -2.95846624376086
H           18.01219209434304      -26.52436734127432       -2.81501520786374
C           17.71910749687711      -30.63753827912987       -6.64171860052873
H           18.05475484226352      -30.60638626282022       -7.66690161186002
C           14.11934341550164      -33.33748280472557        0.85714836500739
H           13.69795504597720      -34.33179567866719        0.98282238804321
H           13.32948055833514      -32.60611616827308        1.02831586430087
H           14.88593955626770      -33.19144313377856        1.61899056260667
C           14.26054596255992      -35.47080183643453       -1.59091775619718
H           15.07891836512125      -36.15526790527784       -1.81573779692641
H           13.50570829518513      -35.57917304190534       -2.37000829649659
H           13.81788493941408      -35.76592634775652       -0.64272796558479
C           15.82561475794503      -28.38072208346307        1.60128069142809
H           16.01730697154290      -29.31729383549532        2.12324376868547
H           14.76144722722152      -28.15724299405358        1.69096366252518
H           16.38562953853537      -27.58722923481880        2.09212854870424
C           17.26859159191480      -26.19983420502291       -0.26070723579310
H           18.18164372141635      -25.85420313074278       -0.73206055337026
C           16.62012209024041      -25.38105044031447        0.56130050917279
H           15.68467909540384      -25.65161274413291        1.01876462433266
H           16.99186575660492      -24.39419129455315        0.78249310196733
C           19.09781125577223      -26.04165764656812       -5.23636164808228
H           19.58812600590561      -25.87867851398994       -4.27782613279347
H           18.32123956555121      -25.28344734072569       -5.35098532330008
H           19.83002504665089      -25.90620383914855       -6.02980536777664
C           19.03245193602547      -28.09948734663829       -7.70022892783535
H           19.44741804851432      -28.98437846559160       -8.16925734662282
C           19.02264152376820      -26.95705383835546       -8.37935005664821
H           18.58074085984683      -26.05910520031684       -7.98410029782336
H           19.43736638158921      -26.88785575790173       -9.37134646645866
C           17.45976494292243      -33.09894445240051       -8.43451660217817
H           18.53226185778208      -32.92229278128209       -8.52183417176194
H           16.94479187098530      -32.35499249414494       -9.04298275481081
H           17.24167385344672      -34.08337674843546       -8.84104664245912
C           16.09108648437632      -35.36069703835216       -6.54395166490066
H           16.60863962250334      -36.05175319144384       -5.87838194515205
H           16.36152738113577      -35.60444124907906       -7.56844337321702
H           15.01857831163678      -35.51739963421134       -6.42558402624516
O           14.65783114076203      -29.98033245029508       -4.23414249811494
H           14.93774269728195      -29.13581615302450       -4.60375178216887
H           14.54404647787607      -30.58898169409277       -4.97240621033576
C           21.95274671510690      -32.45732182508055       -3.13786564178210
H           22.14626223004447      -33.49003632633590       -2.84794177460010
H           22.66761957491029      -31.81819494058463       -2.61975088195410
H           22.11113779866108      -32.36044732218487       -4.20730900368770
N           20.07251254434717      -32.09518050810495       -1.52386291701515
H           20.58813763846832      -32.37080689611275       -0.70422904526174
C           20.55927224450330      -32.06800826515003       -2.80447511633929
C           18.78476125921906      -31.68498551367679       -1.56585494927090
H           18.15032856473680      -31.60686808358885       -0.70689566203939
N           18.42710522629064      -31.40011941155746       -2.79463428235253
C           19.52000758857636      -31.63377780889203       -3.57623860469124
H           19.48635705813795      -31.47498783103829       -4.63380782188590
