72
 energy: -105.980169004185 gnorm: 0.000049455138 xtb: 6.7.1 (edcfbbe)
Fe           9.22767613214684       37.93175927651700       21.83275872120897
N            9.51198988719901       39.76849367125867       21.12025484508713
N           10.91888895781704       37.31944025742546       20.95323084813543
N            8.90737477886399       36.05915104386532       22.50819541978788
N            7.49174179414892       38.50898674242524       22.63761809434664
C            8.66830790716793       40.82592691528076       21.22363520870530
C            9.23731009118968       41.99913763643378       20.59558928860239
C           10.45217083593221       41.62321638911509       20.11686242109326
C           10.60035519595462       40.22098970096862       20.44440235867527
C           11.82396711435581       38.10195165449863       20.30711872867676
C           12.93386014401371       37.31605351673682       19.83722003797546
C           12.66659307362427       36.02017122669980       20.18650703272071
C           11.41509182251892       36.05403587821099       20.91690031742811
C            9.72004542027717       34.97902920425163       22.33186056201733
C            9.21592931348042       33.83887610434280       23.05012150954277
C            8.07291680662466       34.25459016995505       23.68213902049896
C            7.89774961438860       35.64518975186257       23.31861630069981
C            6.64507076510313       37.75469536334085       23.38826911882955
C            5.48181554147248       38.52281947840125       23.77357039040601
C            5.63988011088619       39.75603424515847       23.22305884950939
C            6.90416189270524       39.72900969106819       22.52171201085330
C            7.44168632829871       40.81577374532554       21.85963511792930
H            6.86630766458492       41.72828183439091       21.85006962957011
C           11.69365321172169       39.46104605672729       20.08358222368982
H           12.49663173114726       39.95669765075254       19.56058293785687
C           10.87845563056194       34.96589541098761       21.57618826414021
H           11.43538918471047       34.04372621563294       21.53462289990010
C            6.84234408051004       36.43299179061315       23.74043192756329
H            6.10276763545845       35.97615085414540       24.37906435844511
C           11.47095336690322       42.42634257456163       19.38460252835812
H           11.14837750760679       43.45947607463807       19.28264262245794
H           11.63486897025576       42.01811605179474       18.38713903677456
H           12.42303166925680       42.41437504646427       19.91553235984150
C            8.56425517799870       43.32657402479877       20.53145887686674
H            8.37041303075191       43.70866102088986       21.53419570608994
H            7.61058801634983       43.24547390668604       20.01000822187969
H            9.18254697826625       44.04826093041108       20.00360771844096
C           14.09274744905598       37.84850936868270       19.06908613249695
H           14.58113804085056       38.65144923438677       19.62131553804202
H           13.76592929733711       38.24955782904645       18.10902186443006
H           14.81946796075104       37.06269602789686       18.87966293988977
C           13.46860955390425       34.85262796944605       19.88356864294274
H           14.54145248249549       35.00375713419344       19.92942565286386
C           12.99963614256212       33.66327544798667       19.52415992375253
H           11.94551456087539       33.47332735049912       19.41021128038422
H           13.65900550154889       32.83985535268440       19.30604385876709
C            9.81721938791859       32.47810236792000       23.02489586612536
H           10.64195809607477       32.40642374765582       23.73545407360952
H           10.20688724055072       32.24569282693653       22.03504928537702
H            9.06876848795263       31.73394994588320       23.28970208079594
C            7.16676871335970       33.50287917317480       24.52244197371937
H            6.12178294365158       33.78222551754327       24.45293300159695
C            7.51973222769891       32.52942212378567       25.35506659822038
H            8.54692147280258       32.24394262652135       25.49985509147776
H            6.78921032315381       32.00045485196502       25.94417954802021
C            4.36305289436127       37.99367545112617       24.60274957383773
H            4.73098801430382       37.64725044536296       25.56887600502598
H            3.88083619601526       37.15290734626284       24.10348941963743
H            3.61461155438004       38.76252164573156       24.77714601485647
C            4.74229152795513       40.94306564309232       23.28838209470395
H            5.24828829607969       41.78289466336529       23.76577153149313
H            3.84356623402481       40.71727861552424       23.85677561640276
H            4.44630533184840       41.25234608995114       22.28606832025779
O            8.15521803699923       37.28308279856114       19.97050355352283
H            7.62014314121552       36.56165189118956       20.32062035866615
H            8.87564149168511       36.88392732584529       19.46907064055724
C           10.01580935996079       40.10402223307808       24.32706284567466
H           10.63045517942010       40.74402944337447       23.70270934444974
H           10.27867521002516       40.23529198430239       25.37220807858652
H            8.96694453846147       40.31808514087664       24.15216662321642
S           10.38082699037133       38.38420301221957       23.82973783415617
H            9.50342873610499       37.82621626730954       24.67158327783765
