87
 energy: -124.467333138404 gnorm: 0.294419496042 xtb: 6.7.1 (edcfbbe)
Fe          28.20200000000000       -6.07500000000000        5.53100000000000
N           28.14800000000000       -7.83500000000000        4.56100000000000
N           26.47100000000000       -6.53300000000000        6.44800000000000
N           28.27100000000000       -4.31000000000000        6.48900000000000
N           29.96000000000000       -5.62600000000000        4.62200000000000
C           29.15100000000000       -8.34600000000000        3.75300000000000
C           28.76700000000000       -9.69100000000000        3.34400000000000
C           27.56700000000000       -9.95500000000000        3.86700000000000
C           27.16600000000000       -8.80500000000000        4.65000000000000
C           25.66900000000000       -7.63500000000000        6.15500000000000
C           24.43900000000000       -7.55800000000000        6.91200000000000
C           24.56700000000000       -6.31500000000000        7.72200000000000
C           25.85700000000000       -5.75800000000000        7.41300000000000
C           27.41600000000000       -3.89200000000000        7.48300000000000
C           27.82700000000000       -2.58300000000000        7.94100000000000
C           28.88600000000000       -2.22200000000000        7.19800000000000
C           29.17200000000000       -3.29500000000000        6.28500000000000
C           30.61300000000000       -4.42100000000000        4.69500000000000
C           31.81300000000000       -4.50000000000000        3.91200000000000
C           31.86499999999999       -5.73500000000000        3.38300000000000
C           30.68700000000000       -6.44500000000000        3.80400000000000
C           30.32600000000000       -7.71600000000000        3.44300000000000
H           31.04500000000000       -8.28100000000000        2.85100000000000
C           25.98400000000000       -8.67400000000000        5.32300000000000
H           25.23699999999999       -9.45600000000000        5.18700000000000
C           26.34700000000000       -4.60200000000000        7.94100000000000
H           25.83299999999999       -4.20600000000000        8.81700000000000
C           30.21400000000000       -3.31300000000000        5.40900000000000
H           30.77000000000000       -2.38700000000000        5.26300000000000
C           29.58500000000000      -10.64200000000000        2.44600000000000
H           30.50100000000000      -10.63200000000000        3.07400000000000
H           29.71500000000000       -9.92500000000000        1.60700000000000
H           29.43200000000000      -11.66800000000000        2.04800000000000
C           26.73999999999999      -11.24900000000000        3.78500000000000
H           25.81100000000000      -10.76100000000000        3.42000000000000
H           26.64300000000000      -11.43900000000000        4.87500000000000
H           26.87900000000000      -12.20900000000000        3.24300000000000
C           32.93500000000000       -6.34800000000000        2.46400000000000
H           33.19300000000000       -7.27000000000000        1.90000000000000
H           33.72800000000000       -6.15300000000000        3.21700000000000
H           32.86900000000000       -5.49700000000000        1.75300000000000
C           32.78200000000000       -3.32700000000000        3.73500000000000
H           33.67700000000000       -3.31000000000000        4.37200000000000
C           32.97100000000000       -2.91200000000000        2.44200000000000
H           32.13100000000000       -2.89600000000000        1.73200000000000
H           33.96500000000000       -2.59000000000000        2.09900000000000
C           29.69700000000000       -0.92700000000000        7.27800000000000
H           29.57600000000000       -0.63800000000000        6.21200000000000
H           30.68900000000000       -1.40900000000000        7.41000000000000
H           29.63100000000000       -0.01400000000000        7.90800000000000
C           27.12700000000000       -1.80400000000000        9.08600000000000
H           26.78600000000000       -2.48800000000000        9.85900000000000
C           26.71600000000000       -0.52400000000000        8.89900000000000
H           27.13100000000000        0.08200000000000        8.08000000000000
H           25.96300000000000       -0.07700000000000        9.56400000000000
C           23.53200000000000       -5.74600000000000        8.67500000000000
H           23.25300000000000       -4.80100000000000        9.18800000000000
H           23.65300000000000       -6.54700000000000        9.43600000000000
H           22.72600000000000       -6.01900000000000        7.96100000000000
C           23.23500000000000       -8.50300000000000        6.86800000000000
H           22.51400000000000       -7.66200000000000        6.78400000000000
H           23.33500000000000       -8.78600000000000        7.93800000000000
H           22.85300000000000       -9.36600000000000        6.28200000000000
C           32.13600000000000       -7.43000000000000        9.25800000000000
H           32.59200000000000       -8.43000000000000        9.09900000000000
H           31.92100000000000       -7.30000000000000       10.34000000000000
H           32.85000000000000       -6.65000000000000        8.91700000000000
N           29.80100000000000       -8.17800000000000        8.67500000000000
H           29.77700000000000       -8.90800000000000        9.35800000000000
C           30.86600000000000       -7.33000000000000        8.47500000000000
C           28.83100000000000       -7.87100000000000        7.82700000000000
H           27.86400000000000       -8.37100000000000        7.78900000000000
N           29.24300000000000       -6.87500000000000        7.05800000000000
C           30.51200000000000       -6.51600000000000        7.45000000000000
H           31.04500000000000       -5.71100000000000        6.96000000000000
C           24.61300000000000       -4.43900000000000        4.57600000000000
H           23.88600000000000       -3.60000000000000        4.62200000000000
H           24.69200000000000       -4.89600000000000        5.58600000000000
H           24.23800000000000       -5.19400000000000        3.85200000000000
C           25.97600000000000       -3.92700000000000        4.13100000000000
H           26.41400000000000       -3.31000000000000        4.94400000000000
H           25.84600000000000       -3.28200000000000        3.23600000000000
S           27.02000000000000       -5.23500000000000        3.76200000000000
C           28.05700000000000       -4.72000000000000        2.40000000000000
H           28.65900000000000       -3.82500000000000        2.66700000000000
H           27.43200000000000       -4.46300000000000        1.51800000000000
H           28.75900000000000       -5.53500000000000        2.12300000000000
87
 energy: -124.589310526324 gnorm: 0.161090682830 xtb: 6.7.1 (edcfbbe)
Fe          28.20611386129275       -6.07133887018170        5.52617785063166
N           28.15657674107000       -7.84951209834875        4.56738334552906
N           26.48620013128471       -6.53631174252780        6.44068257935727
N           28.26447374537203       -4.30248706550131        6.49042510408350
N           29.94516102810545       -5.62141433677217        4.62697006634268
C           29.14325447526378       -8.36455582604511        3.76247761555620
C           28.76542773706628       -9.70787344345826        3.33657184063903
C           27.56466221927044       -9.97017382412152        3.86696529790115
C           27.17335247364536       -8.80423138333413        4.63936027986886
C           25.67459461910873       -7.61181762849551        6.16191520103866
C           24.45614809627754       -7.52132769671921        6.90942840602851
C           24.57898250742876       -6.33497346919902        7.69705267540639
C           25.85984901436201       -5.77999551831699        7.39489577233794
C           27.42839526937723       -3.89464300195107        7.49580232851841
C           27.81805932042217       -2.57780949014964        7.96804823073880
C           28.87469500393444       -2.20452229612914        7.21494876576851
C           29.16018333127103       -3.28863862527652        6.29865987222028
C           30.60556954777118       -4.42809646597417        4.69156917263182
C           31.80657792424562       -4.49709300909800        3.90490555552375
C           31.84939795088813       -5.75238583481312        3.37740071639607
C           30.67426936184225       -6.44245173283035        3.82054506393183
C           30.32149128581895       -7.72482418168253        3.44752905750852
H           31.03971336297257       -8.27557035198459        2.84737769188511
C           25.98643470253127       -8.66638913907073        5.32266922012044
H           25.24227749007818       -9.44860017687105        5.19834329524351
C           26.34664251918104       -4.60861976393520        7.94561408915538
H           25.81941572113461       -4.20588762816548        8.80504671916036
C           30.21120655688217       -3.31279625752485        5.40903235456133
H           30.77867503649986       -2.39776768155093        5.26843444722903
C           29.61641866173214      -10.60032140036708        2.45024509173571
H           30.53661867443736      -10.64495480318719        3.04367484312758
H           29.75282358606558       -9.94353278344761        1.58367798075055
H           29.38938445673604      -11.62006230151854        2.09095643494246
C           26.71246395394274      -11.22075581693437        3.80696433253132
H           25.77678091080692      -10.79435270735516        3.42849451629331
H           26.61208791171863      -11.46426760053101        4.87153284418554
H           26.91965685059231      -12.14963848526346        3.24871395944545
C           32.95168154097342       -6.29664402704856        2.47764020777466
H           33.12311342713561       -7.25285529378780        1.94937710434661
H           33.78144823822168       -6.14810155367029        3.17965854469208
H           32.92851466207289       -5.49678053637064        1.72762945673384
C           32.80837422915395       -3.39752919275090        3.69046937591805
H           33.65900934876777       -3.31365605835171        4.37609175866780
C           32.97400490880748       -2.91791275813014        2.44561434010189
H           32.14955972641138       -2.91195082197798        1.73634572462579
H           33.94073764580494       -2.54832844750468        2.10956268356425
C           29.71484905368691       -0.94731187413592        7.24568251334634
H           29.60966800890089       -0.60789664577160        6.20756683938802
H           30.71405608261334       -1.37314500904874        7.39943348312290
H           29.59573940103879       -0.07428774503902        7.90789873263639
C           27.10070119098992       -1.81712414459092        9.04485788143260
H           26.78308867112674       -2.46847669624694        9.85447383158808
C           26.72086498024109       -0.54393257941614        8.89850421024614
H           27.11355367177585        0.06462459951641        8.08775975669778
H           25.99634571341447       -0.08080376504299        9.56849840052026
C           23.52167517532449       -5.80582840165601        8.65124204848158
H           23.32707848969963       -4.82506425065246        9.13316395174103
H           23.60449249419879       -6.55054179296647        9.45538509335718
H           22.66421070643789       -6.02477467412071        8.00320761607687
C           23.24223414126877       -8.45059876295882        6.90921962744385
H           22.46338067498858       -7.68342032562765        6.80468928786588
H           23.28573607274608       -8.79885697539850        7.95056730805111
H           22.93461188183153       -9.31186149162518        6.27986014643668
C           32.13475619007607       -7.43267711416694        9.25868400965144
H           32.59211567807608       -8.41902445823495        9.10532850274750
H           31.93012264143973       -7.30130239517783       10.32941413870335
H           32.83835508576153       -6.66187934542369        8.92455885627757
N           29.80948697049461       -8.17883059417926        8.68473436909784
H           29.78132225444065       -8.91242934772215        9.36928056040095
C           30.87154718337893       -7.33547983696616        8.47633854517324
C           28.83718792088496       -7.86479303511229        7.81805517161160
H           27.87839022036741       -8.35936216644277        7.78030393796322
N           29.23411909880217       -6.87135770109311        7.05018563766625
C           30.49899363826056       -6.52296303467728        7.44871556243917
H           31.03206881510000       -5.72225972447292        6.96550467666111
C           24.61010466895899       -4.43351278841937        4.57416583104829
H           23.89033577640872       -3.60814400005098        4.62390382376999
H           24.68612099314811       -4.89132010572269        5.56664634672926
H           24.24113595220431       -5.18407757514027        3.86322665965926
C           25.97334304876838       -3.91330444906186        4.12994633702581
H           26.41186959548512       -3.30552273885873        4.93671987620205
H           25.84994115278040       -3.28090677086090        3.23825665971728
S           27.01505597492458       -5.27921366960100        3.74702540003245
C           28.05965904788262       -4.70548634522256        2.39381736722468
H           28.65700020858121       -3.82812441108600        2.66926200642996
H           27.43564244738951       -4.46444461675268        1.52382797114600
H           28.74255925832208       -5.52353011254599        2.13220520943811
87
 energy: -124.658054741300 gnorm: 0.072191496652 xtb: 6.7.1 (edcfbbe)
Fe          28.21131797152455       -6.07239262701112        5.52647189570662
N           28.16587674904514       -7.86387499009108        4.57231461987428
N           26.49418834499861       -6.53741594438378        6.43547838087044
N           28.26110632559369       -4.29685372874117        6.49361249133565
N           29.93286476731371       -5.61951371128460        4.63090619722573
C           29.13929608911954       -8.38120122167230        3.77403425415461
C           28.76679303777057       -9.72310464057967        3.33064519683318
C           27.56002983094749       -9.98246777569709        3.86719927634522
C           27.18210161379860       -8.80244453158310        4.63508161245027
C           25.67714895902317       -7.59436270113876        6.16484924677391
C           24.46245944305742       -7.49247902803890        6.91490588876701
C           24.58128829842557       -6.35453364319653        7.68059646700704
C           25.86061080848548       -5.79168957611112        7.38088968706292
C           27.43909730882042       -3.89952382405825        7.50430598760955
C           27.81219077871148       -2.57294042723540        7.98525675528335
C           28.86792107531302       -2.18823444507077        7.22046098646574
C           29.15080814496604       -3.28539896405757        6.30826103051283
C           30.59786154890407       -4.43434092420923        4.68879885909590
C           31.80022618499096       -4.49438820276040        3.89917059485353
C           31.83908933246794       -5.76685975922904        3.37170666122456
C           30.66383978285349       -6.44187807763423        3.83234384502476
C           30.31801179331784       -7.73323635906871        3.45094481525935
H           31.03439515150607       -8.26884448884189        2.84274782268782
C           25.99096423156870       -8.65922875625765        5.32351231682660
H           25.24937426327024       -9.43992451446456        5.21044433946793
C           26.34477608782027       -4.61263252470633        7.94809662821013
H           25.80374831371149       -4.20502168958750        8.79077520481957
C           30.20696457333728       -3.31473640122436        5.40999446701383
H           30.78804996169882       -2.41147416821063        5.27665266408894
C           29.64416969938361      -10.55962279817854        2.45655110975122
H           30.57487044914046      -10.65565909896498        3.01209026020015
H           29.79397617488847       -9.95979057457221        1.56117919947848
H           29.33763021321395      -11.57080454221014        2.13994244056050
C           26.68685702563096      -11.19274736880188        3.82785179194475
H           25.73928584567036      -10.82826567149017        3.43780871341951
H           26.57567374890035      -11.49017475978946        4.87024772343206
H           26.97000347043723      -12.08541529145267        3.24935958275801
C           32.96367734930807       -6.24494736232930        2.49475185504029
H           33.03615722228920       -7.23650764531309        2.00815961149623
H           33.83209359165645       -6.14077887195121        3.14487604505976
H           32.98642562595276       -5.49479288245494        1.70577377650597
C           32.82465533753911       -3.46171811449842        3.65270619413630
H           33.63481745748656       -3.33638167780369        4.37838155249268
C           32.97518068941282       -2.92576705237016        2.44792217655205
H           32.16996486526609       -2.94069746213578        1.72849437592227
H           33.91431059523615       -2.49175634549953        2.12743801506899
C           29.72934108610264       -0.96746685814886        7.21563773908573
H           29.64440518067982       -0.57798066186504        6.20191013739197
H           30.73878490549224       -1.33948905355814        7.38722626729228
H           29.55003044180974       -0.13812194063322        7.91394066603093
C           27.08951977746882       -1.83588664416440        9.01127298170799
H           26.76670252686451       -2.45307442787683        9.84679080672594
C           26.72926557814285       -0.56180121368701        8.89954285967865
H           27.09126034403695        0.04985231370417        8.08655114850615
H           26.03334749661111       -0.08574356997049        9.57883065579583
C           23.51337477244894       -5.86472217936595        8.62949007173536
H           23.41976088233342       -4.84576488667175        9.06643020158999
H           23.55951588627309       -6.55843175796951        9.47145320097001
H           22.60911297349231       -6.03259348474188        8.04421183360808
C           23.24937630676651       -8.40050941585665        6.94809965209458
H           22.41900662109330       -7.70173192978401        6.82620046173489
H           23.24496624692984       -8.80568393908927        7.96273951680104
H           23.03538635883095       -9.25297816872952        6.26707287990548
C           32.13397497008711       -7.43386348395040        9.25837529038177
H           32.59274619880506       -8.41192115440781        9.11039064482088
H           31.93542581572718       -7.30188542212135       10.32212460607315
H           32.83053143398428       -6.66840302350102        8.92912180247182
N           29.81518947563354       -8.18020161738859        8.69245533864828
H           29.78209381052612       -8.91612444361361        9.37728373839377
C           30.87515841607626       -7.33951955656692        8.47607336977054
C           28.84265124747840       -7.86004915434243        7.81132394361770
H           27.89050828107921       -8.35152107222863        7.77211931900136
N           29.22842602971639       -6.87016740356712        7.04470174142790
C           30.48811742500052       -6.52916272740577        7.44753246100190
H           31.02385014578990       -5.73157053256770        6.97178959096034
C           24.60403156945182       -4.42620048727992        4.57297171804988
H           23.88917908051526       -3.60984213349191        4.62572829890709
H           24.68252056440486       -4.88582032177411        5.55288428988640
H           24.24356342906405       -5.17346805810923        3.86797261256385
C           25.96447538439090       -3.89714402334525        4.13015443891606
H           26.41581977807039       -3.30599183120754        4.92860756039389
H           25.85620975356392       -3.28287588269858        3.23578304030680
S           27.01050256163536       -5.31515468966616        3.73447108816287
C           28.06372479299921       -4.69522931093472        2.38636473090182
H           28.64997576479116       -3.83017392921282        2.67918599184810
H           27.43647381150190       -4.46251501121244        1.52950737081685
H           28.73354274055582       -5.51524174503566        2.13668331535165
87
 energy: -124.688016579988 gnorm: 0.048858624517 xtb: 6.7.1 (edcfbbe)
Fe          28.21326768261535       -6.07447953085478        5.52804293008524
N           28.17660809947712       -7.87134651338160        4.58540366307745
N           26.49541127305024       -6.53484209040336        6.43507152344478
N           28.26216186798833       -4.29974742992448        6.49680021754817
N           29.92627282155532       -5.62255424486506        4.63104627719710
C           29.14377599465605       -8.38852627465379        3.78905893813491
C           28.77128811983446       -9.72467337579865        3.33602511531441
C           27.55683362273091       -9.98064879390414        3.87276574673622
C           27.18917036913906       -8.79818695748888        4.64080628217491
C           25.67907061385503       -7.58865524574679        6.16059274500291
C           24.46147323234421       -7.48595490533272        6.91652815975278
C           24.58087047972703       -6.36058479338320        7.68473610301260
C           25.86304805552452       -5.78935369481222        7.38006062233300
C           27.44789851312956       -3.90835015195619        7.50880445164931
C           27.81687399892617       -2.57767836662050        7.98410489614324
C           28.87122098712766       -2.18772045984388        7.21148118225103
C           29.14847965903741       -3.28991684404469        6.30801605713895
C           30.59027759230467       -4.43816842880283        4.68516312270848
C           31.78953323632951       -4.49712362905820        3.89251425711900
C           31.83384310530427       -5.76997468651698        3.36752112663504
C           30.65999706442594       -6.44566031205848        3.83624353403102
C           30.31845493018188       -7.73920004741034        3.45642566874728
H           31.02893831881272       -8.26373325845633        2.83501415033771
C           25.99593012157719       -8.65297586296128        5.32485651678474
H           25.25674030601311       -9.43416655570508        5.22249350129821
C           26.34464249762085       -4.61340566805210        7.94924610178832
H           25.78458875349448       -4.19732695678240        8.77397868792193
C           30.20417158622558       -3.32027927263602        5.40977565545276
H           30.80137797545633       -2.42706125882701        5.28850881664022
C           29.66044424450098      -10.53436254721283        2.46245972678642
H           30.61238844852338      -10.66755054285390        2.97975216824163
H           29.83411402389799       -9.97583855185370        1.54126622947366
H           29.28662770323275      -11.53185942000718        2.18463800782789
C           26.67121147069557      -11.17432827130103        3.83884837742015
H           25.70262872860217      -10.86332070172443        3.44449829497806
H           26.53718212999870      -11.51806311360374        4.86715856469732
H           27.02264839707508      -12.02852961184903        3.24180975357388
C           32.96685519340243       -6.21705423833243        2.50644496409253
H           32.95271726875310       -7.22951380894230        2.06265626097272
H           33.87526486769163       -6.13762394710484        3.11012610627985
H           33.04161046457793       -5.49980080317470        1.68534900400283
C           32.83348606756878       -3.50429176760111        3.63322172611798
H           33.61665358470425       -3.37197012930468        4.37999463186968
C           32.97557711707987       -2.92533871606911        2.44756320686403
H           32.19053991536010       -2.98211200433947        1.70689888948891
H           33.88696384928023       -2.40747677561566        2.15516460297936
C           29.73621810349896       -0.97909332021754        7.19765345877277
H           29.67900145803838       -0.54322096275681        6.19784090131160
H           30.76321634131014       -1.30408287285328        7.37601884186874
H           29.49894222254639       -0.19368852371717        7.92805430114332
C           27.07394336156800       -1.85059089865386        8.99160507194381
H           26.73803974273224       -2.44359976814352        9.83861573077046
C           26.73077370038900       -0.57020722185949        8.89718611345255
H           27.06844382161714        0.03898017318179        8.07346050164887
H           26.07726708000794       -0.08257831899450        9.60731728916708
C           23.51080414452437       -5.89851284793258        8.62179279746384
H           23.51116474976274       -4.85813948105440        9.00834378577774
H           23.51632049600681       -6.56348230950074        9.48927943881395
H           22.56376130702913       -6.03529134303614        8.09005721427716
C           23.25509680747694       -8.37295092082417        6.96857938206797
H           22.38089082209973       -7.72517191088688        6.84401258169951
H           23.20776988837634       -8.81157211825030        7.96988655726064
H           23.13598696491372       -9.20458538272017        6.24485353941918
C           32.13298988373744       -7.43433854810918        9.25805830084848
H           32.59631855402532       -8.41016690414228        9.11467125788152
H           31.93740264205668       -7.30102765732404       10.32127163975451
H           32.82737729224713       -6.66819364620354        8.93001550898125
N           29.81584902806353       -8.18283347657552        8.69534614886194
H           29.77982050763928       -8.91792867034405        9.38183319573883
C           30.87515243323926       -7.34261596926796        8.47491174767859
C           28.84510473533332       -7.86121901975227        7.80809136527554
H           27.89550305255573       -8.35231618095377        7.76400141502894
N           29.22669469155332       -6.87162431494382        7.04186702177031
C           30.48392758064363       -6.53343625592043        7.44677114634844
H           31.02138956770846       -5.73610493689139        6.97646198044279
C           24.59743433069407       -4.41436075034765        4.56875261942980
H           23.88048125558516       -3.60117809902858        4.62703292869332
H           24.67799263336303       -4.87913994598396        5.54447088904365
H           24.23939992218376       -5.16061378936595        3.86386711836464
C           25.95623460430832       -3.89008115702652        4.12591509265722
H           26.42433294493241       -3.30976910032618        4.91909139705480
H           25.86352055248955       -3.28538104025283        3.22599351452393
S           27.00257453821536       -5.33788085999733        3.72399185364628
C           28.06234949046701       -4.69113222174231        2.38373821570201
H           28.63984926143754       -3.82911396737946        2.69854322539713
H           27.43403109426058       -4.45459634463874        1.53114795205347
H           28.73149403795209       -5.50882855409021        2.13566039183492
87
 energy: -124.699449453858 gnorm: 0.036389382443 xtb: 6.7.1 (edcfbbe)
Fe          28.21539127823602       -6.07795676557162        5.53004258380076
N           28.18796230318856       -7.87279956437436        4.60458006789455
N           26.49347452121210       -6.52931058539038        6.43750953638708
N           28.26217405746180       -4.30796642759726        6.49628573468748
N           29.92561031334550       -5.62847005902679        4.62651098759524
C           29.15227977422701       -8.39166708919847        3.80779683654159
C           28.77789026330054       -9.72070082701202        3.34923046903581
C           27.55597955442570       -9.97308895423399        3.88348686972166
C           27.19679071569950       -8.79307597832419        4.65424515996816
C           25.67958725448461       -7.58454955561787        6.16165632844306
C           24.46093068098531       -7.48512367643357        6.92305714576256
C           24.57969846008016       -6.36431070888807        7.69622463903909
C           25.86128214011888       -5.78429135604996        7.38361448991067
C           27.44986210229765       -3.91410581227998        7.50588490400562
C           27.81760629209023       -2.58141737620733        7.97050398592007
C           28.87411108642276       -2.19290388858153        7.19553571049667
C           29.14919939072568       -3.29958836906565        6.30418715210248
C           30.58651562693292       -4.44196320158747        4.67839960387351
C           31.78139233465545       -4.49951737724133        3.88094224811456
C           31.83604271003850       -5.76874816697670        3.36116681442319
C           30.66274775874294       -6.45066854764841        3.83324222757536
C           30.32249428621430       -7.74413321273519        3.46168090692451
H           31.02348132338601       -8.26336521850036        2.82600476961474
C           26.00104685682706       -8.64680257298571        5.33265439240791
H           25.26473512274593       -9.43001340278205        5.23628146803994
C           26.33942414962590       -4.61002328895455        7.94586190600367
H           25.76230187040803       -4.18200315836484        8.75282116480366
C           30.20574698952506       -3.32962499242890        5.40992584785227
H           30.81788821200515       -2.44495152977125        5.30361835151748
C           29.66496923547141      -10.52508733215120        2.46941384584317
H           30.63032890866626      -10.68303016269363        2.95810764465211