87
 energy: -128.467069594924 gnorm: 0.000180356463 xtb: 6.7.1 (edcfbbe)
Fe          14.92616652136250       54.45931466846781       19.18660424684027
N           13.51781508316409       55.77867351189350       18.63463802961796
N           14.50573801749190       53.34070087103689       17.57415029149391
N           16.35805122412596       53.16347537940204       19.71998389459502
N           15.31267688592083       55.55629639443039       20.81546524344348
C           13.16135463181153       56.91199389405968       19.29065206067511
C           12.12959171860866       57.62027397258408       18.56518714473376
C           11.87091734017265       56.88380108831754       17.45143106542194
C           12.74616034299436       55.73396540909733       17.51521827871830
C           13.57795172855498       53.60521434198407       16.61499095547168
C           13.53778438556230       52.54930476162146       15.63901903095166
C           14.44917859124160       51.61136510800149       16.04628164271639
C           15.06103286022216       52.14584213587747       17.24735819273320
C           16.73974166708760       52.05047468333640       19.03749998397560
C           17.84715398766197       51.40247113314580       19.69296177638174
C           18.12291436901816       52.14690304838260       20.81001529239412
C           17.17886872891354       53.24859201245185       20.79577458481387
C           16.23147071313586       55.28900987633177       21.77956941670627
C           16.18825977991064       56.29352969400282       22.82047320436049
C           15.22193163066504       57.17729076184717       22.45529700844291
C           14.68875425605275       56.69964477370958       21.19739338574802
C           13.69128686671780       57.34517764591901       20.49204862329606
H           13.29715958794089       58.25958228954140       20.90931055942222
C           12.76547412706852       54.72810026285644       16.56755304420920
H           12.08817497743552       54.81614060616038       15.73069362351728
C           16.13373455465402       51.56259850984927       17.89338738433220
H           16.53233636595816       50.65627439707603       17.46470772787455
C           17.11169782530409       54.22201417220464       21.77813634508626
H           17.79900352736235       54.14540523702226       22.60751388047439
C           10.89761964793784       57.14224148660680       16.35143905549896
H           11.41035554939887       57.21180253232328       15.39145239198982
H           10.36137590668274       58.07298101667990       16.52013449507081
H           10.16784450710156       56.33444919822720       16.28499397433632
C           11.51643790278097       58.90391988253047       19.01074583108760
H           12.27756749164164       59.67848765861909       19.10805927278287
H           11.03411885243634       58.78181026512483       19.98097353782648
H           10.76937552000715       59.24552208396810       18.29806655187440
C           12.62157166077889       52.50176806306743       14.46400326771282
H           12.73685862347777       53.39449320737643       13.84819986838130
H           11.58090728536123       52.44973110792865       14.78730180440421
H           12.82981741917522       51.62798331553561       13.85156645095955
C           14.73027294749983       50.34282178972609       15.40727714147135
H           14.70195739165201       50.35368628050104       14.32233855176647
C           14.96907815261796       49.19489942767323       16.03185114429242
H           14.95670484924588       49.11598332617520       17.10562081986524
H           15.16537152037181       48.28633916894302       15.48648005076619
C           18.56146319327848       50.19969518555866       19.18252465970698
H           18.62221851279661       50.22047670219073       18.09549287030663
H           18.04209668733014       49.28481091422854       19.47336151464548
H           19.57077654665472       50.16420342938324       19.58830921144015
C           19.14597360030987       51.95187704017559       21.81217212587394
H           19.54506191801078       52.85732415871757       22.25559049433248
C           19.61393054237756       50.77771797508911       22.22488965222890
H           19.22487658316500       49.84423098450299       21.85795407760278
H           20.39126894200115       50.71101111125641       22.96829436903936
C           17.06445197189339       56.29465685140642       24.02673899964117
H           18.11399328732906       56.36865706097257       23.73958876953179
H           16.93509083360493       55.37411492746672       24.59662066624913
H           16.82869373097448       57.13475087042206       24.67561699249297
C           14.75473958564077       58.40794369187506       23.15480694402628
H           14.91129075765207       59.28727077416686       22.52924421695536
H           15.29418335949909       58.55204162086063       24.08795349627615
H           13.69026011859049       58.33970921672800       23.38065275530672
C           19.50420293242739       57.18257383610131       17.45858102952290
H           19.42446950688613       58.25426624702569       17.27547144321853
H           20.08485910585173       56.74069158626799       16.64874372724380
H           20.03583288365355       57.02770644300995       18.39222580999463
N           17.26557633660826       56.58930087485606       16.50475841956784
H           17.42041411368870       57.01940455946013       15.60779581624826
C           18.15898066240803       56.55953187270314       17.54404987883330
C           16.15062912986167       55.93761918460425       16.90562958865272
H           15.28144891671750       55.80466510380111       16.29530245015618
N           16.28298732764626       55.49827803262777       18.13244563088321
C           17.52655201405375       55.87749210383998       18.54335113986754
H           17.88107385005230       55.63617156305852       19.52372528328089
C           12.19651303873005       51.47601196890668       23.05751444733379
H           11.92983725477967       50.44706686765618       22.81589676235025
H           11.34489844873930       51.94097111598592       23.55449550111868
H           13.03697967983206       51.46545321883530       23.74443163632415
N           11.70295983919103       52.39669389537127       20.78095001571438
H           10.76230296900496       52.04168432493145       20.72944953894012
C           12.56726216807079       52.22727094436517       21.83141510309051
C           12.34546618322750       53.11941154220118       19.83579707199234
H           11.91052574402815       53.40463548361365       18.90026978747702
N           13.56073628379091       53.41752549412356       20.22293935837356
C           13.71387741481851       52.86977497174330       21.46207694229860
H           14.63262650055884       52.97295579829860       22.00105167332679
