87
 energy: -128.391102078524 gnorm: 0.237221633974 xtb: 6.7.1 (edcfbbe)
Fe          15.03300000000000       54.54499999999999       19.13700000000000
N           13.61300000000000       55.87300000000000       18.59200000000000
N           14.70800000000000       53.50300000000000       17.40000000000000
N           16.42900000000000       53.22500000000000       19.67300000000000
N           15.40700000000000       55.66199999999999       20.81500000000000
C           13.23000000000000       57.00100000000000       19.27600000000000
C           12.17900000000000       57.66599999999999       18.54500000000000
C           11.93500000000000       56.94900000000000       17.44100000000000
C           12.82900000000000       55.80900000000000       17.45000000000000
C           13.65100000000000       53.69600000000000       16.53700000000000
C           13.48600000000000       52.51600000000000       15.72500000000000
C           14.42600000000000       51.63900000000000       16.09300000000000
C           15.21500000000000       52.25100000000000       17.14800000000000
C           16.86900000000000       52.14500000000000       18.93700000000000
C           17.98900000000000       51.52800000000000       19.61199999999999
C           18.20300000000000       52.21399999999999       20.73600000000000
C           17.23300000000000       53.27999999999999       20.79100000000000
C           16.21300000000000       55.22199999999999       21.84400000000000
C           15.96000000000000       56.00000000000000       23.01600000000000
C           14.92500000000000       57.01600000000000       22.62700000000000
C           14.64000000000000       56.73100000000000       21.24600000000000
C           13.74100000000000       57.41800000000000       20.47800000000000
H           13.40100000000000       58.38200000000000       20.85500000000000
C           12.88500000000000       54.83400000000000       16.47200000000000
H           12.27400000000000       54.97900000000000       15.58100000000000
C           16.30300000000000       51.70500000000000       17.77199999999999
H           16.76200000000000       50.83800000000000       17.29600000000000
C           17.11200000000000       54.19700000000000       21.79500000000000
H           17.79800000000000       54.10100000000000       22.63700000000000
C           10.90100000000000       57.24399999999999       16.32400000000000
H           11.43300000000000       57.53999999999999       15.39500000000000
H           10.23500000000000       58.07600000000000       16.63900000000000
H           10.29900000000000       56.33299999999999       16.11900000000000
C           11.48100000000000       58.96699999999999       18.98000000000000
H           12.18900000000000       59.58900000000000       19.56800000000000
H           10.60100000000000       58.72700000000000       19.61400000000000
H           11.15800000000000       59.53800000000000       18.08300000000000
C           12.40300000000000       52.31200000000000       14.65000000000000
H           12.78200000000000       52.67000000000000       13.66900000000000
H           11.49400000000000       52.89200000000000       14.91800000000000
H           12.15500000000000       51.23200000000000       14.56800000000000
C           14.63000000000000       50.21000000000000       15.54300000000000
H           14.78800000000000       50.01300000000000       14.47300000000000
C           14.61000000000000       49.19200000000000       16.41900000000000
H           14.45300000000000       49.38100000000000       17.49100000000000
H           14.75100000000000       48.15699999999999       16.07500000000000
C           18.75800000000000       50.29500000000000       19.08600000000000
H           18.72900000000000       50.28599999999999       17.97500000000000
H           18.28200000000000       49.36600000000000       19.46600000000000
H           19.81700000000000       50.34300000000000       19.41900000000000
C           19.25400000000000       51.99199999999999       21.83400000000000
H           19.75300000000000       52.84700000000000       22.31300000000000
C           19.58000000000000       50.75699999999999       22.22600000000000
H           19.09900000000000       49.88000000000000       21.76700000000000
H           20.33299999999999       50.60099999999999       23.01300000000000
C           16.60500000000000       55.83500000000000       24.39000000000000
H           17.67100000000000       56.14500000000000       24.33900000000000
H           16.55500000000000       54.77000000000000       24.70300000000000
H           16.07900000000000       56.47399999999999       25.13100000000000
C           14.29200000000000       58.09000000000000       23.51400000000000
H           14.89700000000000       59.02000000000000       23.46000000000000
H           14.26500000000000       57.73900000000000       24.56800000000000
H           13.26200000000000       58.30899999999999       23.16100000000000
C           19.80700000000000       56.88800000000000       16.55600000000000
H           19.98900000000000       57.96099999999999       16.77900000000000
H           19.87000000000000       56.73300000000000       15.45800000000000
H           20.57900000000000       56.27700000000000       17.07100000000000
N           17.29900000000000       57.11000000000000       16.57600000000000
H           17.28800000000000       57.83599999999999       15.88900000000000
C           18.44000000000000       56.49800000000000       17.04600000000000
C           16.24000000000000       56.58900000000000       17.17200000000000
H           15.21200000000000       56.89000000000000       16.97600000000000
N           16.64900000000000       55.66400000000000       18.02300000000000
C           18.02400000000000       55.58800000000000       17.96200000000000
H           18.57700000000000       54.89099999999999       18.57900000000000
C           12.10700000000000       51.98800000000000       23.23999999999999
H           12.24700000000000       50.88900000000000       23.32300000000000
H           11.02700000000000       52.22300000000000       23.35300000000000
H           12.69000000000000       52.48700000000000       24.04300000000000
N           12.05700000000000       51.99800000000000       20.71000000000000
H           11.31600000000000       51.33100000000000       20.63700000000000
C           12.58900000000000       52.45400000000000       21.90000000000000
C           12.68200000000000       52.58300000000000       19.70300000000000
H           12.45800000000000       52.40500000000000       18.65200000000000
N           13.60000000000000       53.39800000000000       20.19300000000000
C           13.55100000000000       53.34400000000000       21.56500000000000
H           14.21000000000000       53.94800000000000       22.17600000000000
87
 energy: -128.440598255116 gnorm: 0.097552646431 xtb: 6.7.1 (edcfbbe)
Fe          15.05175212680135       54.55190324180843       19.12462652214962
N           13.60798302213497       55.86808340500275       18.58955128316106
N           14.67441746676170       53.47319427052289       17.42573278438731
N           16.44186455230308       53.22557238648484       19.67206992974539
N           15.38735765882915       55.64238806089272       20.81917546192492
C           13.23202691929224       56.99796078092037       19.26796143159315
C           12.18004909575274       57.68129227429175       18.54170367380314
C           11.93241379921146       56.95470807384926       17.42626103048601
C           12.83565184618824       55.81988234340675       17.45136285434656
C           13.65377596401378       53.68427654389448       16.53784772181569
C           13.48890200105689       52.51740242805148       15.70040896164946
C           14.44282703245077       51.62519370060624       16.07130865304027
C           15.20202843653350       52.24555648782105       17.14236058832562
C           16.87985345909321       52.15058042846473       18.94192364647679
C           17.99997628111659       51.51843244420943       19.61139168880965
C           18.22060939342875       52.21763694663110       20.75320090600984
C           17.24171021155661       53.28790435846631       20.78418655988539
C           16.18959846983718       55.24453870899172       21.85295852635252
C           15.93724557913478       56.04149634018393       23.01751685128930
C           14.95815442683782       56.99517872058698       22.63983434446740
C           14.65924113409277       56.71547757066765       21.26082655929035
C           13.74613206805816       57.41186174149234       20.48147653988157
H           13.38955536572280       58.36155444733144       20.86777220994099
C           12.88626048554201       54.83633442428567       16.47765332491500
H           12.25979794273516       54.97089945003263       15.60145374491301
C           16.30535675583058       51.70032232014422       17.77024151637810
H           16.74774394931137       50.82555744422459       17.30511730483196
C           17.10974757680773       54.20756033369897       21.80042034811866
H           17.78562831657980       54.10328217874272       22.64257188408024
C           10.91665153574566       57.23821694350959       16.33526495207806
H           11.42658486788885       57.53200126263255       15.41015330580283
H           10.25056257398387       58.05301426397345       16.63542857848777
H           10.31210918143199       56.34927146929385       16.12722181676455
C           11.49267850855260       58.95606962523259       18.97766624475126
H           12.17713534841641       59.58168837415990       19.55807231171712
H           10.61895612955888       58.73029301828591       19.60074217176462
H           11.16284792224206       59.52609990303492       18.10315756799337
C           12.41389297784997       52.31818037740805       14.65670893122821
H           12.77373584970878       52.66681323780389       13.68173764646094
H           11.50974690233354       52.87922710068416       14.91394230505489
H           12.16305355023034       51.25538184223473       14.57152810770222
C           14.63358401047831       50.22588350417031       15.57083036603790
H           14.77511306990877       50.04850893471257       14.50485600857403
C           14.61378964264419       49.20249035405127       16.41800832922937
H           14.45791239005639       49.36862027614780       17.47738543133312
H           14.74784514300548       48.17828355482093       16.08141621552004
C           18.74979320441427       50.31113993769415       19.08796772845835
H           18.73021882783654       50.28838374403887       17.99362554289290
H           18.29058169776738       49.38639679436033       19.45716028361971
H           19.79317017848230       50.34325801242197       19.41875198638643
C           19.23961096457714       51.98166117980180       21.81588250314880
H           19.71862200267310       52.84139722617171       22.28362154415058
C           19.57701570530036       50.76092391672790       22.21690782182824
H           19.10858519087846       49.88567694114418       21.78483373485804
H           20.31756049812524       50.60291603858797       22.99564591178027
C           16.58814309367441       55.85018112334650       24.36604767363259
H           17.64633677015230       56.14351731752325       24.33529060334659
H           16.54776356121647       54.80003056355139       24.68738103098238
H           16.08743686251344       56.46479809171761       25.11950580965881
C           14.31594524216851       58.06221795582886       23.49836090474012
H           14.89175761792197       58.99704815227923       23.45883987686878
H           14.26889889719338       57.74218499265255       24.54526868970393
H           13.29516573921453       58.28840973238481       23.16467572220202
C           19.80105654040811       56.88819916631406       16.55882357045934
H           19.99334733110566       57.94622078660967       16.77313056469739
H           19.87712898130725       56.73520977186542       15.47605384526448
H           20.56296574404873       56.28604771019170       17.06002176978248
N           17.31213415319222       57.11631536803598       16.56726082011092
H           17.29917564866750       57.84555009303413       15.87613394424144
C           18.44293944326192       56.50320502618850       17.04444272259352
C           16.24783756818950       56.58229438449261       17.17936357529693
H           15.23079408823485       56.87835154189483       16.98601286152041
N           16.63399860893077       55.65986632525789       18.03115175116587
C           18.00210931175005       55.59350277554761       17.96079074500749
H           18.55372058947230       54.90135950292172       18.57098852259383
C           12.10423145156445       51.98452233344528       23.23433099990712
H           12.23978578523320       50.90088502169546       23.32946246203920
H           11.04071193448659       52.21640289154112       23.36125246158837
H           12.67552067236368       52.47856550032947       24.02462009274531
N           12.05229461431583       51.99325204804403       20.72125437871608
H           11.30795355790782       51.32217208108004       20.64389468339710
C           12.58263020242247       52.45081762568206       21.90275187722494
C           12.69467392192285       52.59462564103671       19.70954974784754
H           12.47396970924544       52.41754419044893       18.66964583688552
N           13.61067867090330       53.41440888453268       20.18026132007029
C           13.54993216225292       53.33979452050938       21.54774030986675
H           14.20094231365147       53.93466919120355       22.16025662614977
87
 energy: -128.452666531285 gnorm: 0.028211762230 xtb: 6.7.1 (edcfbbe)
Fe          15.05884837151075       54.55340565805508       19.12262014275670
N           13.61816801053056       55.87414916798802       18.58007005429177
N           14.65692613593784       53.45795408548661       17.44908706409506
N           16.46248851665367       53.23737194822962       19.66323236921361
N           15.37893303737683       55.62719958156369       20.81805789457624
C           13.24101591893522       56.99509178724758       19.26072338456829
C           12.19141851809105       57.69157708797780       18.53843089423714
C           11.94157553034069       56.95962483968517       17.41664727856524
C           12.84613820762313       55.82686419233367       17.45518819283049
C           13.65558343773618       53.67477222039402       16.55159178848838
C           13.49853603123069       52.52504981333900       15.68810145745979
C           14.45549751265479       51.62228026603777       16.06684343533010
C           15.18658705851824       52.24216965967256       17.15590684328120
C           16.88837206376112       52.16048675855255       18.94401399836928
C           18.00227359453078       51.51579755114982       19.60935989059186
C           18.22807856968734       52.22336165844224       20.76068783836115
C           17.25170670159625       53.30193674037077       20.77134490710381
C           16.17751365810985       55.25257217902224       21.85261623516042
C           15.92440413417161       56.07365900233778       23.01127269415057
C           14.98783604427602       56.97963920167184       22.64394698234615
C           14.66799537977977       56.69748641951571       21.26344298029784
C           13.74536368537976       57.39759091049471       20.48701295344937
H           13.36671491059564       58.32823774487537       20.89065081944290
C           12.88194959677886       54.82961617505189       16.49357966313215
H           12.23653205965785       54.94980971697954       15.63252698765306
C           16.29822447612083       51.69351485360229       17.77936679475058
H           16.71982681298285       50.80697984476521       17.32426521026406
C           17.10737183346593       54.21464311621041       21.80153284573696
H           17.76828512950712       54.10189741586662       22.64982021487429
C           10.93684220915658       57.23197094267205       16.34573332740657
H           11.43077580073515       57.52189664907991       15.41766309405750
H           10.26989195478030       58.03763356829574       16.64098314922756
H           10.33122522240219       56.35129539265988       16.14134226364691
C           11.50810342135027       58.94582920087451       18.97484475988706
H           12.17887672096368       59.57493102746689       19.55293282108817
H           10.63843532325141       58.72129299298801       19.59354270294595
H           11.16861330076615       59.51496291382129       18.11227770402551
C           12.43327561141179       52.32782348869240       14.66014745609298
H           12.77246296599579       52.67209069282579       13.68274370918347
H           11.53036977801128       52.87600997523828       14.91751400509196
H           12.18103098758490       51.27252164857611       14.57571726210337
C           14.63710903010599       50.25391736202409       15.59641757369131
H           14.75738887785965       50.09803735683881       14.52888177948324
C           14.62285374681215       49.21495779526588       16.41969894271446
H           14.47319854844353       49.35495093533321       17.47683598226104
H           14.74688936497019       48.19967891698833       16.07918604645890
C           18.74128417101869       50.32765318519284       19.09306912826374
H           18.72946658222982       50.30259078397859       18.00642100247876
H           18.28841267254606       49.40294110398143       19.45242981698948
H           19.77595301629079       50.34956758108483       19.42937743569113
C           19.21644435109729       51.97646027767902       21.79461295626195
H           19.67441401739889       52.84531000790842       22.25434487629627
C           19.57168939468826       50.76442772074687       22.20646015624191
H           19.11580956604927       49.88114495524025       21.79800856503798
H           20.30994689771998       50.61171117914999       22.97639141306666
C           16.57324208133351       55.87028270221234       24.34393097526056
H           17.62704277692577       56.15312888960725       24.31453191057778
H           16.52773767655688       54.82420396807477       24.65313811452038
H           16.08520522475214       56.47162395535014       25.10639744000611
C           14.34106045644647       58.03887740406778       23.48350067235574
H           14.90464696718022       58.97372044823271       23.44414403458024
H           14.28771826849785       57.72941303656705       24.52603797542499
H           13.32633186225968       58.25248978968084       23.14883358330935
C           19.79338519206835       56.88131183127476       16.56818345936572
H           19.99261157098928       57.93246461307493       16.77554593734099
H           19.87655646092631       56.72978823805905       15.49242554535290
H           20.54910555103165       56.28200744476877       17.06252637724993
N           17.31598890694816       57.12207226741411       16.56044191606713
H           17.30508185833660       57.85205628330465       15.86683280186891
C           18.43727391604122       56.50408693960344       17.04789937034241
C           16.24580885585247       56.58223376041304       17.17940117677169
H           15.23676361576305       56.87781337124741       16.98607374914856
N           16.61068721178681       55.65971523802563       18.03147148407498
C           17.97404415858151       55.59725583726818       17.96272434677013
H           18.52659418607096       54.90860068927749       18.56873933119883
C           12.10152199670616       51.98228424825272       23.22996464531779
H           12.23403418780910       50.90617764797428       23.33058008467382
H           11.04589668780540       52.21235902605564       23.36414363928933
H           12.66800218827522       52.47579662747059       24.01217419044791
N           12.04804076430722       51.98986461560772       20.72411899610758
H           11.30260894420682       51.31759703244582       20.63996587934478
C           12.57670458693626       52.44705727161646       21.90251926283020
C           12.70405349141040       52.60290344123133       19.71357777190522
H           12.48755546734346       52.42948845122601       18.67967361846746
N           13.61916811546446       53.41805135573897       20.17643208778281
C           13.54765185482048       53.33313643362956       21.53814236324905
H           14.19394644538495       53.91578988970339       22.15840751392405
87
 energy: -128.455329348621 gnorm: 0.013434362637 xtb: 6.7.1 (edcfbbe)
Fe          15.06140430933800       54.55594178209510       19.12456460670205
N           13.62528352877286       55.87478866401599       18.57939405555282
N           14.64745686750667       53.45483921320504       17.46850876822946
N           16.47099220876449       53.24771765015017       19.65733799496986
N           15.37844311941261       55.61909429732597       20.81663134019176
C           13.24867394533762       56.99340084537332       19.25785499027221
C           12.20554955099131       57.69416941558371       18.53519090573180
C           11.95505341078330       56.96168014340900       17.41461723433475
C           12.85329795139049       55.82734110711778       17.45807399472635
C           13.65335732046147       53.67405654109271       16.56511978959502
C           13.50577465152594       52.53449378729825       15.69095674961502
C           14.45620528348015       51.62856598137444       16.07808188229488
C           15.17643969317459       52.24119499643425       17.17481504171704
C           16.88746965722657       52.16503182347092       18.94441265128494
C           17.99572078345009       51.51703517296695       19.60749560329772
C           18.22327302809314       52.22485777940597       20.75833325678230
C           17.25721080453855       53.31004881323540       20.76316876045011
C           16.18424758976989       55.24865098827831       21.84665066801998
C           15.93721760855770       56.07633045232969       23.00483350181739
C           14.99166716230874       56.98226326312898       22.63426521065236
C           14.66540611610277       56.68914136430222       21.25614578779089
C           13.73977098013447       57.38697801507692       20.49044547542076
H           13.33500230939747       58.29824052119609       20.91447026860134
C           12.87503036147623       54.82299887090434       16.50610848111838
H           12.20573570709419       54.92645493004061       15.66076031846664
C           16.28592265139013       51.68626320532915       17.79206828633332
H           16.68566923965177       50.78187846307257       17.35061833719093
C           17.11190067593249       54.21551649161475       21.79909247983086
H           17.75937612536037       54.09352130700357       22.65638339840063
C           10.95006887478315       57.22702646446509       16.34589295628312
H           11.43977613281967       57.51074637761865       15.41301265183285
H           10.28330791259624       58.03301463091723       16.64131690549632
H           10.34571193407949       56.34253490601188       16.15167461896938
C           11.52209307231058       58.94467091564754       18.97512678503301
H           12.19180504457784       59.57666501930822       19.55234417291589
H           10.65591673454887       58.71250767624630       19.59672817414899
H           11.17471519032640       59.51313954896408       18.11469398455250
C           12.44840786352384       52.33985508639038       14.65695196129530
H           12.78424103496501       52.68895298289436       13.67955905421632
H           11.54251280479227       52.88259500577463       14.91761051565944
H           12.20215242773884       51.28295916556335       14.57022382984936
C           14.63679575547482       50.26680483119785       15.60557096661232
H           14.73522027716177       50.12523536066735       14.53364779051475
C           14.63849017478767       49.21835512132125       16.41862318706464
H           14.50727383570786       49.34324202007107       17.48160212008375
H           14.75553203241546       48.20795412085781       16.06401890306298
C           18.73619944345717       50.33249247150189       19.09348615814047
H           18.73565277662685       50.31513977106044       18.00599511205433
H           18.27847283886321       49.40627077290171       19.44395788462376
H           19.76676181516113       50.35253135699509       19.44442737822924
C           19.20638572286304       51.97682672699849       21.78933059111841
H           19.64794833488864       52.85302613105096       22.25096470612853
C           19.57585167206172       50.76819741869039       22.20106112245487
H           19.12486249733371       49.87625334500530       21.80284306007994
H           20.31626900228168       50.62544211800899       22.96975503597221
C           16.58055529207876       55.88048306787696       24.33571410074263
H           17.63282579682928       56.16374415965853       24.30235703704124
H           16.52472726115680       54.83423156808676       24.63745783767603
H           16.08969815298139       56.48431952396891       25.09455029183191
C           14.35057717135185       58.03830688205450       23.47186836695294
H           14.91527781417847       58.97075549965144       23.42419517420228
H           14.30715989469646       57.72588177812969       24.51364653875571
H           13.33527281597042       58.23743268796600       23.13567318236582
C           19.78496247498372       56.86841852652866       16.58254176499108
H           19.99228811245145       57.91886590626953       16.78836485135711
H           19.87378261761244       56.71422634590444       15.50710168829067
H           20.53308460446529       56.26301344822176       17.08194149140680
N           17.30969453743084       57.12833030051090       16.55468987403843
H           17.30802749149512       57.85625930715945       15.85868606290044
C           18.42295178455147       56.50310102045632       17.05356160002688
C           16.23189570116909       56.59459056378307       17.16773721895204
H           15.22568290293526       56.89451406167095       16.96806429610037
N           16.58396869892153       55.67230045615767       18.02504693217020
C           17.94605426370504       55.60120051320396       17.96613705586288
H           18.49286278203522       54.91139229319368       18.57534625640449
C           12.09585422366135       51.97856364700074       23.22430372234725
H           12.22623932515513       50.90211622321022       23.32818918052863
H           11.04040594385813       52.21016642949702       23.36127960773720
H           12.66358415928700       52.47335969290712       24.00528113879034
N           12.04679660298438       51.99092472376780       20.71617596533799
H           11.30028355264711       51.32055829209430       20.62590695718222
C           12.57401096376831       52.44251366157565       21.89766964451743
C           12.71031325053305       52.60725099246909       19.71061523033056
H           12.49784344882753       52.43937402942243       18.67541839144658
N           13.62609309639618       53.41710115043772       20.17878957346186
C           13.55031788404837       53.32470392251949       21.53880353738315
H           14.19692953026293       53.89706409268267       22.16806596308173
87
 energy: -128.457364724991 gnorm: 0.010327582620 xtb: 6.7.1 (edcfbbe)
Fe          15.06075053277312       54.55838112013986       19.12367414174912
N           13.62942865692758       55.87193934252969       18.58315818796403
N           14.64051622773931       53.45612171645126       17.49039736838009
N           16.47851950941372       53.26153856708429       19.65040577950896
N           15.38127873270303       55.60971849607036       20.80620157854331
C           13.25435197295986       56.98956899677454       19.25769851998221
C           12.22119077051567       57.69666896285050       18.53293496052952
C           11.96946835474230       56.96376460251030       17.41397638860296
C           12.85871681745757       55.82614449115960       17.46342376387421
C           13.65250398914161       53.67605493412998       16.58102446066046
C           13.51528182362646       52.54701937054034       15.69708018120587
C           14.45475820827387       51.63545739900722       16.09571648391987
C           15.16347848670564       52.24012937731627       17.20099861553529
C           16.88368285685943       52.16886575249150       18.94713729001026
C           17.98420611006761       51.51670812228075       19.60875351013568
C           18.21642637095220       52.22681449426967       20.75713346501881
C           17.26208356872605       53.31909075572737       20.75450015994414
C           16.19389425931436       55.24595161045777       21.83333349383931
C           15.95374256401207       56.08152971341308       22.98939031056496
C           14.99959713516452       56.98222220759825       22.61912407476481
C           14.66352320873773       56.67617686429286       21.24490351328873
C           13.72748853297298       57.36952376527907       20.49985104825573
H           13.29747015556056       58.25755502968776       20.94516580145980
C           12.86297814176567       54.81331282190284       16.52319491634162
H           12.17016886926392       54.89880860068249       15.69636683338784
C           16.26572511866810       51.67288085100737       17.81294432807039
H           16.63989419433335       50.74989274303974       17.38874888678231
C           17.11634937391939       54.21686887677103       21.79633549421425
H           17.74875880025397       54.08596536840238       22.66303287120640
C           10.96545268009683       57.22218900331906       16.34312233001702
H           11.45308549957567       57.49343049564033       15.40482845467464