87
 energy: -128.409226594385 gnorm: 0.222008045960 xtb: 6.7.1 (edcfbbe)
Fe          17.82100000000000       56.13500000000000       36.05300000000000
N           17.48700000000000       58.08500000000000       35.90800000000000
N           15.89100000000000       55.78100000000000       35.42100000000000
N           18.14800000000000       54.11099999999999       36.24699999999999
N           19.65200000000000       56.47499999999999       36.68100000000000
C           18.37700000000000       59.10799999999999       36.23199999999999
C           17.81800000000000       60.33400000000000       35.89300000000000
C           16.57000000000000       60.12000000000000       35.37900000000000
C           16.38600000000000       58.72400000000000       35.39500000000000
C           15.05500000000000       56.72499999999999       35.04900000000000
C           13.82200000000000       56.08800000000000       34.74800000000000
C           13.98000000000000       54.73799999999999       34.97799999999999
C           15.35300000000000       54.54300000000000       35.42500000000000
C           17.20700000000000       53.10900000000000       36.12000000000000
C           17.80300000000000       51.87400000000000       36.43200000000000
C           19.12100000000000       52.09900000000000       36.74400000000000
C           19.31400000000000       53.49999999999999       36.57900000000000
C           20.58900000000000       55.54400000000000       36.89700000000000
C           21.83400000000000       56.20699999999999       37.33700000000000
C           21.59600000000000       57.53300000000000       37.34100000000000
C           20.21500000000000       57.70500000000000       36.91900000000000
C           19.65400000000000       58.95300000000000       36.75800000000000
H           20.22300000000000       59.83600000000000       37.04900000000000
C           15.24900000000000       58.08700000000000       34.97200000000000
H           14.44900000000000       58.69500000000000       34.54900000000000
C           15.90700000000000       53.34300000000000       35.76100000000000
H           15.24400000000000       52.47799999999999       35.74200000000000
C           20.49700000000000       54.15799999999999       36.85999999999999
H           21.39099999999999       53.56800000000000       37.06000000000000
C           15.60300000000000       61.15799999999999       34.88000000000000
H           15.64800000000000       61.20399999999999       33.77100000000000
H           15.87400000000000       62.15300000000000       35.29299999999999
H           14.57000000000000       60.88800000000000       35.18800000000000
C           18.46800000000000       61.69299999999999       36.03100000000000
H           19.56900000000000       61.59100000000000       35.91899999999999
H           18.24600000000000       62.11499999999999       37.03400000000000
H           18.08700000000000       62.37300000000000       35.24000000000000
C           12.55600000000000       56.77000000000000       34.30000000000000
H           12.81100000000000       57.69000000000000       33.73100000000000
H           11.94800000000000       57.05199999999999       35.18600000000000
H           11.97600000000000       56.08900000000000       33.64200000000000
C           13.00900000000000       53.59000000000000       34.84100000000000
H           13.41900000000000       52.57399999999999       34.92800000000000
C           11.72400000000000       53.65199999999999       34.62900000000000
H           11.22100000000000       54.62499999999999       34.52800000000000
H           11.12600000000000       52.73199999999999       34.54900000000000
C           17.05500000000000       50.53799999999999       36.36900000000000
H           16.26600000000000       50.59100000000000       35.58799999999999
H           16.57700000000000       50.32900000000000       37.35000000000000
H           17.76400000000000       49.72299999999999       36.11000000000000
C           20.19200000000000       51.16599999999999       37.14700000000000
H           21.22500000000000       51.54099999999999       37.19000000000000
C           20.01400000000000       49.90799999999999       37.46300000000000
H           19.00800000000000       49.46400000000000       37.44200000000000
H           20.86800000000000       49.27900000000000       37.75299999999999
C           23.13900000000000       55.56100000000000       37.72500000000000
H           23.35200000000000       54.71300000000000       37.03900000000000
H           23.07200000000000       55.17499999999999       38.76500000000000
H           23.96300000000000       56.30299999999999       37.64700000000000
C           22.58700000000000       58.61800000000000       37.74900000000000
H           23.16600000000000       58.94500000000000       36.85899999999999
H           23.29100000000000       58.21700000000000       38.50900000000000
H           22.03800000000000       59.49100000000000       38.16300000000000
C           20.09200000000000       57.65700000000000       31.15900000000000
H           19.36900000000000       58.13699999999999       30.46500000000000
H           20.71300000000000       56.93400000000000       30.58900000000000
H           20.73800000000000       58.44200000000000       31.60600000000000
N           18.46200000000000       55.92100000000000       31.96800000000000
H           18.25600000000000       55.57400000000000       31.05300000000000
C           19.35100000000000       56.94499999999999       32.23300000000000
C           17.94200000000000       55.48599999999999       33.08900000000000
H           17.20600000000000       54.68599999999999       33.16300000000000
N           18.47100000000000       56.18900000000000       34.08700000000000
C           19.37300000000000       57.07800000000000       33.57400000000000
H           19.95100000000000       57.72799999999999       34.21800000000000
C           14.69900000000000       56.49199999999999       40.77399999999999
H           14.88900000000000       57.41800000000000       41.35800000000000
H           14.64800000000000       55.63000000000000       41.47300000000000
H           13.73500000000000       56.59899999999999       40.23200000000000
N           17.11400000000000       56.12899999999999       40.18300000000000
H           17.43500000000000       56.11900000000000       41.13000000000000
C           15.79800000000000       56.28499999999999       39.80399999999999
C           17.86600000000000       55.99800000000000       39.10600000000000
H           18.93800000000000       55.80600000000000       39.11399999999999
N           17.08000000000000       56.14299999999999       38.04600000000000
C           15.79300000000000       56.33299999999999       38.45799999999999
H           14.98900000000000       56.48600000000000       37.74900000000000
87
 energy: -128.450107061220 gnorm: 0.091124983649 xtb: 6.7.1 (edcfbbe)
Fe          17.82687163908571       56.13504704928890       36.06029309482660
N           17.49480577119689       58.09051509771389       35.91112239626877
N           15.92801531229156       55.77225936319619       35.43083337266536
N           18.15327271099461       54.11889049355745       36.24127665175475
N           19.66492196880846       56.48214266643967       36.67828653193702
C           18.37208849690118       59.10364465785505       36.22907233948391
C           17.81323802903806       60.35938959795619       35.89069478010147
C           16.57042543651337       60.13252164546444       35.37567757505152
C           16.39244255843330       58.71668847695845       35.39485330362313
C           15.04775384676141       56.70324779663805       35.04335723583509
C           13.79613592914626       56.06401027442258       34.74069170430288
C           13.96038281455503       54.72027002995947       34.97698154199391
C           15.34122927958355       54.55171367156679       35.41858064666555
C           17.21771650931113       53.11932099169953       36.12450397338504
C           17.80524870675139       51.85706314065806       36.42787405148304
C           19.12759112084227       52.08716174221967       36.73267350268233
C           19.31190481034671       53.50917300101013       36.59239697099117
C           20.61345613385638       55.55261802312813       36.91011761423421
C           21.85117137140365       56.20526749016524       37.33735889008597
C           21.60428846542846       57.53508129890686       37.35507917326478
C           20.22907390626674       57.70230275223803       36.92626921403163
C           19.64430720401499       58.93765975116304       36.75909748481949
H           20.21168602907415       59.81896235827573       37.03249955025693
C           15.24960129892376       58.07200976659760       34.96862361368729
H           14.45131516698511       58.68211029478720       34.56237155883793
C           15.90408405016279       53.34463092824583       35.75950592966304
H           15.24914169568173       52.48142737556512       35.73719151897919
C           20.49806538451139       54.17380496176099       36.86253414749866
H           21.38129728599629       53.58441891830301       37.06804802769971
C           15.60162742051002       61.15455899015006       34.87771843495224
H           15.63730669721702       61.20845751793338       33.78271029731437
H           15.85564844859726       62.13818234896195       35.28283251544310
H           14.58141591588646       60.89955055958340       35.18055030325377
C           18.47266741284140       61.69672468588741       36.03338262877769
H           19.55703550947187       61.60409556004113       35.92223945358837
H           18.25533775412534       62.12222238719770       37.01946026586420
H           18.10107679696110       62.37395750465265       35.25999089052817
C           12.55697757368524       56.77024604376595       34.29253895535836
H           12.80311824975789       57.68184465685658       33.73873828349135
H           11.94727897174373       57.04794163105214       35.16152162826477
H           11.97789493448412       56.11999689344263       33.63512559784201
C           13.01897383940090       53.59947259196280       34.83896948535943
H           13.44602285349467       52.60143355721694       34.92979324929523
C           11.71264952114936       53.65528765467438       34.62923365328269
H           11.19114116350182       54.59701812472277       34.54503919216018
H           11.12319823623948       52.74949507899046       34.54664424892532
C           17.05594975350359       50.54927919545656       36.36371305038143
H           16.27222666661897       50.59419533038648       35.60190931350069
H           16.58758757257289       50.32685562552511       37.33040951265721
H           17.73372357765177       49.73593332105433       36.09547042700526
C           20.18398438844443       51.16711449233508       37.13447222940986
H           21.19902121951881       51.56025701183147       37.17874816487765
C           20.01645984874351       49.89499858219686       37.46943230320049
H           19.03743837600126       49.44187765464807       37.47913479792867
H           20.85775487059929       49.27494268600529       37.75253635278928
C           23.13803421447035       55.54927161549205       37.71838777245156
H           23.36005587382432       54.71336652550165       37.04912646316038
H           23.08242664196569       55.17231317360475       38.74691271053064
H           23.95337653722321       56.27552576296937       37.65117755479300
C           22.57466224688242       58.61623784526697       37.74546323666380
H           23.15380258548988       58.94499134301586       36.87375027985959
H           23.27294267429462       58.23444745345520       38.49636024021011
H           22.05038810670901       59.48104335388436       38.16066563283943
C           20.09242372096071       57.65444489495280       31.15256111382224
H           19.38737028801132       58.13447105291018       30.46400145372903
H           20.71410749972121       56.95370931629842       30.58502498391373
H           20.72883171365716       58.42491395460982       31.59415468413958
N           18.46669876057223       55.92880666414538       31.95201814717081
H           18.25545295713542       55.57985614312719       31.03323258565051
C           19.35645492536977       56.93890519596935       32.22387090712720
C           17.94957260997374       55.49354968785459       33.10380898722921
H           17.22059569236528       54.70475710159076       33.18020017394544
N           18.47031775180347       56.17217568515854       34.10886506059221
C           19.35618932194092       57.06627466586281       33.57840902274309
H           19.92661878927342       57.71829602559773       34.21381303489944
C           14.69837505744483       56.49652159828666       40.78409368407220
H           14.87184375349341       57.40827924834417       41.36648906505104
H           14.63583353879265       55.64633135837966       41.47257191310474
H           13.75108124057902       56.59541803840366       40.24845936094194
N           17.10315779584936       56.11993623463174       40.19658345919512
H           17.42754122631296       56.10332099854831       41.14788881165366
C           15.79944397055939       56.30387344158920       39.81261787864107
C           17.85628401578736       56.00673021287979       39.09443984982916
H           18.91569629688091       55.81741922019540       39.10147719999412
N           17.09790751195524       56.14057639824752       38.02575110105596
C           15.81629989169017       56.33197512236614       38.45269741270506
H           15.01416228342190       56.47496736458677       37.75294458672249
87
 energy: -128.459539521944 gnorm: 0.021980502014 xtb: 6.7.1 (edcfbbe)
Fe          17.82466603600478       56.12884092665145       36.06404186301044
N           17.50058518274083       58.09441766390196       35.91007366618266
N           15.95251957475175       55.76446526406841       35.43881645220846
N           18.15466478950368       54.12676484814180       36.24797570382480
N           19.67383885834637       56.48464255761915       36.68141450450977
C           18.36660944091070       59.09709796263309       36.22382352682477
C           17.80775508504417       60.37591920918238       35.88729840887120
C           16.57000701135226       60.13611657228036       35.37154225238853
C           16.39630590866901       58.70533408639973       35.39391835385510
C           15.04086772674435       56.68526579743041       35.03917371087343
C           13.78082930443751       56.04949739919154       34.73398398053651
C           13.94722982331040       54.70817952802994       34.97724366491541
C           15.33194318204243       54.55689831737154       35.41278954084073
C           17.22511290595133       53.13484726030647       36.12500512588138
C           17.80303313971220       51.85204610431509       36.41973673261881
C           19.12665640851977       52.08174239675913       36.72576267184689
C           19.30989135534539       53.51729917441624       36.60222135064931
C           20.63519919421534       55.55767385106757       36.92343415574270
C           21.86478330271347       56.20323687214802       37.33994914493902
C           21.61049289194882       57.53684680433742       37.36831082974186
C           20.24025143495587       57.69760170756162       36.93373848563229
C           19.63411849063473       58.92351084149204       36.75547810469478
H           20.20118473394103       59.80640187872223       37.01012996463449
C           15.25152728824672       58.05555260739965       34.96921520829376
H           14.45243619916337       58.66956742735222       34.58128990710583
C           15.90464425676780       53.34709793535284       35.75492383432098
H           15.26145040782416       52.48034153559504       35.73016207607644
C           20.49662399181140       54.18415610045372       36.86647358529645
H           21.37167821409096       53.59412036325911       37.08600725442744
C           15.59512398487569       61.14716481158158       34.87381728566636
H           15.62310352793149       61.20479745366079       33.78510292579896
H           15.83855220240154       62.12782326988723       35.27353000320913
H           14.58167758087446       60.89722780133577       35.17591494678733
C           18.47603080748258       61.70076308696494       36.03767511954916
H           19.55250388763181       61.60996223965023       35.92773146690322
H           18.26595321704854       62.12991211007300       37.01701588883596
H           18.11277207308341       62.38595213860353       35.27687659096016
C           12.55987182856057       56.77167514420243       34.27974215669550
H           12.81321145688723       57.68315268328191       33.74476043988513
H           11.94274473045797       57.04288065146628       35.13789042589330
H           11.97671487207922       56.14285357897659       33.61569844825939
C           13.02502384801467       53.61014483557209       34.84213739967090
H           13.46720950612544       52.62424268953966       34.91987406651180
C           11.70814692106474       53.65925848149983       34.64057108933710
H           11.16399358306976       54.57968280661788       34.57049076398735
H           11.12918032362874       52.75752376425861       34.54422492346850
C           17.05658514994331       50.56218486633482       36.35132257941331
H           16.26644372505893       50.61190620606212       35.60663915096748
H           16.60017226602164       50.32940748054850       37.31461017208004
H           17.71962996843236       49.74804486025302       36.07588416842786
C           20.16891861695888       51.16794812220760       37.12571379504444
H           21.17253135680149       51.57470291693610       37.15005634532861
C           20.01723471531759       49.89128127627190       37.48096566128389
H           19.05679039591105       49.41847075673694       37.51770401276732
H           20.85972050355232       49.28183517543678       37.75503644944811
C           23.14178101530406       55.53503487023681       37.71291275794002
H           23.36236342234173       54.70397073984600       37.05026394435925
H           23.09061322321800       55.15682771381973       38.73448215573239
H           23.95911622611100       56.24837424339161       37.65359877623820
C           22.56427174679488       58.61940551011758       37.74682209225517
H           23.13808277123164       58.94864545105606       36.87951812902323
H           23.26436914410419       58.25199436032972       38.49349503690253
H           22.04635479273310       59.47943551642373       38.15927612759614
C           20.09392076274892       57.65232267338440       31.15284059229065
H           19.39787003964823       58.13138131123971       30.46565696760245
H           20.71674881764891       56.96447632505853       30.58340455368494
H           20.72660163010729       58.41516896248724       31.59228422081663
N           18.46682912130330       55.93006508877410       31.94501839140954
H           18.24963386833486       55.58033246373349       31.02567618225931
C           19.35814115974643       56.93216821729570       32.22215732260253
C           17.95472590043801       55.49587754928955       33.11668074354172
H           17.23005944509863       54.71323361341551       33.19675289825155
N           18.46263378670392       56.16545907669421       34.12217861105000
C           19.34350910661018       57.05699786547493       33.58254750497069
H           19.90648448513139       57.71715883898237       34.20899818776327
C           14.69814034610485       56.50119566574787       40.78604577496917
H           14.85738503829459       57.40280780447772       41.37591230703295
H           14.63320477487472       55.65418475675777       41.46675024041450
H           13.75784538120384       56.59465311557619       40.25468006369498
N           17.10035489645965       56.11236770387971       40.20427690459299
H           17.42531901387936       56.08259200260642       41.15728788530816
C           15.80471186306851       56.32056262917749       39.81358525424218
C           17.85474952264815       56.01278327149956       39.08785955806546
H           18.90767598833872       55.82729121509905       39.09513193551896
N           17.11836797396744       56.14871088613565       38.01393349270212
C           15.83915130694893       56.33730993792934       38.44767326770538
H           15.03523623993643       56.47292841866155       37.75537778253786
87
 energy: -128.461207747112 gnorm: 0.011959505942 xtb: 6.7.1 (edcfbbe)
Fe          17.82261267551193       56.12630658892831       36.06755024058782
N           17.50200265260272       58.09619807920735       35.90793653235303
N           15.95547617897071       55.76296537015200       35.44326054872320
N           18.15356688871522       54.13294187411191       36.25301001826024
N           19.67959292016230       56.48318606508371       36.68626361087989
C           18.36730048571554       59.09495058653471       36.21899596330181
C           17.80616603540011       60.38039836092094       35.88439840095158
C           16.56966065483503       60.13581030341685       35.36938822039650
C           16.39709385717089       58.70151099076850       35.39348878460963
C           15.03807425730653       56.68267759719581       35.03993484142219
C           13.77906422176814       56.05133310121712       34.73002265954916
C           13.94411168786932       54.70895933640272       34.97523171779493
C           15.32768501486900       54.55889296181208       35.41143093989024
C           17.22476513088488       53.14615317899345       36.12276064926171
C           17.79812752371873       51.85768977591746       36.41118239483759
C           19.12049828520755       52.08255485442157       36.72202836976432
C           19.30744186299242       53.52126070200366       36.60863078134687
C           20.64388768046918       55.55686632584315       36.93329183375091
C           21.87121123577606       56.20121683028659       37.34556002728042
C           21.61408231039578       57.53641511360238       37.37531381976004
C           20.24596358504304       57.69504639949695       36.93720384674691
C           19.63387332023292       58.91881667776666       36.74931727859301
H           20.20231728770860       59.80395738290196       36.99209229077863
C           15.25239210957872       58.05148906824380       34.97332579276715
H           14.45009991188011       58.66778819424702       34.59673828046659
C           15.90430432657548       53.34994667931932       35.75051775583020
H           15.26944437132121       52.47770899432413       35.71969113615668
C           20.49347281961003       54.18460360695587       36.87785842904466
H           21.36460353240622       53.59212900283803       37.10949626013888
C           15.58601277692365       61.13911515870776       34.87004454869300
H           15.60781124774548       61.19332577861130       33.78044771819543
H           15.82294662507966       62.12418590252695       35.26500363898629
H           14.57415936430733       60.88412868767561       35.17616829566719
C           18.47779256286004       61.70332877067680       36.04303348778497
H           19.55481711660784       61.61018190558560       35.93172429520267
H           18.27290963409412       62.12947110239619       37.02592687898053
H           18.11790170248742       62.39987430653606       35.28891945472731
C           12.56644159320370       56.77914653893883       34.26169603387689
H           12.83415340101539       57.69876743500259       33.74647834568817
H           11.93078569172628       57.03876129076757       35.11137661324371
H           11.99064200141109       56.16644985847227       33.57295916280520
C           13.02477269209319       53.61045706952154       34.83601642014854
H           13.47814457681914       52.62826243689747       34.89811376264983
C           11.70400618612366       53.65107583762349       34.65179490491338
H           11.13497462172460       54.56336546860397       34.62719843414096
H           11.13402642651957       52.74361658983347       34.54927980043198
C           17.04952945884014       50.57192447543928       36.33146679785468
H           16.24493224353339       50.63595080639449       35.60191961499856
H           16.60951254103704       50.32311540472453       37.29998842452368
H           17.70456720168422       49.75881575752719       36.02879347297755
C           20.16157373776151       51.16687603911596       37.11495277641215
H           21.16267655155445       51.58132020920447       37.11343765343864
C           20.02633375166547       49.89378732850626       37.49318403020681
H           19.07062800296079       49.40783769391000       37.58669683757777
H           20.88156712060638       49.29732819388520       37.76117008965575
C           23.14667197132679       55.52194226564286       37.71059133630090
H           23.35879540909218       54.69174716680106       37.04209938331299
H           23.09682163871661       55.13431511062059       38.72951129124458
H           23.97297568200531       56.22649134553362       37.65469736647945
C           22.55922917295387       58.62716609083363       37.75017484720705
H           23.12719775218384       58.96017348965686       36.87979839435791
H           23.26557472139030       58.27022351457677       38.49720707304016
H           22.03357834952564       59.48454497272968       38.16095126879064
C           20.09408878986051       57.64772944699241       31.15850681110920
H           19.40043313838652       58.12844018177987       30.46922070917163
H           20.72036020731956       56.96313399148647       30.58725159527678
H           20.72632724426684       58.41003287305615       31.60112860362571
N           18.46414844464384       55.92285720086325       31.94722156613097
H           18.24414368753543       55.57378649267797       31.02839160333865
C           19.35478883636116       56.92606527658742       32.22598626221286
C           17.95235709100713       55.49067059918495       33.12264836243740
H           17.22764321551488       54.70816433424027       33.20552759853631
N           18.45799021821670       56.16044914105552       34.12723391678251
C           19.33572505013360       57.05391115492483       33.58602950073856
H           19.89274583189687       57.72293553650903       34.20830821188628
C           14.70032128104983       56.50291486504366       40.78236616045574
H           14.85130335773761       57.40120431158672       41.38130145442695
H           14.63588858421605       55.65104073737016       41.45804500141777
H           13.76027809557135       56.59585527831376       40.24912670314389
N           17.10474356416982       56.10992487976272       40.20677611674287
H           17.42693517436348       56.06539316439861       41.16027809135965
C           15.81116900679273       56.32916619553047       39.81129788214193
C           17.86170657826342       56.01477197576900       39.08994646261012
H           18.91530214665806       55.83151634861257       39.09863821181438
N           17.13114513396911       56.15665833569717       38.01385607166959
C           15.85218155561012       56.35077495673540       38.44579499154303
H           15.04791741417684       56.48775471542715       37.75437423166620
87
 energy: -128.462212462109 gnorm: 0.010445692233 xtb: 6.7.1 (edcfbbe)
Fe          17.82087325451881       56.12502877357092       36.07323744074870
N           17.50388961044468       58.09880940184325       35.90589647664951
N           15.95493434277383       55.76345373857662       35.44882298854407
N           18.15142813149035       54.14275409710751       36.25878312559972
N           19.68770321880138       56.48279822777935       36.69210121289541
C           18.37067800051506       59.09428501843644       36.21320318526535
C           17.80556547016341       60.38504996960910       35.88081560223726
C           16.56961714819074       60.13647002167028       35.36879185708064
C           16.39787844288479       58.69958643439911       35.39475215230215
C           15.03433483068729       56.68308578252233       35.04127559198276
C           13.77757448864740       56.05494971753933       34.72717007895746
C           13.94208709236375       54.71221684753355       34.97439414757068
C           15.32311759588701       54.56168240222536       35.41051832711157
C           17.22397207337819       53.15992688590142       36.11741060013291
C           17.79341219558649       51.86746963295086       36.40225175362814
C           19.11210697369921       52.08854167397334       36.72171165866196
C           19.30412719082637       53.52860655569800       36.61785511834313
C           20.65316593511866       55.55704851569858       36.94580664995264
C           21.87868545418634       56.20060852146452       37.35483390951795
C           21.61997974907809       57.53722108878242       37.38188232217753
C           20.25375665221437       57.69414007320216       36.93987529941232
C           19.63743414558264       58.91622751110993       36.73992338594135
H           20.20769436465547       59.80369847021248       36.97013869023363
C           15.25245506024424       58.05064670152515       34.98036489578961
H           14.44719889408845       58.66990988070607       34.61536332459842
C           15.90393820327504       53.35361268707229       35.74349864519293
H           15.27846599041830       52.47520435155616       35.70641930985311
C           20.48908321522561       54.18583423990341       36.89641755283442
H           21.35464889114454       53.58942874742723       37.14353817376082
C           15.57420190348075       61.12836787674427       34.86691704295892
H           15.58708751017296       61.17336071802450       33.77598353922643