72
 energy: -105.980558594046 gnorm: 0.000065587038 xtb: 6.7.1 (edcfbbe)
Fe         -15.10800367587089       56.78376890338201        5.96841162510420
N          -13.69708185190817       57.05549641098958        7.34763324024780
N          -15.06301089027416       58.73348559632663        5.52326997207770
N          -16.59213642008109       56.51480045817085        4.63031398717926
N          -15.21242540385107       54.84185987558950        6.45692277112194
C          -13.12577910795678       56.10613757983355        8.13117648969471
C          -12.12857811514885       56.69184670658528        9.00151657835482
C          -12.12174012779080       58.02339365371136        8.73065228807071
C          -13.10917637515890       58.23057586217371        7.69309760133472
C          -14.29961710681928       59.68816792238415        6.12048356063458
C          -14.54035150176344       60.98047406949365        5.53148615099009
C          -15.47371899301281       60.78752825055572        4.54838449327954
C          -15.79760495256772       59.37445026493763        4.57722315928751
C          -17.10276343281553       57.45123080324760        3.78100333776410
C          -18.11237242281646       56.87504495262646        2.93286051607245
C          -18.20545773135101       55.55456010634157        3.28740421158317
C          -17.24165514621291       55.35502854856622        4.34926045129953
C          -16.03596005908506       53.90349238033157        5.91760609598040
C          -15.77089352569867       52.60225734332556        6.49006523049103
C          -14.75574837341036       52.77552261648213        7.37789875179016
C          -14.42035047487449       54.18138442789502        7.34222441834282
C          -13.44207686192954       54.76107460367007        8.12545491826839
H          -12.89175047200066       54.11655873424559        8.79290951899400
C          -13.38606477923432       59.46151407293883        7.13504183848573
H          -12.84009627140386       60.31207080731492        7.51239885090456
C          -16.72282138254513       58.78114514796719        3.74056762403541
H          -17.20126398117765       59.40881653385638        3.00521155520914
C          -16.99162721719201       54.13419883288616        4.94754091244071
H          -17.56658482995543       53.28690674490433        4.60871885743477
C          -11.29718045326603       59.10769958465420        9.33357234039211
H          -10.62814904972143       58.70825758528791       10.09156884031116
H          -11.93569926086475       59.85755681716779        9.80062254819889
H          -10.69539086965004       59.60282207137919        8.57091065136125
C          -11.31345482221790       55.92161336747398        9.98206903497262
H          -10.73988643613109       55.14387959290891        9.47739429173413
H          -11.95606642522201       55.44234485306863       10.72082032418192
H          -10.61917603463979       56.57462109242284       10.50489635981635
C          -13.92244737276023       62.25600000071882        5.98538171471800
H          -12.92309149196855       62.37820247145510        5.56381072221084
H          -13.83576646870681       62.27558269882945        7.07055319719719
H          -14.53352834593296       63.09879811286255        5.66920139756741
C          -16.08022947871954       61.75571171690138        3.66121448598285
H          -17.11567777824298       61.56985599487105        3.40084813002319
C          -15.46961055661473       62.82127972368792        3.15391678591380
H          -14.43056963091449       63.02974691919120        3.34078562853492
H          -15.98618832717181       63.51197987805836        2.50853812831228
C          -18.92437462370351       57.62523958778391        1.93645249611289
H          -18.37839235613072       57.74224432972509        0.99897134488778
H          -19.17133994586375       58.61854067347385        2.30830677029377
H          -19.84941484968209       57.09057498211908        1.73092790383263
C          -19.08051990704307       54.52655187481850        2.76769596750266
H          -19.41086742640033       53.78564374603329        3.48660533113412
C          -19.48687750625761       54.42787888079086        1.50659152390656
H          -19.15139033866408       55.10632878883403        0.74185583237149
H          -20.15129096933480       53.64151437188784        1.18929264275882
C          -16.50371795133550       51.35873756610757        6.12214429183902
H          -16.37955911028280       51.14286931546483        5.06093568727071
H          -17.56995106443602       51.46675557348444        6.32298166962298
H          -16.13291351782262       50.50944191610864        6.69034417610533
C          -14.07839431873420       51.77344726624877        8.24724050478248
H          -13.01381911306186       51.72702012966761        8.01787929304531
H          -14.50379324643655       50.78393608467651        8.10038324166624
H          -14.18674213564016       52.04161273672150        9.29845696071246
O          -16.73407899436273       57.13172230860693        7.47733326679199
H          -17.48368826291933       57.29465561147789        6.89323889059207
H          -16.84190688491682       56.24306599240163        7.83564426656930
C          -12.07239782706687       57.32180597953599        4.52673345390551
H          -11.48348248683211       57.32913216512514        3.61469259826631
H          -11.51235887398666       56.85601346977934        5.33084671660864
H          -12.36587402844197       58.32492660239109        4.81669754384936
S          -13.56302149817362       56.29702076661526        4.26810826796143
H          -14.08400847593902       57.08057458848442        3.31679576971080
