72
 energy: -105.874920828399 gnorm: 0.260713722912 xtb: 6.7.1 (edcfbbe)
Fe         -15.12400000000000       56.86399999999999        5.88100000000000
N          -13.71100000000000       57.13300000000000        7.36000000000000
N          -15.23000000000000       58.88999999999999        5.68200000000000
N          -16.87000000000000       56.66800000000000        4.78100000000000
N          -15.29300000000000       54.82700000000000        6.45000000000000
C          -13.04200000000000       56.12200000000000        8.01700000000000
C          -11.99100000000000       56.71600000000000        8.81900000000000
C          -12.04500000000000       58.04700000000000        8.62700000000000
C          -13.12200000000000       58.32800000000000        7.70200000000000
C          -14.40700000000000       59.83100000000000        6.25600000000000
C          -14.68900000000000       61.12400000000000        5.65100000000000
C          -15.65400000000000       60.93000000000000        4.73100000000000
C          -16.01200000000000       59.52699999999999        4.74100000000000
C          -17.29600000000000       57.61400000000000        3.87000000000000
C          -18.16800000000000       56.97599999999999        2.90500000000000
C          -18.24100000000000       55.67900000000000        3.25500000000000
C          -17.42900000000000       55.46400000000000        4.43200000000000
C          -16.23900000000000       53.93300000000000        5.94100000000000
C          -15.96100000000000       52.59400000000000        6.44200000000000
C          -14.72600000000000       52.77499999999999        7.32600000000000
C          -14.39300000000000       54.18699999999999        7.28400000000000
C          -13.33500000000000       54.77700000000000        7.94200000000000
H          -12.65300000000000       54.10400000000000        8.46200000000000
C          -13.49200000000000       59.57599999999999        7.24400000000000
H          -13.01300000000000       60.43699999999999        7.71000000000000
C          -16.95000000000000       58.94200000000000        3.91300000000000
H          -17.47000000000000       59.60400000000000        3.22100000000000
C          -17.26800000000000       54.26400000000000        5.09000000000000
H          -18.03000000000000       53.50300000000000        4.92000000000000
C          -11.14000000000000       59.14200000000000        9.24700000000000
H          -10.28200000000000       58.66400000000000        9.76700000000000
H          -11.72100000000000       59.73700000000000        9.98300000000000
H          -10.75100000000000       59.80600000000000        8.44500000000000
C          -11.01800000000000       55.90799999999999        9.72700000000000
H          -10.21200000000000       55.46500000000000        9.10400000000000
H          -11.57100000000000       55.09000000000000       10.23600000000000
H          -10.56100000000000       56.58299999999999       10.48100000000000
C          -13.98300000000000       62.45400000000000        6.03200000000000
H          -12.99300000000000       62.50500000000000        5.53000000000000
H          -13.83200000000000       62.49700000000000        7.13200000000000
H          -14.60100000000000       63.31500000000000        5.69900000000000
C          -16.33600000000000       61.96200000000000        3.80500000000000
H          -17.43100000000000       61.98000000000000        3.70500000000000
C          -15.62200000000000       62.84999999999999        3.10900000000000
H          -14.52500000000000       62.86400000000000        3.18200000000000
H          -16.12200000000000       63.57800000000000        2.45400000000000
C          -18.84200000000000       57.69499999999999        1.70200000000000
H          -18.07800000000000       58.27200000000000        1.13900000000000
H          -19.62200000000000       58.39500000000000        2.07200000000000
H          -19.29800000000000       56.94299999999999        1.02300000000000
C          -19.03300000000000       54.52999999999999        2.59500000000000
H          -19.83900000000000       54.01900000000000        3.14200000000000
C          -18.75800000000000       54.13700000000000        1.35800000000000
H          -17.95900000000000       54.62599999999999        0.78200000000000
H          -19.32600000000000       53.31800000000000        0.89300000000000
C          -16.73300000000000       51.27000000000000        6.16500000000000
H          -16.88000000000000       51.14899999999999        5.07100000000000
H          -17.72700000000000       51.30399999999999        6.66100000000000
H          -16.14700000000000       50.40700000000000        6.54800000000000
C          -14.00700000000000       51.67800000000000        8.12100000000000
H          -13.10500000000000       51.34600000000000        7.56300000000000
H          -14.68500000000000       50.80900000000000        8.25900000000000
H          -13.69300000000000       52.07600000000000        9.11000000000000
O          -17.03800000000000       56.71600000000000        7.63200000000000
H          -17.85500000000000       56.74199999999999        7.13300000000000
H          -16.96300000000000       56.65300000000000        8.51600000000000
C          -12.01400000000000       56.63099999999999        4.73200000000000
H          -11.27700000000000       56.78599999999999        3.91500000000000
H          -11.80600000000000       55.64399999999999        5.19800000000000
H          -11.86000000000000       57.42999999999999        5.48900000000000
S          -13.73200000000000       56.68200000000000        4.09800000000000
H          -13.72100000000000       57.98200000000000        3.84000000000000
72
 energy: -105.939170864838 gnorm: 0.108766009839 xtb: 6.7.1 (edcfbbe)
Fe         -15.20863295815426       56.87417957265884        5.98291114494058
N          -13.70092271566340       57.12722326426105        7.34576982197382
N          -15.22388538946760       58.88805424858327        5.66159620290159
N          -16.83279117383108       56.65444622754203        4.74288924270953
N          -15.27994576878765       54.82772069241419        6.42424585863820
C          -13.04276470348600       56.12372429097042        8.00937956212374
C          -11.98620069765370       56.70687393186235        8.82460855208094
C          -12.03962370719216       58.05181792521655        8.63775953986703
C          -13.12212476324039       58.31433086767774        7.70684780122372
C          -14.42161858191826       59.83300847389545        6.24618825656647
C          -14.69354298957366       61.13598395384315        5.65365181418885
C          -15.67208716177247       60.94606988196241        4.72469244497611
C          -16.00961546225652       59.53274922909096        4.74172110715441
C          -17.29227227761027       57.59904698972940        3.86151350001579
C          -18.17989724931827       56.97247536613842        2.89826377592128
C          -18.27167847115006       55.66279477765718        3.25968122303874
C          -17.43211088754397       55.46753219587578        4.42938115385852
C          -16.21616793352275       53.92834907871477        5.96431548026710
C          -15.92608301218917       52.60228888724573        6.48051063757108
C          -14.76287090127412       52.76303722174180        7.30215504676667
C          -14.40846707475317       54.16817736224578        7.24868984367006
C          -13.34669571405871       54.77019149038619        7.92924117268301
H          -12.67453907572442       54.10504484585140        8.46464642259581
C          -13.49445055300951       59.56962160345151        7.24136412775454
H          -13.00400893851075       60.42559904760996        7.69482908641615
C          -16.94965619899167       58.94010113277273        3.91121340405638
H          -17.46346997322904       59.59962085287867        3.22025454996476
C          -17.25586207600831       54.26053533392151        5.09848568194164
H          -17.99918132795329       53.49201442159632        4.90171358199547
C          -11.15078635702870       59.12620238203571        9.24075960726271
H          -10.29876885245095       58.67098324271581        9.75643041778835
H          -11.71362115235581       59.72609547739116        9.96605735920062
H          -10.76336643622696       59.79123752945254        8.45957671014077
C          -11.03250967371481       55.91837854086386        9.71119187439303
H          -10.22931884791104       55.47375064804406        9.10993738223214
H          -11.56431369019054       55.11026321108114       10.22495067399446
H          -10.57608279894347       56.57031870754491       10.46358898760572
C          -13.99337144195176       62.43271477340408        6.02752995976438
H          -13.01213433216536       62.49751212635372        5.53911274359373
H          -13.83898726427700       62.49247315105626        7.11086706426270
H          -14.59312580489761       63.29117668735339        5.70529633413604
C          -16.31622893461364       61.95320861556356        3.81880230029163
H          -17.40289078755296       61.95325427064185        3.72457118437335
C          -15.61943120569081       62.84288458175969        3.12099310136775
H          -14.53742508098925       62.86808468860197        3.17409728812777
H          -16.10929553990390       63.56210811683894        2.46944077890600
C          -18.83072970453136       57.68320962582251        1.72088992133496
H          -18.08709426080769       58.25790340750631        1.15534330244419
H          -19.60444866553502       58.37846127126645        2.07047241473050
H          -19.29074716526706       56.95351864639758        1.04597589706145
C          -19.02496947475987       54.54846490233660        2.59449975341997
H          -19.81415210364888       54.04469651386298        3.15321251907753
C          -18.75701661605726       54.14656536937542        1.36112423549356
H          -17.96880764317108       54.61481831154811        0.78253244363728
H          -19.31132334094826       53.33436439391941        0.89804792723187
C          -16.70083811274444       51.31421184080096        6.17930131724243
H          -16.86372661445841       51.17254476760915        5.10066705739844
H          -17.69296977215679       51.31774693736997        6.65546168956335
H          -16.15389514519308       50.43701675628465        6.54484686075099
C          -14.03060406142388       51.69822119394903        8.09688459408468
H          -13.12825697980401       51.35760203212199        7.56738133519529
H          -14.67517162371057       50.82725577612642        8.25635182021824
H          -13.71082085492664       52.07407336092165        9.07905321161320
O          -17.01084407599216       56.74659572205367        7.59701850572533
H          -17.84624592623923       56.73918924283230        7.13269250771061
H          -16.96040313029304       56.64966081162945        8.53134526369986
C          -12.00271692595379       56.63704223819042        4.73519656857400
H          -11.29449049964652       56.78366771628790        3.91177074737041
H          -11.82147129689010       55.65895942130073        5.19136597197420
H          -11.86177171615005       57.41992653774345        5.48538720680982
S          -13.73454227121556       56.67936108818588        4.13938221617766
H          -13.71211607976605       57.97766219605861        3.83207090615697
72
 energy: -105.960325306956 gnorm: 0.049326345033 xtb: 6.7.1 (edcfbbe)
Fe         -15.24465715292530       56.86789928496063        6.02112681941544
N          -13.72273986907128       57.12029083555330        7.34620706983881
N          -15.24761928256373       58.88283902315237        5.67206137202907
N          -16.79825693416807       56.64256588849894        4.72574439358187
N          -15.28073790672844       54.84335187245615        6.41778159557232
C          -13.05706911459605       56.12510339771198        7.99927381829085
C          -11.99439002087388       56.69701083174758        8.82023165788269
C          -12.04783331798270       58.05012597755005        8.63817742049890
C          -13.13784196767861       58.29777603408530        7.70804728386625
C          -14.44438796737022       59.82494793372673        6.24604353409142
C          -14.69733348559071       61.13152483053842        5.65878092367902
C          -15.68363912498598       60.94729161924101        4.72213414137417
C          -16.01522877469640       59.53005102177035        4.75248620285036
C          -17.27318954679222       57.58092965278564        3.85833477440000
C          -18.17666243516743       56.96704436084534        2.90127708319047
C          -18.28528104963056       55.65098156923406        3.27024241482918
C          -17.42274646528503       55.47084745168026        4.43110260794831
C          -16.19427830290848       53.93776716605434        5.97549944830516
C          -15.89276395786288       52.61889756860107        6.51060464401877
C          -14.79571473575784       52.76247652689160        7.27837684160494
C          -14.42151871861662       54.16690588246222        7.22216036838511
C          -13.36070336067325       54.76758409167796        7.91521348309824
H          -12.70370574866510       54.10713390377084        8.46873968949694
C          -13.49988340225249       59.55609881849589        7.23375083333724
H          -12.98908279787818       60.40668132851739        7.66747235996893
C          -16.94222724390537       58.93094255385116        3.90785373179161
H          -17.45391934191822       59.58698187548795        3.21708486534765
C          -17.23212388706857       54.25775045058453        5.09502071106501
H          -17.95100178732094       53.47717711495375        4.86868538303525
C          -11.16953559115447       59.10549353503414        9.23057795860789
H          -10.31990043490115       58.66484166425474        9.74462912213242
H          -11.71877614264292       59.71292984684941        9.94974728890947
H          -10.78242149227769       59.77218919642021        8.46189815063008
C          -11.05351989829942       55.92749165270691        9.68996149700340
H          -10.25026854043685       55.48100840454737        9.10287798381166
H          -11.56988627941043       55.12477340828673       10.21070761293171
H          -10.59714148761370       56.56916202181188       10.43987924979159
C          -14.00734110522926       62.40450906356497        6.02449946398008
H          -13.03031307873800       62.47637287293741        5.54438020607345
H          -13.85085277122051       62.47694452378138        7.09849868725039
H          -14.59547556881585       63.26211366715333        5.70509171085745
C          -16.29384023303813       61.93238356762891        3.83805240510232
H          -17.37520245881265       61.91268933494077        3.74857494219576
C          -15.61407533599706       62.83167526172611        3.13774062759512
H          -14.54050465977677       62.87265434715998        3.17081097167643
H          -16.10057495689510       63.54444109445103        2.49127944457800
C          -18.81894230495559       57.66721787806412        1.74816817890496
H          -18.08595899262120       58.23913873131399        1.18079371944916
H          -19.58775954028005       58.36342875271994        2.08430154089586
H          -19.28417180244228       56.95137363959561        1.07545672099638
C          -19.01167393273193       54.57099455399468        2.60400957319561
H          -19.78723823372099       54.07187741487185        3.17540508731389
C          -18.75600327081420       54.16214752579770        1.36953877655211
H          -17.97640355092285       54.61299008254052        0.78185566840538
H          -19.30122341496197       53.35442766782673        0.90889251697583
C          -16.66655337058782       51.36250777937207        6.19902416828597
H          -16.82841161196566       51.22866707686910        5.12685003091033
H          -17.65659367034265       51.36019540976671        6.66358804804553
H          -16.14091077486921       50.47745610444345        6.55371548252416
C          -14.05683437460289       51.72011706466910        8.06953196863574
H          -13.15466141769838       51.38353401773584        7.55234780913218
H          -14.68061191527085       50.84638311025848        8.24230430418379
H          -13.74046249577376       52.09451813924522        9.04405820217623
O          -16.96430886799168       56.86371255670959        7.57309018573229
H          -17.82397010044354       56.71444504989827        7.14279186140243
H          -16.95601968454811       56.62251677513778        8.51919701471744
C          -11.99345059278139       56.63960956763595        4.74354239808093
H          -11.31601606753354       56.78370627988615        3.90798594945807
H          -11.83060342844721       55.66587655082932        5.18944467478796
H          -11.86131159997168       57.41373518243453        5.48771903164342
S          -13.72171660283870       56.66248461435147        4.14246000233371
H          -13.71502064468759       57.96428614388965        3.82520428933937
72
 energy: -105.886131189450 gnorm: 0.249365338828 xtb: 6.7.1 (edcfbbe)
Fe         -15.26725373057860       56.86958879256037        6.05787852014100
N          -13.75448387143134       57.14006986739174        7.35229380782823
N          -15.27381063245313       58.88178675343264        5.69011789817572
N          -16.76738880539250       56.63621178146147        4.74892134171269
N          -15.30433987620691       54.89210444765603        6.47546323166231
C          -13.09011900158420       56.15394149199858        8.00041428442333
C          -12.00897392080477       56.70275571394111        8.80426011061047
C          -12.05432514308394       58.06590887423614        8.63571338693847
C          -13.14255171251697       58.30239688850935        7.69667087029403
C          -14.45796068442108       59.82235201030164        6.23131620975784
C          -14.70716424206317       61.12784036567760        5.65574467752259
C          -15.69955341838848       60.94389589091757        4.71095807228993
C          -16.02732344499310       59.52613259155905        4.77231369408940
C          -17.25458861848380       57.55996055724902        3.88777294685915
C          -18.16821846004058       56.95516101610138        2.94106751875484
C          -18.28970669588747       55.63501424648375        3.31759034853883
C          -17.40412179449307       55.47791457249107        4.46478272810123
C          -16.17434593340374       53.97504550626329        6.02623627693238
C          -15.86135236076251       52.66506055877230        6.56445423566455
C          -14.83644923455380       52.78538184188811        7.29625967251572
C          -14.45816824587164       54.19447660112295        7.25642345660863
C          -13.39697714045373       54.79475479995406        7.94520004176740
H          -12.75496795692663       54.14521142910760        8.52329412863070
C          -13.47702177695040       59.55895578761034        7.19374291734961
H          -12.90110630617835       60.40643958747174        7.55677101017558
C          -16.94114175829516       58.91698216325641        3.92156840963675
H          -17.44494988296732       59.55846904788736        3.21639797346281
C          -17.19082858226549       54.25889835278100        5.10917143271251
H          -17.83831183634712       53.43364283640165        4.79497351602810
C          -11.20325092377758       59.10687684529115        9.23431643846035
H          -10.34401769318267       58.68319226198504        9.73037349889516
H          -11.75022415825793       59.69215779335103        9.96398945490668
H          -10.83813205687435       59.80476667851734        8.49060370962271
C          -11.11671114865889       55.87404722568338        9.62017495116410
H          -10.32246091639633       55.44546501145296        9.01980346791351
H          -11.66304055787587       55.04952682320359       10.05826535162123
H          -10.66211643906218       56.43225567973593       10.43316025423044
C          -14.03898706234521       62.36664495593264        6.06191219990786
H          -13.05090317220117       62.44963344617801        5.61963341678324
H          -13.91116609903340       62.40430065384728        7.13403216408824
H          -14.60709221261843       63.23517460498443        5.75932539651635
C          -16.29309354666113       61.88309132214346        3.83351978303930
H          -17.36955383006314       61.81568979359691        3.74190194390975
C          -15.64628216213201       62.78570204261725        3.10685796943793
H          -14.57845767065885       62.83868849168019        3.09023951773011
H          -16.14679496886250       63.48818457957271        2.47372112456935
C          -18.79746284520261       57.65912683488113        1.82380694919408
H          -18.05248406210355       58.18861695220725        1.24337660615747
H          -19.51713412326062       58.39470666612802        2.16925063602000
H          -19.31476734044699       56.96820291030176        1.17203720794719
C          -18.97384119431968       54.57647607803521        2.65719068983190
H          -19.73939448683994       54.08020045902871        3.23554977558621
C          -18.70623865906967       54.15704341061416        1.42915026424779
H          -17.89372642648994       54.56290789870329        0.86485322232515
H          -19.26311938508216       53.38251710595878        0.94584803131035
C          -16.63984894601862       51.46462297858385        6.18062859822654
H          -16.79234660473654       51.41551031183062        5.10506644960268
H          -17.62758828167512       51.45950341944732        6.63432082843895
H          -16.13994045591658       50.55023137382355        6.48240817151075
C          -14.09611161159170       51.72759634628821        8.03294000022972
H          -13.21580552349592       51.39838429108691        7.49060988438324
H          -14.72214661814762       50.86266829060045        8.18744964309159
H          -13.76016149494325       52.05354627329255        9.01147889290558
O          -16.92360150564758       57.26333727559206        7.50629691897955
H          -17.81120652300642       56.27334701171819        7.08479716396129
H          -16.93474317506927       56.87230366067498        8.45801495608864
C          -11.92384320203691       56.63746790695460        4.71333516238448
H          -11.30945086283910       56.80062470046106        3.83947088750853
H          -11.74041145858708       55.66818809151696        5.13384598075493
H          -11.78753692504102       57.40015062897832        5.45326563322528
S          -13.67140634806610       56.60842317678029        4.16388470127394
H          -13.70889225390541       57.90854336225217        3.81151938283305
72
 energy: -105.950941222811 gnorm: 0.116556687931 xtb: 6.7.1 (edcfbbe)
Fe         -15.27405705751620       56.87891137293064        6.06395755389375
N          -13.75453324396135       57.13822834757637        7.35267464880216
N          -15.26824600124783       58.87839107784754        5.68795038435147
N          -16.76969872742373       56.63584378549555        4.75010111302513
N          -15.30116736013055       54.88900770828275        6.47216105001905
C          -13.08904252335657       56.14931022751937        8.00121005290358
C          -12.01646335647146       56.70502285582232        8.80172965923812
C          -12.06137515247953       58.05859535741218        8.62910141670132
C          -13.14629964367849       58.30537917869577        7.69606953016280
C          -14.45449565851200       59.81757529671719        6.23921410340746
C          -14.70837648666046       61.11664064247397        5.65836161507648
C          -15.69216580668657       60.93133402575000        4.72044484247870
C          -16.02897141306558       59.52060515552451        4.76938040007540
C          -17.25245338129896       57.56595045566608        3.88634145765724
C          -18.16234629955947       56.95565630519393        2.94585125624700
C          -18.27485143163317       55.64414667666880        3.31626467352447
C          -17.40112779057376       55.47337684989555        4.46048877067793
C          -16.18912783391921       53.97971597403616        6.00805552308193
C          -15.89545654345280       52.66618622887344        6.53193223311553
C          -14.79776041680878       52.79644756697081        7.31204745579311
C          -14.44121246720845       54.20422176086647        7.26403180841159
C          -13.38932849340500       54.79546039604097        7.94727169012244
H          -12.75125287820660       54.13989462516677        8.52227878698478
C          -13.48129099941840       59.55723836421387        7.19845992538891
H          -12.90645306494224       60.40349443745620        7.56204874200568
C          -16.94081703558111       58.91652389529197        3.91952007918033
H          -17.44579029176488       59.55878435288894        3.21363978569172
C          -17.19746746130129       54.25916948697608        5.09964205857603
H          -17.84264690469263       53.43523228630418        4.79383880651311
C          -11.20168901064758       59.10901243018595        9.23482051098857
H          -10.34196255035101       58.67495682730964        9.73333698567599
H          -11.75668256430201       59.69281500873146        9.96642964484852
H          -10.83578670623202       59.80286983169390        8.48188072696926
C          -11.10907632952451       55.87386010144244        9.62832153871441
H          -10.31433933958276       55.44692884220768        9.01913370707516
H          -11.65992814885976       55.05001345660605       10.07229297991848
H          -10.65648744523851       56.44736362779292       10.43297849641106
C          -14.03567866807604       62.37255944607402        6.06286241677331
H          -13.04635359745138       62.44936297839611        5.61358611713362
H          -13.91082873556253       62.40794348038052        7.14076439027613
H          -14.61402535117982       63.23708364833146        5.75269472863461
C          -16.29936521003019       61.88758132663187        3.83048226423651
H          -17.37716623092224       61.82146677374399        3.74272531511506
C          -15.64468175059021       62.78978300010695        3.11036110217814
H          -14.57119850507225       62.84156472552541        3.10226484484768
H          -16.15061233198366       63.49139331358912        2.47303972845613
C          -18.80270791902570       57.66285275438980        1.81580428600505
H          -18.05106891171419       58.19286051586715        1.23620469203048
H          -19.52509203313680       58.39614249672222        2.17086140385490
H          -19.31685126315543       56.96081052438492        1.16686387391161
C          -18.98033245690817       54.56953280190297        2.65330895613512
H          -19.74879441484465       54.07515727344617        3.23366874460315
C          -18.71022145436254       54.15733152407688        1.42428834204540
H          -17.89754816624502       54.57442354347437        0.85753041382707
H          -19.26663107401373       53.37402422247487        0.94459231696981
C          -16.65354118192500       51.44676799701080        6.17486408451991
H          -16.79240883470693       51.40579596748726        5.09651380719993
H          -17.63652088472431       51.45683729373236        6.63972163309066
H          -16.13300774274581       50.54715861904932        6.48854149525054
C          -14.08115634725065       51.72198599702001        8.04432280812714
H          -13.20385410671093       51.39934602226688        7.48779532334743
H          -14.72364773550770       50.86009643106338        8.18757779726098
H          -13.75503494343802       52.06300345038611        9.02129836685349
O          -16.93076166224131       57.06310834521110        7.50745401405216
H          -17.78535173379545       56.43685339196775        7.08663457522031
H          -16.92779588595105       56.90424630118589        8.45262588012077
C          -11.93434222769319       56.63866677463242        4.71300731839715
H          -11.30867387533151       56.80285063021203        3.84057921083615
H          -11.74093042036387       55.66506104740409        5.13939338702722
H          -11.79008645455093       57.40712922683773        5.45828676136986
S          -13.68580772962805       56.61393922721602        4.17489097739409
H          -13.71069233946498       57.90711410726971        3.81132460919013
72
 energy: -105.962075129111 gnorm: 0.122760948256 xtb: 6.7.1 (edcfbbe)
Fe         -15.25668304351632       56.87356185894269        6.04285088609545
N          -13.76573670355232       57.13383911029189        7.35192886593043
N          -15.26897298194952       58.86702181170403        5.68956853212027
N          -16.75810280998641       56.63182660049268        4.75332910424972
N          -15.29927863046562       54.89972972924131        6.46820068178491
C          -13.09699145126255       56.14631382964151        8.00219587695789
C          -12.02639644361475       56.70367848636425        8.79968351825435
C          -12.06917943723432       58.05198596305574        8.62194688083287
C          -13.15734024148529       58.30270563228834        7.69737189123534
C          -14.46044282462042       59.80794810957331        6.24837863483008
C          -14.70949842604189       61.10369195103105        5.66239824189924
C          -15.68968235967873       60.91983040256329        4.72727204738394
C          -16.03156616193400       59.51245165739847        4.77243043930479
C          -17.24507775018987       57.56521400625462        3.89062615876257
C          -18.15363932420051       56.95447835168789        2.95204707512468
C          -18.26090812436102       55.64635024332714        3.31725147091885
C          -17.39127628254301       55.46948047333617        4.45887107188919
C          -16.19080032994082       53.98856990188651        6.00261234187094
C          -15.89264191184214       52.67599842240335        6.52396555875871