78
 energy: -116.057900963217 gnorm: 0.000180788098 xtb: 6.7.1 (edcfbbe)
Fe         -18.31292444328948        2.05822533836527       25.56573479704520
N          -19.19690192116845        2.06200096133984       27.37421006872623
N          -18.28524838661125        4.07396008317260       25.58987430126199
N          -17.48968484345082        2.06540071912266       23.74920012602827
N          -18.40082839922892        0.06857058321827       25.53391409436281
C          -19.58018742152933        0.97708478195573       28.09968378627266
C          -20.13729371973810        1.38181574936866       29.37002839408084
C          -20.07451235703948        2.74074496976634       29.39976055878081
C          -19.48062953656690        3.14774337155530       28.14635020956581
C          -18.68779146769263        4.88867395254555       26.60530088050598
C          -18.47755694256588        6.27160917756478       26.26595306048330
C          -17.93265290720946        6.28221092884271       25.00830211011697
C          -17.80880234734824        4.89285335296319       24.61504644075775
C          -17.14078599987948        3.15500586207738       23.01158552903812
C          -16.56971634411289        2.75897356507375       21.74833665983866
C          -16.57740636591989        1.39016332707281       21.73748184305374
C          -17.15397128220288        0.98353502104947       23.00547507483210
C          -17.95431386099791       -0.74716501366859       24.54510219798112
C          -18.18531817889577       -2.13584665205382       24.88188108949604
C          -18.78507625829955       -2.13743542394415       26.10144381656213
C          -18.90871326303010       -0.74965365460174       26.49301400513341
C          -19.45921787209524       -0.33927065210214       27.69268121837609
H          -19.81758973185075       -1.10329269220074       28.36571484766486
C          -19.24817474170483        4.46344889790511       27.79801205423040
H          -19.52917214641100        5.22109823109969       28.51318574544553
C          -17.29627955458971        4.47387357417190       23.40192859333632
H          -16.98705539281297        5.23686146340005       22.70402073598931
C          -17.36731920338488       -0.33315827699712       23.36588659199942
H          -17.07048365191856       -1.09816356944245       22.66492510312675
C          -20.50946812938361        3.68257914642912       30.46977761979318
H          -20.92681062905222        3.14146702762683       31.31540634161996
H          -21.26907897378974        4.36809613767631       30.09307206697679
H          -19.66606715837311        4.27561055367931       30.82444019591805
C          -20.66067194216083        0.43738032267281       30.39748964122600
H          -19.87578346763284       -0.24227067709829       30.73080001880162
H          -21.47384914891051       -0.16225723169202       29.98789493256658
H          -21.03610653771596        0.97678600938211       31.26358445333764
C          -18.74803927834584        7.42645658779588       27.16599842844285
H          -18.49896240477523        7.17799353914959       28.19657722568012
H          -19.80150220285450        7.71003973130313       27.13233715710629
H          -18.15233553190464        8.28435251120378       26.86083625392517
C          -17.51606333847897        7.40782115564668       24.20169288303168
H          -16.65740396231017        7.23453248559065       23.56321043893483
C          -18.10078832620370        8.60121841560028       24.18175053686909
H          -18.98431883797035        8.81669207708881       24.75684680006290
H          -17.72754082320906        9.40089358182728       23.56373078598524
C          -16.02444097483401        3.69049710074834       20.72262051476358
H          -15.50691511279957        4.52520499838016       21.19351444063499
H          -16.82446565832707        4.09716631034838       20.10186976224125
H          -15.32243066550002        3.16557652027019       20.07800664812558
C          -16.10064821612088        0.48017080935701       20.71952548626027
H          -15.67502798815433       -0.44768834009893       21.08418221157821
C          -16.15441376625201        0.69215422553659       19.40860648928977
H          -16.61015394633415        1.57176960629148       18.98882396854803
H          -15.76702607317496       -0.02635405205474       18.70525485683669
C          -17.81609185845792       -3.28535530678568       24.00868675410856
H          -16.74273307068237       -3.29246630353046       23.81728707826912
H          -18.32979461564259       -3.21609137126733       23.04980760224428
H          -18.08716671272265       -4.22940199949584       24.47513548421940
C          -19.25073143462072       -3.28900951317495       26.92550954233552
H          -18.74172216223484       -3.30453910266204       27.88991482791211
H          -19.05292296754918       -4.23077571254213       26.41973656964998
H          -20.32270199710264       -3.21824324738514       27.11071311251265
O          -20.41962465842523        2.24343401293536       24.68061749288755
H          -20.94147933305248        2.16042959557122       25.48628178855928
H          -20.42596718690316        3.17434883072062       24.43237155666219
C          -12.99917553637334        2.94267464335770       26.99796711151806
H          -12.28349663536504        2.13606600725953       26.83931502015414
H          -12.80244920608162        3.38581350475980       27.97414459551105
H          -12.84531883231201        3.69922690111226       26.23501751272116
N          -14.87374993254464        1.47083259765635       27.76698940157201
H          -14.35416400767103        1.02155480868770       28.50303676746958
C          -14.39213103081278        2.43459759222942       26.92025021009458
C          -16.16291387438710        1.23792545760376       27.43202775116711
H          -16.79406239914788        0.52927154937512       27.92741944856439
N          -16.52632510773308        1.99517757984854       26.42548094840600
C          -15.43550547302393        2.74491961924051       26.09602049320176
H          -15.47385033102499        3.45285332724703       25.29438483762983
