78
 energy: -115.981781279830 gnorm: 0.212979150735 xtb: 6.7.1 (edcfbbe)
Fe         -18.27400000000000        2.07500000000000       25.66900000000000
N          -19.17500000000000        2.10000000000000       27.49200000000000
N          -18.27600000000000        4.16800000000000       25.71000000000000
N          -17.42000000000000        2.08400000000000       23.73800000000000
N          -18.34800000000000        0.13300000000000       25.59800000000000
C          -19.60600000000000        1.00000000000000       28.20300000000000
C          -20.25100000000000        1.37100000000000       29.43100000000000
C          -20.25600000000000        2.72900000000000       29.46000000000000
C          -19.60300000000000        3.16700000000000       28.24600000000000
C          -18.89700000000000        4.90200000000000       26.62800000000000
C          -18.74000000000000        6.30100000000000       26.26000000000000
C          -18.10500000000000        6.32600000000000       25.01700000000000
C          -17.84400000000000        4.90600000000000       24.65300000000000
C          -17.03900000000000        3.18700000000000       23.03700000000000
C          -16.38400000000000        2.75400000000000       21.87900000000000
C          -16.49300000000000        1.38800000000000       21.83100000000000
C          -17.20100000000000        0.98400000000000       23.00900000000000
C          -18.10300000000000       -0.67900000000000       24.54100000000000
C          -18.46700000000000       -2.09200000000000       24.84300000000000
C          -19.01300000000000       -2.05400000000000       26.10200000000000
C          -19.01000000000000       -0.65000000000000       26.50500000000000
C          -19.48600000000000       -0.28900000000000       27.76600000000000
H          -19.78100000000000       -1.08700000000000       28.44700000000000
C          -19.45499999999999        4.49400000000000       27.84300000000000
H          -19.80000000000000        5.27000000000000       28.52600000000000
C          -17.20000000000000        4.51900000000000       23.47900000000000
H          -16.78700000000000        5.30800000000000       22.85100000000000
C          -17.50500000000000       -0.33000000000000       23.35600000000000
H          -17.25500000000000       -1.12200000000000       22.65000000000000
C          -20.78300000000000        3.57800000000000       30.60800000000000
H          -20.65300000000000        3.02900000000000       31.56500000000000
H          -21.86400000000000        3.78600000000000       30.45600000000000
H          -20.21600000000000        4.53200000000000       30.66000000000000
C          -20.77900000000000        0.45300000000000       30.52700000000000
H          -19.97600000000000        0.26500000000000       31.27200000000000
H          -21.09400000000000       -0.51600000000000       30.08500000000000
H          -21.63900000000000        0.93500000000000       31.03800000000000
C          -19.17600000000000        7.52500000000000       27.01800000000000
H          -19.67000000000000        7.21800000000000       27.96500000000000
H          -19.89800000000000        8.10800000000000       26.40700000000000
H          -18.29100000000000        8.15200000000000       27.26000000000000
C          -17.72200000000000        7.46600000000000       24.15900000000000
H          -17.15700000000000        7.26800000000000       23.23600000000000
C          -18.01200000000000        8.72700000000000       24.42100000000000
H          -18.57500000000000        8.99400000000000       25.32800000000000
H          -17.69400000000000        9.52700000000000       23.73600000000000
C          -15.74000000000000        3.64700000000000       20.86400000000000
H          -15.70100000000000        4.68600000000000       21.25500000000000
H          -16.33400000000000        3.63800000000000       19.92500000000000
H          -14.70400000000000        3.30000000000000       20.66200000000000
C          -15.99800000000000        0.43600000000000       20.82500000000000
H          -16.18700000000000       -0.63400000000000       20.99000000000000
C          -15.32900000000000        0.74800000000000       19.70900000000000
H          -15.10000000000000        1.79700000000000       19.47000000000000
H          -15.00000000000000       -0.04100000000000       19.01600000000000
C          -18.21300000000000       -3.31600000000000       23.97200000000000
H          -17.12100000000000       -3.43100000000000       23.80300000000000
H          -18.71800000000000       -3.19000000000000       22.99100000000000
H          -18.59600000000000       -4.22600000000000       24.48200000000000
C          -19.58100000000000       -3.22800000000000       26.87500000000000
H          -18.77600000000000       -3.69900000000000       27.47900000000000
H          -19.98800000000000       -3.98200000000000       26.16700000000000
H          -20.38400000000000       -2.87500000000000       27.55700000000000
O          -20.79400000000000        2.40800000000000       25.06800000000000
H          -21.26400000000000        2.42600000000000       25.90200000000000
H          -21.15500000000000        2.48900000000000       24.25900000000000
C          -12.56500000000000        2.86100000000000       26.29400000000000
H          -11.88400000000000        2.01400000000000       26.06400000000000
H          -12.20400000000000        3.37500000000000       27.21000000000000
H          -12.56400000000000        3.56700000000000       25.43600000000000
N          -14.23000000000000        1.45500000000000       27.49700000000000
H          -13.56900000000000        1.08100000000000       28.14800000000000
C          -13.92900000000000        2.34900000000000       26.51500000000000
C          -15.52700000000000        1.16900000000000       27.44500000000000
H          -16.03500000000000        0.48800000000000       28.12600000000000
N          -16.06600000000000        1.84100000000000       26.44900000000000
C          -15.07200000000000        2.56400000000000       25.83800000000000
H          -15.27900000000000        3.17200000000000       24.96600000000000
78
 energy: -116.024491015868 gnorm: 0.080432942615 xtb: 6.7.1 (edcfbbe)
Fe         -18.30517554476798        2.07204556346398       25.67118385272539
N          -19.19434450810279        2.09849444304574       27.50177263360807
N          -18.29946580567655        4.13405961392904       25.68583808855994
N          -17.47180320118910        2.08299590599576       23.75642766942224
N          -18.41747552328151        0.12123240155448       25.57988208529549
C          -19.59728076919403        0.99774375533311       28.21001171469346
C          -20.24112155577226        1.37773183437028       29.43975039635782
C          -20.24123672203906        2.74010641479570       29.46548929199514
C          -19.59706794051715        3.17764042172705       28.24271186317528
C          -18.86050182401199        4.91301899934415       26.63149953856781
C          -18.73344924613867        6.30810657643892       26.23829543225022
C          -18.09749040810316        6.32376222132590       25.01192083336242
C          -17.83455452425546        4.91087335480011       24.67047208462197
C          -17.03187609571212        3.17975140265935       23.06991873191060
C          -16.38652086279318        2.75533703354737       21.87127443270210
C          -16.48850732445234        1.38221233945017       21.81786722726081
C          -17.18597723657011        0.98703383345807       23.02037084582584
C          -18.09656283194724       -0.70090987985539       24.54344060942875
C          -18.46077402492845       -2.09215952651096       24.84777357523872
C          -19.01600902438076       -2.06401800216140       26.09121380519104
C          -18.98986743072512       -0.67936919647086       26.52635752679940
C          -19.46644589458986       -0.30125887094663       27.77259758686260
H          -19.79009538548397       -1.08812719174298       28.44019140589914
C          -19.43528156296393        4.49735537340123       27.83587789179671
H          -19.79832743428826        5.26535608638721       28.50898913737901
C          -17.19926336531453        4.50417918190851       23.50615150198773
H          -16.80935357487992        5.28631550396362       22.86296963725868
C          -17.49167293745536       -0.32766049558204       23.36368506214138
H          -17.25621634306291       -1.10932862793016       22.65331890448293
C          -20.77435343470498        3.58201946678450       30.59226014576333
H          -20.65378270168843        3.04657855148389       31.54061593993616
H          -21.84243823377751        3.79146115662633       30.45520558867845
H          -20.23020609092383        4.52741897323441       30.65901780340461
C          -20.77152013106592        0.46067815543554       30.51105423510430
H          -19.99043715120235        0.26589050885928       31.25693063974468
H          -21.09161916981984       -0.49847927843773       30.09344340460558
H          -21.62207364299411        0.92259085222760       31.02195990200275
C          -19.18079722647240        7.50530916600511       27.01936083894300
H          -19.66419577523456        7.21978212194317       27.95812524851423
H          -19.90103744648831        8.09077699881190       26.43577234941697
H          -18.31683018601754        8.13887796341129       27.25885624941078
C          -17.72552922832920        7.45592916933682       24.17060187010262
H          -17.16952570523040        7.24227805526583       23.25855314632659
C          -18.00873243884134        8.73201844438183       24.41766762533092
H          -18.55782913476611        9.02683843422643       25.29580049264067
H          -17.69765763059371        9.51901657579699       23.74108172825168
C          -15.74269522313909        3.65499609898031       20.86900425001852
H          -15.69893324013426        4.68132203998835       21.24199701667691
H          -16.31562183686742        3.64747784838585       19.93365651454675
H          -14.71841917274593        3.32352845031302       20.66615784697266
C          -15.99678308373073        0.44466321541521       20.82048075024641
H          -16.19079700591640       -0.61135038184758       21.00262851346451
C          -15.33081072026539        0.74587795277230       19.70591998845710
H          -15.09768911630833        1.76623589219475       19.44593274225772
H          -15.00184531183912       -0.02964913277656       19.02474768140759
C          -18.21177953261191       -3.29403433511195       23.97844868396021
H          -17.13757363883615       -3.42551521245655       23.80412141010243
H          -18.70795944763854       -3.18873356245381       23.00722665889946
H          -18.58765949472123       -4.19867366150062       24.46772437952493
C          -19.57573099933461       -3.21947782403569       26.86875239365139
H          -18.79011608071722       -3.69298170978307       27.47073036692415
H          -19.98375179479443       -3.96987184553308       26.18490600053995
H          -20.37308332771584       -2.88993234630484       27.54161156690077
O          -20.74178584337689        2.38562122665508       25.08656905712469
H          -21.24704587581050        2.42613962616697       25.89704042316771
H          -21.15011154521978        2.49015449993498       24.24475665415189
C          -12.55768255655419        2.85790216394952       26.29291422023258
H          -11.87516459138862        2.03135760694798       26.06452335342508
H          -12.19519118177641        3.37219444027842       27.19050811349457
H          -12.55681441203373        3.55750595300476       25.45366477731645
N          -14.23013695941421        1.45671818449252       27.50114988504777
H          -13.56732128846704        1.07868745046240       28.15686691765023
C          -13.92767303353038        2.34297459519855       26.50874248921234
C          -15.54472120885454        1.18168880343156       27.43357050058842
H          -16.04561954190943        0.50583416787489       28.10556633311110
N          -16.09899753543261        1.84950001051524       26.44567959028316
C          -15.09497670632459        2.56496650573692       25.84659136468410
H          -15.29322446184235        3.17236749401200       24.98424898098040
78
 energy: -116.036879605052 gnorm: 0.026008472514 xtb: 6.7.1 (edcfbbe)
Fe         -18.33283999515686        2.07642898035163       25.65967838680297
N          -19.19749389393192        2.09350426351886       27.50528482808739
N          -18.30953622431820        4.10616634085937       25.67548319749671
N          -17.50568124388074        2.07855321013059       23.77525401461940
N          -18.46491841116461        0.11082367375384       25.57393020897512
C          -19.58732642598690        0.99756574358322       28.21109682280630
C          -20.22278327141040        1.38553568952975       29.44551602291344
C          -20.21874378295616        2.74955757260486       29.46703232902030
C          -19.58272359622636        3.18066107695488       28.23640318690513
C          -18.83765733959811        4.91672566581555       26.63350048113575
C          -18.71971840511577        6.30512009292765       26.23544435070015
C          -18.08624239182120        6.31574770344887       25.01691791785463
C          -17.83619376259487        4.91109774335159       24.68476895918218
C          -17.04052177098141        3.17027492035832       23.09680922686599
C          -16.39122021705697        2.75957470369740       21.87768977339235
C          -16.48475683629141        1.38375389234568       21.82010880641792
C          -17.18520653394081        0.99083494708722       23.03044782565469
C          -18.10659661180094       -0.71299195879327       24.54587008412596
C          -18.44887646745268       -2.09070221044035       24.85469119156619
C          -19.00904385680273       -2.07518828305583       26.09097470590546
C          -18.99018880988131       -0.69967417706302       26.53623050520027
C          -19.46422769000291       -0.30756374268874       27.77179819439244
H          -19.79893663320766       -1.08596920981339       28.43812923764738
C          -19.42022418485611        4.49455806906876       27.82613201063698
H          -19.79241210874200        5.25765638680298       28.49447417323800
C          -17.21379801510257        4.48699948981691       23.52320737350995
H          -16.83221491591752        5.26073952149999       22.87064377556247
C          -17.49817745833296       -0.31972708342538       23.37002345628307
H          -17.25279496694344       -1.09795152064009       22.66506333511639
C          -20.76011356083892        3.59338026387922       30.57375401308790
H          -20.64862301318179        3.06719725329884       31.52012195842279
H          -21.82193973562014        3.80003851035588       30.43511076611532
H          -20.23289485541612        4.53866871235399       30.64604692208849
C          -20.76003891579893        0.47098257059788       30.49806758752190
H          -19.99279034771946        0.26576564026663       31.24631055318262
H          -21.08348559431668       -0.47862763680958       30.08233699945985
H          -21.60868801370637        0.92416914761842       31.00458831254705
C          -19.18463599169726        7.48235096045565       27.02662065398575
H          -19.65749791389181        7.19271056250782       27.95874875516127
H          -19.90866473233431        8.06406776313194       26.45651651698376
H          -18.33640446867136        8.12661737638518       27.26263342838365
C          -17.72894424084779        7.44013881658139       24.18292636397626
H          -17.18101125083700        7.20730891386384       23.27830297945375
C          -18.00175961001142        8.72740238213069       24.40953674265856
H          -18.54334500254447        9.05998913686755       25.26868505874527
H          -17.68991863664079        9.49831955460577       23.72775467802968
C          -15.74874372538742        3.66789407747955       20.88484354788471
H          -15.71102883859436        4.68988929345114       21.24558560045262
H          -16.30339419306531        3.65517346268916       19.94610309616609
H          -14.72822809847061        3.34714305496735       20.68314942440973
C          -15.99792518547019        0.45755093018258       20.82610895296898
H          -16.19782770378294       -0.58824644680465       21.02558767772339
C          -15.33556432724586        0.74426215155606       19.70570276994497
H          -15.09618383128169        1.74552900659520       19.41512069661088
H          -15.00901402569925       -0.03109395530128       19.03596158703665
C          -18.20740970730972       -3.27446282545476       23.98075763214794
H          -17.14169594012996       -3.40850584757032       23.80105960550442
H          -18.70256835146284       -3.17005937131431       23.01689138257291
H          -18.58095062390587       -4.17643973417184       24.45935147037790
C          -19.56761815637193       -3.22131862217886       26.86487042930495
H          -18.79285706352711       -3.69117360198480       27.47099352748830
H          -19.97394696213650       -3.97111789872346       26.19173894327205
H          -20.36563733606026       -2.89775065477176       27.52653197971459
O          -20.66879238288823        2.30828680214258       25.08584388541799
H          -21.20842685474406        2.43903669597171       25.87392598995442
H          -21.11305930680265        2.50574958249459       24.25241550341115
C          -12.55974616570843        2.85388280471153       26.28878672651928
H          -11.87365678773966        2.03948812868923       26.06225552784612
H          -12.19671577945596        3.36693268182274       27.17813640934767
H          -12.55583149505391        3.55244775295133       25.46045035072895
N          -14.24583439489315        1.45672049320926       27.50054034935106
H          -13.58570408223090        1.07248845467096       28.15903469986369
C          -13.93676280191719        2.33916967270053       26.50085150103666
C          -15.57301851299123        1.20034741994318       27.42482735610867
H          -16.07423998700583        0.52795236228119       28.08968130543613
N          -16.13023298964660        1.86994751347718       26.44550697202649
C          -15.11859908351525        2.57573679112394       25.85504259691779
H          -15.30697359995546        3.19094839548729       25.00167583063413
78
 energy: -116.039762186613 gnorm: 0.054588823646 xtb: 6.7.1 (edcfbbe)
Fe         -18.33490908546173        2.07957142948543       25.65669996370734
N          -19.19008357219495        2.08810005016605       27.50377804779318
N          -18.31212590335544        4.09301141343003       25.67468661129426
N          -17.52510337036052        2.07655071771505       23.78662869199418
N          -18.48287589354542        0.10455322438739       25.57689896912289
C          -19.57488548845238        0.99662797744909       28.21222658636463
C          -20.20236840224116        1.39066883212464       29.44948927276749
C          -20.19516990114258        2.75411846164989       29.46754467695634
C          -19.56481006554669        3.17708090601229       28.23393394044882
C          -18.83157480451388        4.91233191824813       26.63596282855440
C          -18.71572782561577        6.29593047680915       26.24332773614724
C          -18.08529314752219        6.30780359954049       25.02347754732119
C          -17.84169099901373        4.90871303518550       24.69203897216732
C          -17.05780006380927        3.16643241506197       23.11105044180289
C          -16.40076440690320        2.76592627918016       21.88927676182011
C          -16.48895458445891        1.39104020058145       21.82911558616098
C          -17.19423583846320        0.99403547197410       23.03822498572783
C          -18.11695099864827       -0.71460079823937       24.54948813271858
C          -18.44447990953326       -2.08924691230535       24.85763455319312
C          -19.00520421145660       -2.08335917986434       26.09413346888395
C          -18.99591447605437       -0.70897751406597       26.54012795527219
C          -19.46449600497511       -0.31120898032090       27.77416352747627
H          -19.80747916261176       -1.08483286468765       28.44271509083962
C          -19.40830473830987        4.48844697740588       27.82513372813080
H          -19.78434337562514        5.24913763691627       28.49289636649920
C          -17.22776644102122        4.47973286143746       23.52966632591737
H          -16.85247389155691        5.24814813930064       22.86936803658722
C          -17.50566143919212       -0.31367694010939       23.37694057524575
H          -17.24988630946292       -1.09249092460160       22.67603541722943
C          -20.74417161406467        3.61038839007924       30.55797349078346
H          -20.64104211921922        3.09543783102374       31.51100136637740
H          -21.80487659146474        3.81336542326856       30.40476084123760
H          -20.22346734307065        4.55992380252755       30.62509927381413
C          -20.74918646922622        0.47729967079386       30.49285451376569
H          -19.98916772524910        0.26131992421166       31.24518188562095
H          -21.07612261070139       -0.46629751899363       30.06674908377536
H          -21.59915144135033        0.93294087489266       30.99434360117735
C          -19.19106502309220        7.46181531412766       27.04044426780175
H          -19.65003509052592        7.15723599297488       27.97426078602647
H          -19.93054074113221        8.03240029531300       26.47907213472800
H          -18.35324844134318        8.12082604497584       27.27073308858878
C          -17.72776115861044        7.42581703455802       24.18790629289897
H          -17.18564306993277        7.17305540308771       23.28557534212909
C          -17.98751529389320        8.71993008038776       24.39312146108208
H          -18.52239187521065        9.09011068288354       25.24476577830329
H          -17.67108997104511        9.47214908267025       23.69189548418183
C          -15.75645905165858        3.68154084207408       20.90492326427774
H          -15.73270975946435        4.70534673684880       21.26220180464624
H          -16.29818186867981        3.66232477596714       19.95857579078864
H          -14.73068913378535        3.37075544276889       20.71318611169939
C          -16.00143862808662        0.46774534340797       20.83670330927312
H          -16.20031154748734       -0.57450768831397       21.05081771643714
C          -15.34448263445052        0.73971557472867       19.70863777332083
H          -15.10239545780288        1.73324209843901       19.38823809650994
H          -15.02272246841769       -0.04748826094786       19.04959895656379
C          -18.20023743983172       -3.26273400615889       23.97528762413598
H          -17.13499237709287       -3.39221693758247       23.79113366740782
H          -18.69803767151926       -3.14665580021161       23.01458019278889
H          -18.57259882697912       -4.16833219841576       24.44647363091315
C          -19.55899462131023       -3.23164935210236       26.86513970685104
H          -18.78754544518748       -3.69680910408992       27.47844240742925
H          -19.95880702504278       -3.98539013036799       26.19248059687763
H          -20.36348428844243       -2.90865572801019       27.51903782523939
O          -20.60600188009250        2.16893988014005       25.06288955010079
H          -21.14592848362025        2.48022040639569       25.83987781173353
H          -21.05184961926309        2.54308256178341       24.25020790323740
C          -12.57156495865000        2.84877875844303       26.28627812196714
H          -11.88512710105225        2.03520544087568       26.05859622902780
H          -12.20660907024141        3.35992716158119       27.17573407271226
H          -12.56367163189425        3.54978858802255       25.45990953253132
N          -14.27263933625202        1.45745761777276       27.49545046143953
H          -13.61809830761581        1.06415333146700       28.15428100630049
C          -13.95390053464960        2.34167301197399       26.49661693773239
C          -15.60575679082370        1.22070609275129       27.41839221163204
H          -16.11595657615119        0.55161456761087       28.07933276902580
N          -16.15497320372744        1.89949706795563       26.44458753459157
C          -15.13763439020095        2.59756929267131       25.85952464385392
H          -15.31838898034703        3.22686837387605       25.01445924851770
78
 energy: -116.042459353829 gnorm: 0.025923666688 xtb: 6.7.1 (edcfbbe)
Fe         -18.33130878454606        2.08235742942389       25.65499949617870
N          -19.17870356756567        2.08237989932815       27.50031697351508
N          -18.31362698370575        4.08236900378949       25.67551896261419
N          -17.54058024701579        2.07450023038114       23.79855662220313
N          -18.49275863826855        0.09793685239952       25.58342639705029
C          -19.56085644952601        0.99560578401391       28.21265407652133
C          -20.17978293943273        1.39579240732851       29.45265472920893
C          -20.16893227062041        2.75795491128151       29.46745983114708
C          -19.54421864743972        3.17169191439882       28.23173737340516
C          -18.82727287788975        4.90654489904522       26.63922866923777
C          -18.71017383384490        6.28524070549182       26.25541402433208
C          -18.08281388124138        6.29943075045169       25.03233224228146
C          -17.84630432381827        4.90578456077921       24.69883517297917
C          -17.07625784296019        3.16310946713856       23.12494751565165
C          -16.41130860379279        2.77310084370988       21.90379821434879
C          -16.49535730433785        1.40052574678546       21.84090478036636
C          -17.20548588924735        0.99712857120575       23.04687297312527
C          -18.12780053285838       -0.71379701348156       24.55411287192022
C          -18.44248834658608       -2.08762262026934       24.85938136232025
C          -19.00278989127548       -2.09145443403978       26.09769509803771
C          -19.00289988204272       -0.71661076539791       26.54291240228325
C          -19.46577327548897       -0.31443030035150       27.77711264050354
H          -19.81759954934625       -1.08354112169275       28.44869941270464
C          -19.39512728299690        4.48151348421015       27.82655717790778
H          -19.77303423751116        5.23976038498892       28.49545447071463
C          -17.24024254215253        4.47405398493995       23.53492755007800
H          -16.87074856972346        5.23680317146046       22.86685782500584
C          -17.51389964662914       -0.30759443317464       23.38477502087589
H          -17.24814897195876       -1.08784566875747       22.68735801209263
C          -20.72601484620473        3.63008724747528       30.54108171042958
H          -20.63257378132175        3.12800528653728       31.50322825216406
H          -21.78646913228078        3.82954480374618       30.36911497808532
H          -20.20938200498627        4.58471922898545       30.60029860775861
C          -20.73848097346512        0.48346932506427       30.48809519307030
H          -19.98530263793840        0.25489160614568       31.24519043218995
H          -21.07007164716787       -0.45405469736776       30.04808038908025
H          -21.59026334659729        0.94461720693590       30.98410152090076
C          -19.19414689062967        7.44287220520476       27.05523483318488
H          -19.63936409974986        7.12207857627519       27.99243434152276
H          -19.94922212029923        8.00164957445189       26.49991182376293
H          -18.36624149169235        8.11704807236137       27.28015404570564
C          -17.72373905451484        7.41193213789496       24.19380651892548
H          -17.18687733429113        7.13962937247710       23.29294163046906
C          -17.97123739355612        8.71067093419413       24.37807211496352
H          -18.50100218510399        9.11726468141491       25.22364947059341
H          -17.64729153493941        9.44380893323177       23.65558062960562
C          -15.76393189426118        3.69521698845185       20.92759850664262
H          -15.75537893019695        4.72248498450602       21.28240992442360
H          -16.29252264347607        3.66974673362765       19.97218207428952
H          -14.73122736193911        3.39365250028635       20.74768103648465
C          -16.00700026371446        0.47887487090967       20.84860168602845
H          -16.20274129851828       -0.56117812797589       21.07734319385706
C          -15.35754146564549        0.73563146789963       19.71162918022464
H          -15.11186008220962        1.72289696213150       19.36080822172655
H          -15.04142854546719       -0.06701224348899       19.06396837930868
C          -18.19436709591663       -3.25140026244432       23.96621472036444
H          -17.12785491274802       -3.37450646102508       23.77786213446237
H          -18.69557853742029       -3.11916556648117       23.00793857973884
H          -18.56611726763219       -4.16224325294321       24.42953981135834
C          -19.55232514649957       -3.24412098207920       26.86499622788810
H          -18.78309238198707       -3.70392747407109       27.48703587513574
H          -19.94367306177714       -4.00279448500217       26.19010079118852
H          -20.36528593854603       -2.92039289732880       27.51086447615134
O          -20.51896956931366        2.25388124953450       25.04270620400415
H          -21.07997102769810        2.40594531986895       25.79115314056747
H          -20.99812100368945        2.46922626235407       24.24650679940429
C          -12.58787223136162        2.84026394943042       26.28480782817835