87
 energy: -124.281942168807 gnorm: 0.262609695800 xtb: 6.7.1 (edcfbbe)
Fe          16.50700000000000       35.16200000000000       34.35099999999999
N           16.75400000000000       36.74200000000000       33.20300000000000
N           18.26600000000000       34.47300000000000       33.80500000000000
N           16.25400000000000       33.55700000000000       35.49200000000000
N           14.70300000000000       35.80600000000000       34.89300000000000
C           15.93600000000000       37.87300000000000       33.15700000000000
C           16.50100000000000       38.86000000000000       32.24800000000000
C           17.64200000000000       38.31600000000000       31.72700000000000
C           17.77500000000000       37.00099999999999       32.31900000000000
C           19.10300000000000       34.99600000000000       32.82600000000000
C           20.31500000000000       34.25100000000000       32.73600000000000
C           20.29100000000000       33.25900000000000       33.69100000000000
C           18.98500000000000       33.44600000000000       34.33800000000000
C           17.18300000000000       32.62700000000000       35.81200000000000
C           16.60700000000000       31.54100000000000       36.56099999999999
C           15.25400000000000       31.82700000000000       36.70600000000000
C           15.08000000000000       33.11500000000000       36.08500000000000
C           13.74700000000000       35.10600000000000       35.60200000000000
C           12.58600000000000       35.92400000000000       35.80899999999999
C           12.83400000000000       37.10899999999999       35.21700000000000
C           14.14700000000000       37.02400000000000       34.64200000000000
C           14.73400000000000       38.01799999999999       33.86500000000000
H           14.22300000000000       38.97900000000000       33.80200000000000
C           18.84000000000000       36.16400000000000       32.11700000000000
H           19.54400000000000       36.43699999999999       31.33100000000000
C           18.49500000000000       32.57000000000000       35.31700000000000
H           19.16600000000000       31.80800000000000       35.71299999999999
C           13.92600000000000       33.85500000000000       36.14200000000000
H           13.07600000000000       33.41200000000000       36.66100000000000
C           18.62800000000000       38.93100000000000       30.74700000000000
H           18.29300000000000       39.95600000000000       30.47800000000000
H           18.67500000000000       38.31300000000000       29.82500000000000
H           19.63400000000000       38.99200000000000       31.21500000000000
C           15.90100000000000       40.23200000000000       31.98999999999999
H           16.18100000000000       40.92000000000000       32.81600000000000
H           14.79400000000000       40.15500000000000       31.94500000000000
H           16.29300000000000       40.63900000000000       31.03400000000000
C           21.41500000000000       34.52600000000000       31.69000000000000
H           21.91700000000000       35.48900000000000       31.92400000000000
H           20.96200000000000       34.59200000000000       30.67800000000000
H           22.17000000000000       33.71100000000000       31.71600000000000
C           21.27000000000000       32.28100000000000       34.04800000000000
H           21.03300000000000       31.20700000000000       34.04700000000000
C           22.60800000000000       32.71700000000000       34.42100000000000
H           22.86500000000000       33.78700000000000       34.42899999999999
H           23.37700000000000       31.98200000000000       34.69900000000000
C           17.33100000000000       30.30200000000000       37.11099999999999
H           18.12700000000000       30.62100000000000       37.81700000000000
H           17.79600000000000       29.73700000000000       36.27500000000000
H           16.60800000000000       29.65400000000000       37.65200000000000
C           14.17800000000000       31.03600000000000       37.21899999999999
H           13.34500000000000       30.74900000000000       36.56099999999999
C           14.14100000000000       30.59000000000000       38.59500000000000
H           14.95300000000000       30.85300000000000       39.28900000000000
H           13.30100000000000       29.98300000000000       38.96300000000000
C           11.31500000000000       35.49800000000000       36.52100000000000
H           11.51900000000000       35.38400000000000       37.60700000000000
H           10.96600000000000       34.52399999999999       36.11500000000000
H           10.52900000000000       36.27100000000000       36.38100000000000
C           11.87200000000000       38.30900000000000       35.20800000000000
H           11.38600000000000       38.40200000000000       36.20300000000000
H           11.08700000000000       38.15500000000000       34.43700000000000
H           12.43700000000000       39.24099999999999       34.99399999999999
C           15.55000000000000       31.57700000000000       30.14400000000000
H           15.73100000000000       31.98200000000000       29.12500000000000
H           14.60100000000000       31.00000000000000       30.13900000000000
H           16.39600000000000       30.91300000000000       30.42400000000000
N           14.49700000000000       33.69000000000000       31.01300000000000
H           13.80600000000000       33.73600000000000       30.29200000000000
C           15.45000000000000       32.70400000000000       31.11700000000000
C           14.64300000000000       34.55300000000000       32.00700000000000
H           14.01800000000000       35.43200000000000       32.16100000000000
N           15.66000000000000       34.15600000000000       32.75200000000000
C           16.18300000000000       32.99900000000000       32.21900000000000
H           17.02700000000000       32.49700000000000       32.67500000000000
C           15.75700000000000       37.04599999999999       37.97199999999999
H           15.48800000000000       36.85300000000000       39.03300000000000
H           14.89600000000000       36.76100000000000       37.33100000000000
H           15.97000000000000       38.13000000000000       37.85100000000000
C           16.98400000000000       36.23000000000000       37.58600000000000
H           16.75500000000000       35.15199999999999       37.71899999999999
H           17.82100000000000       36.49500000000000       38.26700000000000
S           17.44700000000000       36.53400000000000       35.93800000000000
C           19.18100000000000       36.42600000000000       35.99799999999999
H           19.51100000000000       35.42300000000000       36.34400000000000
H           19.58800000000000       37.18300000000000       36.70199999999999
H           19.61100000000000       36.60000000000000       34.98900000000000
87
 energy: -124.337249476434 gnorm: 0.109583073341 xtb: 6.7.1 (edcfbbe)
Fe          16.50753192532728       35.16080535710783       34.35084149658518
N           16.73943967002295       36.75239672259223       33.18874551729105
N           18.28967982929479       34.47542451274099       33.80782722995851
N           16.25724212168808       33.55039785250913       35.50387766447957
N           14.69309577960944       35.80759682766585       34.89021816631043
C           15.93863672484105       37.87497344296494       33.16054063271616
C           16.49724748316585       38.86049852005798       32.25371906860124
C           17.63432405060872       38.31596822119995       31.72713934484054
C           17.76824082526663       37.00371031169563       32.32132553273780
C           19.10264270820992       34.99435514392501       32.82224154469344
C           20.32373286095075       34.25259133348111       32.72864649203142
C           20.29391945133725       33.27575963925183       33.69671627236860
C           18.98508872602845       33.43193315568865       34.33766873004499
C           17.18724384293981       32.60795224269780       35.80625543450412
C           16.60877026030386       31.53521220218346       36.57885941888670
C           15.26523957757847       31.82427265940530       36.71319611316512
C           15.08255144515533       33.10602108205315       36.06955165827493
C           13.74818100228603       35.11122845384536       35.60387860438775
C           12.57629236349664       35.92260018832368       35.80489885231567
C           12.82912255284003       37.12413645213095       35.21924314080797
C           14.14775245479238       37.03138169355003       34.63755794619065
C           14.74749191421875       38.01840846559023       33.86520718537153
H           14.23038728296650       38.96725855248081       33.78878109325994
C           18.83558200807714       36.15577070149507       32.10924802178745
H           19.54915488778093       36.44025247062434       31.34493688305919
C           18.49583156954733       32.57414925685828       35.31920922774254
H           19.15822130653535       31.80834146682421       35.70081032170550
C           13.92135196146408       33.84706336988242       36.13024736002665
H           13.08204046284245       33.41198604589944       36.66113686237567
C           18.61197501472745       38.92337576349863       30.75825557457206
H           18.29872979884659       39.93542831176379       30.48380574353392
H           18.67591708889151       38.32202471771426       29.84377540701675
H           19.61124491525456       38.98664672467613       31.20532692964614
C           15.90570548814147       40.21705464050596       31.99468249314216
H           16.17526637436893       40.90748380582097       32.80306122538477
H           14.81402370851374       40.15834037565931       31.94239533271264
H           16.28229363596528       40.62932785511858       31.05346947560708
C           21.40385342448836       34.52288108647704       31.70507748311540
H           21.90712448894610       35.47243106143220       31.92174171845674
H           20.96987344053102       34.58695535236651       30.70089657744464
H           22.15120696562091       33.72385595954138       31.72171969738975
C           21.30700699797616       32.31046766083282       34.06134275644564
H           21.05589930863583       31.24872194117533       34.06604962561100
C           22.56736656364883       32.70112335992903       34.39876702206328
H           22.83607268572288       33.75230003872547       34.42277410126518
H           23.33329154043269       31.98818178510703       34.68438278952036
C           17.32600260348463       30.31804364860741       37.10521347015219
H           18.11564524734010       30.61729507883888       37.80399512270245
H           17.78598730917437       29.74912193369239       36.28905461702364
H           16.61909984197531       29.67173455479748       37.63494450259478
C           14.18811231549265       31.02862671152829       37.26601796766808
H           13.36355863529035       30.76249119967795       36.60142714176333
C           14.14936850990940       30.59681152238830       38.55274973389634
H           14.93495788177429       30.85608398829811       39.25422966361778
H           13.32249059361692       30.00458402064476       38.93030655033095
C           11.32603045541704       35.49761321881947       36.51757813664511
H           11.51575425368383       35.38195682489324       37.59113893702651
H           10.96902559932253       34.54006507813627       36.12395697890779
H           10.54386899478090       36.25038619763106       36.38334904303302
C           11.88802121451492       38.30426137840521       35.20527100490307
H           11.40071069275541       38.40069221198849       36.18151321361640
H           11.10768771956617       38.16066268963328       34.44849553119955
H           12.42596749013972       39.23125682006258       34.99430047405509
C           15.54791092314258       31.57937255997236       30.14201266808442
H           15.72727844462578       31.96843664577733       29.13321758928727
H           14.61775813626804       31.00079071904270       30.13244149178487
H           16.37743870196081       30.92286856615558       30.41784649981997
N           14.49614937110045       33.68153305649017       31.00491206033539
H           13.79998700459639       33.73108279387674       30.28105072484359
C           15.44593113655075       32.69975548380472       31.11184475852254
C           14.65577169013258       34.54641732479094       32.01346954757045
H           14.03890057787758       35.41695724136093       32.16792393581075
N           15.66693508346215       34.16353520299045       32.76550508101385
C           16.17243193853236       33.01082902473470       32.22182452258743
H           17.00946524459002       32.50868565387515       32.67081791025029
C           15.75490584406318       37.04498074474729       37.97857044854524
H           15.48637363474827       36.85825086321217       39.02213287617744
H           14.90595802842082       36.77268592480562       37.34541653054153
H           15.96076083364389       38.11320145187272       37.85342954979695
C           16.97879439720789       36.22137265472399       37.60413889411535
H           16.76100265089985       35.15098077048289       37.72455452401898
H           17.81721073245638       36.48675283051719       38.26319104012070
S           17.43618972501108       36.57015925498849       35.92516654156568
C           19.19690207343199       36.41942486721249       36.00443045350587
H           19.51322414893477       35.42432888063595       36.34032653070147
H           19.59254278858229       37.17608015165459       36.69280628188235
H           19.60699904163292       36.59978346916136       35.00537768053358
87
 energy: -124.347554933011 gnorm: 0.047007689635 xtb: 6.7.1 (edcfbbe)
Fe          16.50010103139994       35.15901841616921       34.34486419472228
N           16.72768295206555       36.76012859318493       33.17292656409644
N           18.30408696218080       34.47883636931211       33.80631503455298
N           16.26063779568603       33.54209894782974       35.50485703378623
N           14.68391426276673       35.80894825086660       34.88808067397921
C           15.93875148240024       37.87275754792617       33.15827949520214
C           16.49316510323849       38.86044556364236       32.25751125296769
C           17.62628840317624       38.31350311093078       31.72592414454337
C           17.75912196092643       37.00198909160425       32.31764985287040
C           19.09728995120977       34.99537434070990       32.82086424264717
C           20.32688106820895       34.25389711513258       32.72464036816570
C           20.28422577523017       33.29032163862340       33.69793289793839
C           18.98744002647815       33.43243415880543       34.34370547916591
C           17.19393994866938       32.59591359018949       35.80164659613173
C           16.60956777175536       31.53218606169381       36.58680954152800
C           15.27715319195869       31.82844920312615       36.70723694827442
C           15.08883035506736       33.10581326516783       36.05490508021210
C           13.74893605069857       35.11377940421134       35.59833947483620
C           12.57270301611358       35.92232845967452       35.80011773573519
C           12.82834449993430       37.13412281034501       35.22175789728034
C           14.14809795605493       37.03669765781955       34.63508996849466
C           14.75469301141287       38.01631731953731       33.86258745236955
H           14.23262568992858       38.95660146671296       33.77087561018891
C           18.82918871976541       36.14964799605070       32.10306752077553
H           19.55555645063058       36.44700196603969       31.36130631262302
C           18.49828041220823       32.58188827086723       35.32214461546327
H           19.15169510856789       31.80135183611311       35.68065778427513
C           13.91926530076476       33.84079313276856       36.11412492873201
H           13.08861459137737       33.40769122706513       36.65218663509776
C           18.59595406983012       38.91490621772095       30.76675992793639
H           18.29145125236514       39.91997347603031       30.49173161636837
H           18.66806174994094       38.31741750620073       29.85910720418757
H           19.58936632050996       38.97460408875878       31.20924763820826
C           15.90779094596548       40.20520527188091       31.99951789469757
H           16.17176953148306       40.89437979007874       32.80132055124202
H           14.82382429875002       40.15427576044706       31.94087619314143
H           16.28104815596165       40.61598676618903       31.06602347683752
C           21.39532212992563       34.51812728875656       31.72218876776528
H           21.89888541730989       35.46151109533721       31.93012852024824
H           20.97052212488151       34.58010547860074       30.72162456936832
H           22.13642189277788       33.72482695078082       31.73820714494554
C           21.32190936250564       32.33364887334285       34.07001523586291
H           21.04683166012315       31.28344789523453       34.08158655491906
C           22.53425796690796       32.69744954726688       34.39826603938680
H           22.82724186622330       33.73501523218501       34.40791627875468
H           23.30278501588639       31.99184470936865       34.66332688137693
C           17.32168761453941       30.33285070206113       37.10125178798004
H           18.10977311679190       30.62078117663363       37.79571010786598
H           17.77886809953110       29.76792192664682       36.29076557040559
H           16.62260293947451       29.68462920871345       37.62182857361115
C           14.19855291518500       31.03549199285768       37.29516743424694
H           13.38279658165944       30.79115341285609       36.61966751208971
C           14.15831281877393       30.61763299019424       38.53421638751427
H           14.93783306116387       30.85125281327672       39.24010551522795
H           13.34814451621178       30.01601361767430       38.91024983300575
C           11.33749118700936       35.49658967651497       36.51322707452354
H           11.52490101058572       35.37830251749610       37.57955395950868
H           10.97746121533503       34.54598526520082       36.12695460399926
H           10.55514661231363       36.23775366374857       36.38428624101668
C           11.90650490654337       38.30298805720108       35.20042775332681
H           11.41650011784853       38.40245873247790       36.16647617384164
H           11.12982307838869       38.16453811518787       34.44860182785306
H           12.43151746571501       39.22717102050370       34.98801790513154
C           15.54609893395674       31.57898731988965       30.14139317727090
H           15.72382191330848       31.95984591292017       29.13759761455838
H           14.62597703305289       30.99849050226116       30.12769719098433
H           16.36717908467403       30.92687752964774       30.41638695547083
N           14.49470755124113       33.67729647395769       31.00068043160523
H           13.79482076831384       33.73154906247244       30.27690194973222
C           15.44170885636236       32.69599075028608       31.10919261059469
C           14.66686869948270       34.54162184765390       32.01798559645129
H           14.05818443694348       35.40825103478392       32.17574145283930
N           15.67321144186366       34.16589137452502       32.77266503576229
C           16.16430323575042       33.01669435678086       32.22308261755766
H           16.99565787269179       32.50918778754646       32.66536753777568
C           15.74859319433653       37.04085097451981       37.99446498018662
H           15.47772311006250       36.86024619353815       39.02907806881428
H           14.90856236998650       36.77664229667811       37.36091228958472
H           15.95773799649054       38.09892426506586       37.86358784944093
C           16.97100151668435       36.21525994226918       37.62462725648142
H           16.76525079158474       35.14814691775774       37.71956390489812
H           17.81470613860784       36.47914567865045       38.26302237334519
S           17.43118873722351       36.60552982354267       35.91902018354254
C           19.21694044036440       36.41437812672302       36.00998058658250
H           19.50345131725046       35.41885254747714       36.33855085672383
H           19.60475224296585       37.16659660038994       36.69291719439202
H           19.61111244850767       36.59716503111753       35.01482419235362
87
 energy: -124.349705020558 gnorm: 0.013268679096 xtb: 6.7.1 (edcfbbe)
Fe          16.49625413673447       35.16280724863391       34.34288955384211
N           16.71728842690640       36.75616463332186       33.15998296898586
N           18.30299439624427       34.48707376628056       33.80676951767963
N           16.26489043807069       33.54654737549325       35.50222786112325
N           14.68139054016132       35.80911421098725       34.87997966000571
C           15.93292764764345       37.86843813458575       33.15059043043208
C           16.48602186009469       38.85714015198260       32.25343972366225
C           17.61628744872306       38.30865065006763       31.72028218105292
C           17.74927861132100       36.99735972541329       32.30869899052392
C           19.09115710530057       34.99983451899522       32.82015735481728
C           20.32340460541392       34.25948220801275       32.72769938056817
C           20.27570396547972       33.30285909890975       33.70366164398247
C           18.98494327205980       33.44218219948375       34.34694263282177
C           17.19786138841729       32.59997712079181       35.79992391123432
C           16.61241148234456       31.54003368617986       36.58768693996252
C           15.28377249272934       31.84052384696305       36.70411901116498
C           15.09301192304895       33.11206160617834       36.04494334082317
C           13.74803503603592       35.11313065000650       35.58596422123006
C           12.57379643061578       35.92263050044335       35.79256928306562
C           12.83090668161134       37.13601612333434       35.21875481893574
C           14.14773930829974       37.03770094815471       34.62992107061140
C           14.75163028199664       38.01501349620594       33.85605677808405
H           14.22712773853147       38.95238088191807       33.75353482917272
C           18.82347174793822       36.15006447251846       32.09856258396087
H           19.56000432699244       36.45611428874115       31.37040420021566
C           18.49821222764545       32.58667553877616       35.31993286347667
H           19.14877781126502       31.79645573287717       35.66380127345352
C           13.91844833018715       33.83872799372254       36.09752574306300
H           13.09043599550364       33.40185199390469       36.63536658636902
C           18.58593108071526       38.90783895062458       30.76541377661573
H           18.28259842852784       39.91269937424105       30.48988250278012
H           18.66020434723935       38.30754629614973       29.86017119313509
H           19.57682485439367       38.96463645572964       31.21290957714628
C           15.90423430203635       40.20165670850074       32.00071411000870
H           16.16628179589735       40.88685419793136       32.80630013521925
H           14.82050484465687       40.15235517799898       31.93732709142277
H           16.28176340621815       40.61363306826234       31.06986821901077
C           21.39457364898324       34.51582662578981       31.73131268722773
H           21.89879509219849       35.45904474288422       31.93805212818132
H           20.97449106075342       34.57289562300067       30.72856654820547
H           22.13229228940888       33.71966820031323       31.75762039166435
C           21.30646100977619       32.34039628413853       34.07486763557053
H           21.01187407148343       31.29668463536130       34.10276842817954
C           22.54779059961989       32.69560775923124       34.37210366469449
H           22.84545920818874       33.73139621231879       34.39624458094299
H           23.29875955727359       31.98203453691539       34.66113522620242
C           17.32397076536011       30.34088213416110       37.09734711167128
H           18.11237764585842       30.62605698367931       37.79251964700251
H           17.78075188165211       29.78148003849862       36.28290831275928
H           16.62447136063815       29.68979681215945       37.61350237465754
C           14.20578807633431       31.05126881580823       37.29449054491474
H           13.38387463994948       30.82824379770337       36.62104879614156
C           14.18062088180836       30.60632869013724       38.54023359253747
H           14.95555892505975       30.84637252251411       39.24851710553141
H           13.35758163561806       30.02546612779193       38.91878516812768
C           11.34460585662327       35.49298953251384       36.51058315038938
H           11.53919941906465       35.37202808784474       37.57541819242773
H           10.98493437568840       34.54164069109406       36.12532591240247
H           10.55879070038419       36.23138106285160       36.38748518514041
C           11.91908312968215       38.31021804642837       35.19351043673031
H           11.42650506571230       38.41498360161191       36.15752103565838
H           11.14522903387794       38.17502558091830       34.43818010526232
H           12.44944145869582       39.23135065674788       34.97934409177248
C           15.54199102092202       31.57655267765645       30.14263888320333
H           15.72074052485050       31.95497231819947       29.13788171983352
H           14.62343249378203       30.99332503103517       30.12602153691003
H           16.36269312915414       30.92429733925334       30.41868459123700
N           14.49417232033674       33.67817661122487       31.00279264491017
H           13.79343789936634       33.73595018792922       30.27975200926928
C           15.43789523109562       32.69329607094647       31.11109114557382
C           14.67262333686530       34.54144256227019       32.02098107328167
H           14.07005095680260       35.41101559917158       32.18148347785020
N           15.67733249158057       34.16308903904923       32.77567188574816
C           16.16140894196991       33.01240449647562       32.22510514128864
H           16.98982753211675       32.49879451990190       32.66483654281586
C           15.74377119846004       37.03398797511475       38.01436396586256
H           15.47090657231081       36.85151406808162       39.04855683824456
H           14.90240471120053       36.77468068589599       37.38028031421022
H           15.95341328402177       38.09231137445175       37.88738398449539
C           16.96582463303799       36.21230798314822       37.63746180690261
H           16.76477931873254       35.14304051639144       37.71308653279830
H           17.81282033759870       36.46946448795376       38.27266542125253
S           17.43127377669031       36.62395263575520       35.92673193712033
C           19.22381469838465       36.40953616793362       36.01778020507045
H           19.49007349009777       35.40628280266597       36.33923702317981
H           19.62078498014495       37.15254445593686       36.70433040626873
H           19.61671701378238       36.59275955881638       35.02281289901720
87
 energy: -124.350743290387 gnorm: 0.016044952279 xtb: 6.7.1 (edcfbbe)
Fe          16.49019106207683       35.16584861027606       34.33667463984052
N           16.70737707007321       36.75203244423916       33.14707486368068
N           18.29942794358078       34.49582000358910       33.80436828881938
N           16.26771402714711       33.55287672089760       35.49679730725415
N           14.67957385290141       35.80887555725362       34.86885070959470
C           15.92494948392609       37.86304529163163       33.13856551697112
C           16.47664575958595       38.85342811454971       32.24440933022294
C           17.60483020673792       38.30363367685975       31.71001563144947
C           17.73913878515678       36.99309404352827       32.29785434440570
C           19.08709700817758       35.00737684218688       32.82104041499088
C           20.32391664041431       34.26958434906980       32.73487523429649
C           20.27075860016627       33.31834016929709       33.71398997062686
C           18.98083319322043       33.45247751100928       34.34753793482838
C           17.20043517973460       32.60663232244023       35.79882240389353
C           16.61425534021165       31.55178992254275       36.59210197893649
C           15.28779243463071       31.85658863871562       36.70508042599834
C           15.09638488918834       33.12108434515406       36.03451069190763
C           13.74619974309272       35.11286941648012       35.57000962241059
C           12.57380381841114       35.92353442215155       35.78216629512681
C           12.83290157955203       37.13790548551867       35.21383755892100
C           14.14648107335339       37.03820602066399       34.62212568002239
C           14.74470270565405       38.01286749138237       33.84436661376629
H           14.21985698277240       38.94875069965728       33.73371456122372
C           18.81971909098202       36.15356932110048       32.09449225193431
H           19.56181757029033       36.46457131491275       31.37536534811166
C           18.49633534880206       32.59164922283918       35.31608665368235
H           19.14658327608404       31.79667896687365       35.64922595604227
C           13.91600048632861       33.83765223527867       36.07786121076622
H           13.08872408723947       33.39377550206827       36.60986423301081
C           18.57576158896364       38.90030461700270       30.75741411109934
H           18.27264842962162       39.90477471258711       30.47835122570994