78
 energy: -116.058076691163 gnorm: 0.000057600941 xtb: 6.7.1 (edcfbbe)
Fe          12.66165961587335        1.75174416415530        1.52528406470424
N           13.25073281516518       -0.03631536973782        0.81208797163339
N           10.93267115376442        1.57375582918436        0.50181187246792
N           12.04265228328633        3.49271317805912        2.27410601585126
N           14.34905806854644        1.88419966470431        2.57371592699033
C           14.43714936354630       -0.65729521001871        1.04743802210044
C           14.51367699015670       -1.90542306368759        0.32321965792637
C           13.34361428843052       -2.02427573615316       -0.36112694654136
C           12.56952252623235       -0.84441202213360       -0.04833556189587
C           10.56251108405554        0.54857347751671       -0.31787568580906
C            9.28054426650367        0.80893442906570       -0.91686136505709
C            8.87959867955950        2.03484837825230       -0.45176880959446
C            9.92806509235167        2.48729562943941        0.44000096935082
C           10.88088979127219        4.14027975793654        1.98639637408612
C           10.79734893498669        5.38833945397112        2.70348336605355
C           11.94828554563278        5.48614630691794        3.43813224347997
C           12.70663391529580        4.28236627648730        3.15319382102314
C           14.71026895943323        2.89268505438213        3.40765404366747
C           16.01793889465465        2.64468725406004        3.97744528659545
C           16.43801505564763        1.45952289423264        3.46262677336712
C           15.38045640126306        1.00044820601317        2.58682252128493
C           15.43709113064746       -0.18197887723688        1.87510115955382
H           16.32764277113278       -0.78328167289010        1.97495452537334
C           11.31692124719512       -0.58608857130223       -0.57077356860931
H           10.90415258521778       -1.31633774063883       -1.24997801240757
C            9.90093837138319        3.68876941860137        1.12088518518785
H            9.04697498261928        4.32935418682419        0.96305636832218
C           13.95503859547587        4.01582746190768        3.68407637820384
H           14.37577433419463        4.74200219047121        4.36285630644030
C           12.88432257242646       -3.11688628510059       -1.26519568161979
H           13.63532112838520       -3.89959763745564       -1.33752153861128
H           12.69251600445025       -2.73268323680064       -2.26759199598388
H           11.96116689707456       -3.56173219426811       -0.89249710866335
C           15.67880408646312       -2.83329330829456        0.36881580837223
H           15.85520098535007       -3.17690410787089        1.38835758772958
H           16.58179492866345       -2.33099889654222        0.02130177522136
H           15.50672750742050       -3.70315180988268       -0.26043025963466
C            8.54082068204919       -0.13112457396182       -1.80404702202274
H            8.68818762777662       -1.16158250280431       -1.48380100537079
H            8.88393023930710       -0.04678463445793       -2.83679647906986
H            7.47617790395790        0.09232263547108       -1.77801213922609
C            7.65990307467147        2.76108621341892       -0.72638580220691
H            7.28134758913686        3.36542179862938        0.08980650015708
C            6.99467586093854        2.74709005137128       -1.87701675476546
H            7.34672585175157        2.20475574913340       -2.73710857645458
H            6.08157403451047        3.30420644580779       -2.00595961574333
C            9.63265691737971        6.31549080397108        2.67897191279479
H            8.69701914524709        5.75845970783261        2.66254677226862
H            9.66101554272510        6.95375865958084        1.79417724264375
H            9.64323149100160        6.95088697742448        3.56214257915638
C           12.36693947598180        6.52751173440533        4.35018996711899
H           12.94339208853482        6.19559620119855        5.20590357781021
C           12.10786177350641        7.82376702147095        4.21178791996603
H           11.58110680598804        8.21476023844514        3.35874090953428
H           12.43898680742315        8.54561731029782        4.93997056121217
C           16.70273912574603        3.55531062957869        4.93785086382885
H           16.10557281932243        3.67529281557960        5.84192133900320
H           16.84850576488432        4.54127802925454        4.49569286196552
H           17.67522384469391        3.15959885333358        5.22032085509589
C           17.70891204061634        0.72015314491852        3.70579185146809
H           18.34784282956439        1.26589791915650        4.39566133471938
H           18.25433977459483        0.57728093841279        2.77258346794151
H           17.50481181601947       -0.26232231237083        4.13203402035944
O           11.62208393019639        0.58632007489708        3.20585348261041
H           11.94411890089066       -0.29905334266730        3.00415242362111
H           10.70985951206422        0.63230229623533        2.89955100910431
C           15.47787115886903        5.24712114774294       -1.78010751226005
H           14.90429042881968        5.86055410451684       -2.47484748544922
H           16.35395089042360        4.86628719466848       -2.30494676135192
H           15.80932133247178        5.87175839680883       -0.95664041863906
N           14.09709662624327        3.17802180854934       -2.06929750928292
H           14.18736293109339        3.13510614893086       -3.07108235811927
C           14.65062062435231        4.13139003957425       -1.25538372016204
C           13.41125491045027        2.31723324457615       -1.28420534590986
H           12.87427095074917        1.46746943292366       -1.65178552965621
N           13.49703116383044        2.66705427899412       -0.02385577141375
C           14.26511891191920        3.79390837624805        0.01032472220370
H           14.48656494653343        4.28295947074778        0.93643614195019
