78
 energy: -115.971631775652 gnorm: 0.260383045936 xtb: 6.7.1 (edcfbbe)
Fe          12.64800000000000        1.75900000000000        1.45600000000000
N           13.17100000000000       -0.13100000000000        0.75200000000000
N           10.92500000000000        1.58300000000000        0.44400000000000
N           12.04500000000000        3.58000000000000        2.22400000000000
N           14.35600000000000        1.88900000000000        2.63000000000000
C           14.37400000000000       -0.73000000000000        1.08000000000000
C           14.40000000000000       -2.01400000000000        0.41800000000000
C           13.22800000000000       -2.18000000000000       -0.23700000000000
C           12.43600000000000       -0.97100000000000       -0.02500000000000
C           10.52400000000000        0.50500000000000       -0.32000000000000
C            9.28400000000000        0.83600000000000       -0.96900000000000
C            8.93300000000000        2.05600000000000       -0.58200000000000
C            9.94000000000000        2.54700000000000        0.33400000000000
C           10.83300000000000        4.19400000000000        1.92400000000000
C           10.73300000000000        5.34300000000000        2.78300000000000
C           11.83300000000000        5.37400000000000        3.57500000000000
C           12.64300000000000        4.25000000000000        3.24900000000000
C           14.69300000000000        2.94400000000000        3.43300000000000
C           16.06400000000000        2.79400000000000        3.85800000000000
C           16.53100000000000        1.51700000000000        3.24600000000000
C           15.42500000000000        1.00700000000000        2.50400000000000
C           15.41400000000000       -0.18100000000000        1.80700000000000
H           16.33800000000000       -0.75900000000000        1.83200000000000
C           11.19100000000000       -0.69500000000000       -0.51100000000000
H           10.68700000000000       -1.47000000000000       -1.08800000000000
C            9.92400000000000        3.79300000000000        0.95400000000000
H            9.14800000000000        4.49900000000000        0.65900000000000
C           13.88700000000000        3.99900000000000        3.79800000000000
H           14.25200000000000        4.67900000000000        4.56800000000000
C           12.76400000000000       -3.40000000000000       -1.07900000000000
H           13.56100000000000       -4.17400000000000       -1.08100000000000
H           12.56800000000000       -3.08100000000000       -2.12500000000000
H           11.84200000000000       -3.83300000000000       -0.63500000000000
C           15.59000000000000       -3.02300000000000        0.56400000000000
H           15.94600000000000       -3.02700000000000        1.61700000000000
H           16.42700000000000       -2.71400000000000       -0.09800000000000
H           15.25000000000000       -4.04600000000000        0.29500000000000
C            8.51000000000000       -0.12800000000000       -1.90900000000000
H            8.54900000000000       -1.15900000000000       -1.49700000000000
H            8.97700000000000       -0.12500000000000       -2.91700000000000
H            7.44800000000000        0.19100000000000       -1.98200000000000
C            7.66700000000000        2.87000000000000       -0.97100000000000
H            7.15200000000000        3.49300000000000       -0.22500000000000
C            7.17700000000000        2.83000000000000       -2.22200000000000
H            7.66600000000000        2.21800000000000       -2.99400000000000
H            6.28100000000000        3.40900000000000       -2.48900000000000
C            9.53600000000000        6.30500000000000        2.76800000000000
H            8.61900000000000        5.75100000000000        2.47300000000000
H            9.71700000000000        7.11800000000000        2.03300000000000
H            9.38700000000000        6.73500000000000        3.78200000000000
C           12.20800000000000        6.32400000000000        4.70700000000000
H           12.82300000000000        5.94900000000000        5.53900000000000
C           11.82800000000000        7.61900000000000        4.75700000000000
H           11.21200000000000        8.05200000000000        3.95500000000000
H           12.13000000000000        8.25700000000000        5.60100000000000
C           16.86800000000000        3.78100000000000        4.74600000000000
H           16.47200000000000        3.75300000000000        5.78400000000000
H           16.76400000000000        4.81300000000000        4.34900000000000
H           17.93900000000000        3.48600000000000        4.76100000000000
C           17.95800000000000        0.93000000000000        3.40800000000000
H           18.37500000000000        1.23600000000000        4.39100000000000
H           18.61700000000000        1.31700000000000        2.60100000000000
H           17.91500000000000       -0.17900000000000        3.36400000000000
O           11.71900000000000        0.65700000000000        3.00100000000000
H           11.88300000000000       -0.26500000000000        2.80300000000000
H           11.26600000000000        0.97300000000000        3.69800000000000
C           15.82200000000000        5.02800000000000       -1.81000000000000
H           15.34900000000000        5.92100000000000       -2.27200000000000
H           16.41900000000000        4.49600000000000       -2.58100000000000
H           16.48200000000000        5.35900000000000       -0.98000000000000
N           13.78700000000000        3.55500000000000       -2.06100000000000
H           13.67900000000000        3.71700000000000       -3.04200000000000
C           14.76300000000000        4.12200000000000       -1.28000000000000
C           13.02800000000000        2.77400000000000       -1.31400000000000
H           12.17400000000000        2.20700000000000       -1.68300000000000
N           13.48300000000000        2.80800000000000       -0.07700000000000
C           14.57700000000000        3.63600000000000       -0.03300000000000
H           15.12200000000000        3.80100000000000        0.88800000000000
78
 energy: -116.027186372799 gnorm: 0.104009044958 xtb: 6.7.1 (edcfbbe)
Fe          12.63833022402249        1.76458057765550        1.45573827411869
N           13.18579954669448       -0.11337814034632        0.76334735634352
N           10.91657099276133        1.58500731097043        0.44061557227862
N           12.03005061204641        3.54921814830675        2.24336095407725
N           14.35318123913099        1.88874875643852        2.60449729995457
C           14.37942988163861       -0.72008901809061        1.06256152402979
C           14.40945126199085       -2.02671741315380        0.42804512610188
C           13.23213181739909       -2.18810809371186       -0.23431608000630
C           12.46089402712264       -0.96680822840595       -0.01225593636667
C           10.51878104593120        0.51701823726960       -0.32481627622452
C            9.26345842673932        0.82805434253093       -0.97331674343292
C            8.90883276920196        2.07839098287140       -0.58338399913567
C            9.94666607900676        2.54976748594080        0.32171701648654
C           10.85675868308441        4.19830875054401        1.93001865481515
C           10.72867108107349        5.35800746038224        2.78455403608417
C           11.82802078085328        5.38697587491352        3.59880305871852
C           12.64003293388620        4.24834146143798        3.24091103153101
C           14.71229177079179        2.92075063820595        3.41942120977047
C           16.08285494542337        2.76217862845354        3.85042356103140
C           16.53238067341358        1.55324286701691        3.26814548196196
C           15.42563017616736        1.03204655442536        2.51073578225459
C           15.41449725340294       -0.16930563682887        1.80643165800236
H           16.32927844887353       -0.75261038442789        1.84068755217268
C           11.20029735561498       -0.68405540967206       -0.50568745531176
H           10.70321160962437       -1.45382807973012       -1.08794245168130
C            9.94549960754424        3.78650245101044        0.95761923380598
H            9.15421823070101        4.47877047544365        0.68337339107129
C           13.89127994773991        3.98292730069326        3.78314639031140
H           14.25689261927868        4.66514934072451        4.54403632400600
C           12.77222928214557       -3.37856244182507       -1.06331234622238
H           13.54576314554819       -4.15366095292544       -1.07896419744500
H           12.57047274069438       -3.07961585673215       -2.09878681239301
H           11.85870851450022       -3.81586160648721       -0.64241415944828
C           15.56987410942796       -3.00824131348286        0.56260197119957
H           15.93249870510251       -3.02338579997449        1.59643375134540
H           16.40306122504317       -2.71638054459621       -0.08796709839942
H           15.25410284059333       -4.02186446088415        0.29675879852761
C            8.51693487042068       -0.12030640310277       -1.89450270517494
H            8.54946931074259       -1.14179547015757       -1.50126543469611
H            8.96855794100690       -0.12302598855911       -2.89449320077942
H            7.46995441966705        0.18679134957957       -1.97810201791641
C            7.68884681598990        2.85655030113428       -0.97912562245571
H            7.19201442411953        3.46920821205714       -0.22717678845869
C            7.18684587401903        2.82488885765501       -2.21138245205750
H            7.65757407065226        2.23751140281842       -2.99018434371294
H            6.30122001615460        3.39465199991572       -2.47958134401741
C            9.54472337461741        6.29552831553992        2.76873878940240
H            8.63544837800337        5.75900641880097        2.47719179327250
H            9.71259964840564        7.10571843964567        2.04854187036542
H            9.39010603606871        6.72792958237232        3.76294646820633
C           12.18696457541456        6.32559662634883        4.69194813158357
H           12.80464147765379        5.93919701303941        5.50388115575145
C           11.82300346800834        7.60662912030350        4.75018104323625
H           11.22734903789650        8.05566384649409        3.96604559913410
H           12.12188302659130        8.24060713191495        5.58043727699649
C           16.85234778370068        3.74602595934636        4.72414147699724
H           16.47339054943044        3.74249608223931        5.75593546046712
H           16.76108208856776        4.77386790717870        4.34705022764109
H           17.91538919109610        3.48660879000104        4.75487004760283
C           17.92387129200830        0.94986358537467        3.41040857561780
H           18.36169814620883        1.23332858131542        4.37350621934979
H           18.59224887176246        1.31108070940479        2.61660637417765
H           17.90192134861564       -0.14606777294373        3.36179290021149
O           11.72406668048510        0.64917635325073        2.99945999520338
H           11.87164371952689       -0.27920703126362        2.82393293041542
H           11.24166944187468        0.96560768302204        3.74035783501393
C           15.81993801299043        5.03110761087459       -1.81543790206965
H           15.36312814059612        5.91664261719674       -2.27217774114534
H           16.41917307988995        4.51353188774076       -2.57327137118140
H           16.47158951724942        5.35237512187919       -0.99857720919079
N           13.79707714247772        3.56614665186307       -2.07203256746781
H           13.68426173710557        3.73028508521117       -3.05665820085330
C           14.77151841233745        4.12133773647726       -1.28594298985958
C           13.03737684813223        2.77183053813471       -1.30684375109703
H           12.19057372919369        2.21401032836048       -1.66999041559084
N           13.48367115244558        2.78463375308724       -0.07044708781168
C           14.56453084063225        3.62372828129347       -0.03574915322597
H           15.10359090402591        3.79372452119497        0.87814667418304
78
 energy: -116.043372091472 gnorm: 0.031364058232 xtb: 6.7.1 (edcfbbe)
Fe          12.63811249274681        1.77018363479060        1.45851241469639
N           13.20456523620189       -0.08814459406960        0.76738545543535
N           10.91858768390389        1.59006797318585        0.43534370841155
N           12.02116936149804        3.52264331613313        2.25334038655952
N           14.35436100404877        1.89073247153435        2.57499341709047
C           14.38544940456599       -0.70333528290603        1.05117926430028
C           14.41770479179810       -2.02225753655225        0.43613516270645
C           13.23442741426740       -2.17781028481567       -0.22708397687603
C           12.48245247563783       -0.94995038474152       -0.00208281883575
C           10.52118843156977        0.52940523410279       -0.32526314897436
C            9.26089088114666        0.82582277689978       -0.97681457201793
C            8.90632509374248        2.09417097747057       -0.58967739966492
C            9.95620860245387        2.54726159371333        0.31631406494663
C           10.87295311454457        4.18732269980595        1.94001053501514
C           10.73084545802966        5.36104210139218        2.77745103366650
C           11.82842634394607        5.38825922207513        3.60596033628911
C           12.63423315242291        4.23354658567747        3.23671969077202
C           14.72078054077625        2.90700800673200        3.39940483939143
C           16.09119650697493        2.73555164225600        3.83884564114138
C           16.52801841696825        1.57934570871076        3.28249288981246
C           15.42398723077198        1.05101667826344        2.50210006092576
C           15.41859507251597       -0.15716580289540        1.80451278013460
H           16.32450830038752       -0.74720378910553        1.85512386632686
C           11.21535934789824       -0.66680979357374       -0.49910599788227
H           10.72993872847912       -1.43241665186446       -1.09027742017987
C            9.95846494188976        3.77102992829077        0.97172324590318
H            9.15497135515932        4.45321415352114        0.71937036445045
C           13.89074551063800        3.96423022973771        3.76614094613612
H           14.26511266502762        4.65273721891108        4.51189342090017
C           12.77721257696978       -3.34799559425939       -1.04136665750398
H           13.53953300663951       -4.12388541958607       -1.06541413992642
H           12.57248937868277       -3.05570287187756       -2.07112209561108
H           11.86604001039157       -3.78659678702094       -0.63401310545747
C           15.55011435438715       -2.98826777577310        0.56312186256094
H           15.91866023239026       -3.01405348290048        1.58692263482130
H           16.38088920566221       -2.70521276804029       -0.08374562007750
H           15.24286719234429       -3.99554211662330        0.29310726120908
C            8.52425183242883       -0.10997456430581       -1.87553168949422
H            8.55552520403841       -1.12769617807147       -1.49263229846677
H            8.96702200099671       -0.11702912700170       -2.87274532113635
H            7.48378671369904        0.19033271950173       -1.96776822815449
C            7.72399241154300        2.84059162328406       -0.98003613320484
H            7.24850126452477        3.44991833357791       -0.21889214107062
C            7.20161994944297        2.82014415454542       -2.20154051799215
H            7.65490280538480        2.25499569053648       -2.99640461285422
H            6.31735836097635        3.38020455766490       -2.46069336189252
C            9.55739146889656        6.28296430297757        2.76557172675398
H            8.65118192219428        5.75545891192187        2.47785159585147
H            9.71284364023923        7.09579089933741        2.05501964299544
H            9.40289324166249        6.71697951160365        3.75080221098964
C           12.17273092362115        6.31584817563920        4.66622104313276
H           12.78660344276923        5.91492344384100        5.46624405823589
C           11.81634298669041        7.59404666865201        4.73670762218508
H           11.23556135109401        8.06527000809533        3.96590222017785
H           12.11130779811677        8.22086681304488        5.56291167556803
C           16.83648970425130        3.70927669994703        4.70250135971091
H           16.45620476171693        3.71232697479955        5.72653331769092
H           16.74313823841722        4.72918165802154        4.32434223202582
H           17.89588029457556        3.46690415861337        4.74070843184361
C           17.89080304517538        0.96807160649569        3.41329439432265
H           18.34112906904303        1.23982651366739        4.36622141403605
H           18.55625030977748        1.31715996488630        2.62022905608994
H           17.86174571073696       -0.11914456276177        3.35786700393671
O           11.72607587956856        0.64526026256162        3.01725162902887
H           11.84068586238361       -0.29545239956575        2.87293000197816
H           11.22254135710775        0.94347669116672        3.77313838582004
C           15.81904727625528        5.03406600001372       -1.81655800247766
H           15.36928434862907        5.91447055248570       -2.27143368000156
H           16.42064525917319        4.52769667507701       -2.56977836850696
H           16.46712302779091        5.35065806016065       -1.00739202580505
N           13.80469424078157        3.57252511723917       -2.08112093260692
H           13.68758637799163        3.74004742170156       -3.06687346051811
C           14.77765773644898        4.11832371770288       -1.28830351108850
C           13.04651774861678        2.76639269740524       -1.30631719447897
H           12.20545963732989        2.21347533456504       -1.66697462753471
N           13.47984380778590        2.76877221671334       -0.06892737122192
C           14.55551491778373        3.60876181610978       -0.03996286416141
H           15.09047855286100        3.78604566155098        0.86949898969852
78
 energy: -116.047898959605 gnorm: 0.020973784583 xtb: 6.7.1 (edcfbbe)
Fe          12.64022271726065        1.76676112544401        1.46585176469919
N           13.22018610429983       -0.06578651703364        0.76751791781473
N           10.92676330104706        1.59166665555976        0.43891885390063
N           12.01458878411585        3.50183695778975        2.25864193881391
N           14.35681174036574        1.89439975975625        2.54939630558718
C           14.39530895556143       -0.68658698765629        1.04534509477216
C           14.42234421123586       -2.00570630701090        0.44062835887151
C           13.23783922668553       -2.15549820532958       -0.21801816755632
C           12.49700914212493       -0.92723760991692        0.00088350482164
C           10.53371157440546        0.53649767960498       -0.32582360594640
C            9.27618940215889        0.82672634259819       -0.97745102343279
C            8.92332729548185        2.09687471168966       -0.59345916534839
C            9.96617858535399        2.54428164096049        0.31764151899715
C           10.87382080294858        4.17126930509404        1.94379491322491
C           10.73164841330122        5.35033248986515        2.76771831850515
C           11.82802709637061        5.37896032910628        3.59550923641872
C           12.62923026521883        4.21922548396386        3.23270982872766
C           14.71493633884273        2.90752867122430        3.37921598831890
C           16.08064750504013        2.73383462658258        3.83031846857290
C           16.52447004404181        1.57813481831452        3.27308895493919
C           15.42394947684221        1.05599434382042        2.48208258222271
C           15.42982484493537       -0.15054956222538        1.79680751226868
H           16.32973945755080       -0.74687254632389        1.86507222848182
C           11.23418410978518       -0.65102029160273       -0.50138918660283
H           10.76124900417060       -1.41481428741542       -1.10278986775047
C            9.95779240330559        3.75873918441745        0.98232598001434
H            9.13948342035601        4.43078025496660        0.75492897054522
C           13.88849574285351        3.95791733367422        3.75005861706065
H           14.27435469567933        4.65245480063787        4.48272368853027
C           12.77257682764394       -3.31892356084118       -1.02604050813934
H           13.53249110207507       -4.09674885375584       -1.05045437653912
H           12.56720003072589       -3.02071422551432       -2.05381286527619
H           11.85939798150022       -3.74946291797558       -0.61539722046577
C           15.54650075338270       -2.97402546407414        0.56362711473934
H           15.91469391749395       -3.00672605095983        1.58740601776054
H           16.37634664518865       -2.68967691390137       -0.08409126166201
H           15.23115191896287       -3.97686697153563        0.28625837107013
C            8.53286523372859       -0.10873644494381       -1.86408686161904
H            8.56519943819588       -1.12502968314288       -1.47669030635152
H            8.96836362879420       -0.11920154568603       -2.86480542871091
H            7.49281778705744        0.19600424058827       -1.95034170703479
C            7.74924025479741        2.84347715874803       -0.97983683764034
H            7.29067108442281        3.45465450610101       -0.21041114604066
C            7.20943538661307        2.82379940209480       -2.19485072860835
H            7.65637280780784        2.27148801174982       -3.00362274939545
H            6.31855669984992        3.37786956011150       -2.43773565535577
C            9.56258221682155        6.27201832054473        2.75816423552998
H            8.65519086472595        5.74493978747522        2.47349246244971
H            9.71493441224539        7.08770448645457        2.04988153940589
H            9.41551689616225        6.70469365142683        3.74543374527533
C           12.16675208824229        6.30597139981705        4.64811977052244
H           12.77861727381634        5.89731068476548        5.44429235911461
C           11.81046647454786        7.58508470977439        4.72389001385100
H           11.24441439881354        8.07188372494787        3.95026466372191
H           12.10160891961932        8.20377287664898        5.55605438428683
C           16.82050788958248        3.69573254240625        4.69630597119118
H           16.43025677869580        3.68964577621862        5.71465016678956
H           16.72456890127231        4.70981740613582        4.30890361981529
H           17.87794377350754        3.44748508247185        4.73373719522456
C           17.87688950566854        0.96536218261777        3.40874028623122
H           18.32601145615074        1.23875719944933        4.36116642989701
H           18.53601596618406        1.31425366159982        2.61187069903471
H           17.82989424552902       -0.11923009802092        3.35325291401716
O           11.73370269575895        0.63902019221056        3.06264089774072
H           11.79582837256168       -0.31195942125222        2.92941636465215
H           11.19919551971592        0.92794813785364        3.80511102843264
C           15.81786746636720        5.03537419325274       -1.81358810617194
H           15.36600060116974        5.91552641446051       -2.26745039155339
H           16.42470388141218        4.53741794676944       -2.56897689130026
H           16.46521417777519        5.35322421455785       -1.00428759130638
N           13.81009128606649        3.56809017688415       -2.08624917261968
H           13.69153809887690        3.74142540380096       -3.07122989082020
C           14.78009807491435        4.11228949585922       -1.28810718489244
C           13.05268155438632        2.75614348222308       -1.31321363733050
H           12.21394530972471        2.20272180046503       -1.67672250421729
N           13.47975841008182        2.75448399580652       -0.07376737409846
C           14.55284365428926        3.59693976501238       -0.04265230765222
H           15.08414267573422        3.77882635974386        0.86749292457599
78
 energy: -116.050922603209 gnorm: 0.027522227958 xtb: 6.7.1 (edcfbbe)
Fe          12.64864495461202        1.76119438634397        1.47027993483001
N           13.23467861612267       -0.04061409286832        0.77591784202144
N           10.93661896836734        1.58978149418111        0.45049998131643
N           12.01191835400261        3.47944150920668        2.25966344829305
N           14.35374612488604        1.89682284238247        2.52102700646590
C           14.40629307610622       -0.66848969426587        1.04385277844235
C           14.42803647041753       -1.98359962051652        0.44442410910986
C           13.24224737734589       -2.12628893910385       -0.20850921555541
C           12.51114490510583       -0.89980126947353        0.00813301724113
C           10.54842942026593        0.54199396590481       -0.32476941701635
C            9.29875969790118        0.82926730831444       -0.98101016044713
C            8.94533224655022        2.09738803554535       -0.59738669814183
C            9.97575418450430        2.53829916285706        0.32319130290673
C           10.87134737110177        4.14909519521581        1.94844854287680
C           10.73335179143609        5.33464275471354        2.75569205874846
C           11.83086397036748        5.36803515215987        3.57822768228423
C           12.62764626243078        4.20549134728965        3.22429706783281
C           14.70603887935461        2.90766790910491        3.35518024248988
C           16.06599856154790        2.73326991454905        3.81682816571150
C           16.51528094620115        1.57594236344667        3.26000007029485
C           15.42043949100735        1.06005804601206        2.46095128689716
C           15.44510565133966       -0.14498248370456        1.79045290521498
H           16.34157896682612       -0.74214099998390        1.87017201260976
C           11.25622820062285       -0.63465313670727       -0.50544021144983
H           10.80100407849693       -1.39638830856334       -1.12185915578787
C            9.94958407902865        3.74226454743056        0.99853361717618
H            9.12096390915983        4.40518952234085        0.79373083581160
C           13.88987977738628        3.95563226374922        3.72927789943100
H           14.28810433366897        4.65516096002209        4.44935852579985
C           12.76168761049204       -3.28455006670881       -1.01188070369864
H           13.51505591774178       -4.06885664165222       -1.03868971743036
H           12.55386136430478       -2.98019970116492       -2.03783942631154
H           11.84579064181167       -3.70281236169308       -0.59362139675219
C           15.54794684035756       -2.95757143374273        0.56297160033489
H           15.91353667106026       -3.00161147710329        1.58783279719593
H           16.37969332896848       -2.66992645758173       -0.08181543039372
H           15.22448333645349       -3.95566561280398        0.27492936918845
C            8.54574485168365       -0.10937562947361       -1.85547060709004
H            8.57974633258671       -1.12302519042421       -1.45870097572816
H            8.96910391963707       -0.12807185781339       -2.86208851734159
H            7.50534435785054        0.20132178554376       -1.92967193353309
C            7.77259799304441        2.84923064843719       -0.97771710961117
H            7.33199860784157        3.46409162554500       -0.20078868372626
C            7.21771595874330        2.83324659362319       -2.18608005665799
H            7.64653543901585        2.27833802379820       -3.00342650524443
H            6.32477574816088        3.39084685505253       -2.41128230469640
C            9.56711804257262        6.25830644473367        2.74847297634169
H            8.65621297561864        5.73304996407877        2.46879731620990
H            9.71714621426581        7.07513513393346        2.04017949487711
H            9.42958069712601        6.69068129835053        3.73848868755961
C           12.16679681831597        6.29683051314394        4.62770249560082
H           12.76913747705225        5.88107626007116        5.42712166670209
C           11.81035956047960        7.57657891414427        4.70442038450106
H           11.24865338449728        8.07209227440272        3.93269928702051
H           12.09078565213554        8.18544521393528        5.54781002311100
C           16.80041173545149        3.68620816381244        4.69233137048446
H           16.40027991601831        3.67257618915915        5.70594547796396
H           16.70906601708920        4.69962920714548        4.30491602198717
H           17.85624031095211        3.43081621999236        4.73491965129503
C           17.86175884646590        0.95843536980301        3.40067655619753
H           18.31309142520142        1.23435494938394        4.35142831627437
H           18.52064051164904        1.29868217793597        2.59984812583720
H           17.80105425120595       -0.12495545155040        3.35174284410358
O           11.78347893480062        0.62965588343900        3.14723787416301
H           11.71234059765250       -0.33293173686837        2.99110317044077
H           11.14385812243572        0.90206821885571        3.82717764653480
C           15.81648616748333        5.03784123695492       -1.80964368857229