87
 energy: -128.392161601964 gnorm: 0.208848226178 xtb: 6.7.1 (edcfbbe)
Fe          23.95900000000000        4.28000000000000      132.16000000000000
N           24.21700000000000        3.86500000000000      134.08600000000001
N           24.84300000000000        2.48200000000000      131.69900000000001
N           23.70000000000000        4.68600000000000      130.15199999999999
N           23.10900000000000        5.94900000000000      132.59500000000000
C           23.82000000000000        4.68800000000000      135.13399999999999
C           24.20000000000000        4.11900000000000      136.37200000000001
C           24.78500000000000        2.92200000000000      136.08199999999999
C           24.77300000000000        2.76100000000000      134.68100000000001
C           25.25800000000000        1.58400000000000      132.59399999999999
C           25.78800000000000        0.46300000000000      131.88900000000001
C           25.72300000000000        0.74000000000000      130.54900000000001
C           25.02500000000000        2.04500000000000      130.44499999999999
C           24.06500000000000        3.87800000000000      129.11600000000001
C           23.83400000000000        4.52500000000000      127.91800000000001
C           23.20300000000000        5.72900000000000      128.25700000000001
C           23.11700000000000        5.79700000000000      129.65600000000001
C           22.57800000000000        6.84100000000000      131.75600000000000
C           21.96800000000000        7.98400000000000      132.47200000000001
C           22.16000000000000        7.73500000000000      133.75600000000000
C           22.83900000000000        6.42700000000000      133.81600000000000
C           23.19300000000000        5.90200000000000      135.03200000000001
H           22.97000000000000        6.46300000000000      135.93899999999996
C           25.24300000000000        1.67700000000000      133.99900000000000
H           25.62900000000000        0.83500000000000      134.57400000000001
C           24.71000000000000        2.66200000000000      129.25500000000000
H           24.99500000000000        2.14500000000000      128.33900000000000
C           22.57000000000000        6.80700000000000      130.36699999999999
H           22.10200000000000        7.63100000000000      129.82800000000000
C           25.32500000000000        1.93900000000000      137.10599999999999
H           24.58500000000000        1.12600000000000      137.26499999999999
H           25.50000000000000        2.46100000000000      138.07099999999997
H           26.27400000000000        1.49500000000000      136.73599999999999
C           23.95000000000000        4.72100000000000      137.75899999999996
H           23.02000000000000        5.32900000000000      137.73699999999999
H           24.80200000000000        5.37500000000000      138.04300000000001
H           23.83100000000000        3.90700000000000      138.50600000000000
C           26.38600000000000       -0.79100000000000      132.46899999999999
H           25.91300000000000       -1.00800000000000      133.45099999999999
H           27.47800000000000       -0.65200000000000      132.61799999999999
H           26.20200000000000       -1.64600000000000      131.78399999999999
C           25.97300000000000       -0.25600000000000      129.50500000000000
H           26.94400000000000       -0.69100000000000      129.25200000000001
C           24.84500000000000       -0.56700000000000      128.89500000000001
H           23.89900000000000       -0.09400000000000      129.19600000000000
H           24.83700000000000       -1.30300000000000      128.07800000000000
C           24.17200000000000        3.95700000000000      126.54999999999998
H           23.25400000000000        3.53800000000000      126.08499999999998
H           24.92400000000000        3.14600000000000      126.65600000000001
H           24.57100000000000        4.76300000000000      125.89700000000001
C           22.68800000000000        6.79500000000000      127.37000000000000
H           22.20200000000000        7.69300000000000      127.78000000000000
C           22.81400000000000        6.66800000000000      126.04799999999999
H           23.14400000000000        5.71600000000000      125.60799999999999
H           22.58900000000000        7.51400000000000      125.38200000000001
C           21.30200000000000        9.21600000000000      131.86699999999999
H           20.55700000000000        8.89900000000000      131.10599999999999
H           22.06800000000000        9.85400000000000      131.37700000000001
H           20.78200000000000        9.79100000000000      132.66300000000001
C           21.75300000000000        8.63100000000000      134.90899999999999
H           20.72400000000000        8.36900000000000      135.23699999999999
H           21.76800000000000        9.69300000000000      134.58300000000000
H           22.45100000000000        8.48600000000000      135.76100000000000
C           28.27300000000000        7.44400000000000      133.51300000000001
H           28.77600000000000        8.05000000000000      132.72900000000001
H           29.04500000000000        6.91000000000000      134.10700000000000
H           27.68900000000000        8.12100000000000      134.17200000000000
N           27.78100000000000        5.48600000000000      131.98699999999999
H           28.72200000000000        5.38900000000000      131.66499999999999
C           27.35600000000000        6.45200000000000      132.86600000000001
C           26.75900000000000        4.71800000000000      131.64300000000000
H           26.81500000000000        3.90300000000000      130.92300000000000
N           25.69600000000000        5.11100000000000      132.31299999999999
C           26.03700000000000        6.21700000000000      133.05400000000000
H           25.30000000000000        6.73800000000000      133.65199999999999
C           20.02400000000000        0.40600000000000      132.62600000000000
H           19.30500000000000        0.24500000000000      131.79400000000001
H           19.46200000000000        0.45900000000000      133.58300000000000
H           20.73999999999999       -0.44300000000000      132.65299999999999
N           20.15100000000000        2.93500000000000      132.31100000000001
H           19.16300000000000        3.07800000000000      132.36099999999999
C           20.77300000000000        1.69800000000000      132.40199999999999
C           21.07600000000000        3.88500000000000      132.14900000000000
H           20.85300000000000        4.93700000000000      131.97600000000000
N           22.27700000000000        3.32900000000000      132.23500000000001
C           22.11000000000000        1.95100000000000      132.33500000000001
H           22.96300000000000        1.28400000000000      132.34899999999999
87
 energy: -128.437704921713 gnorm: 0.084868264386 xtb: 6.7.1 (edcfbbe)
Fe          23.94985994439543        4.27472485970894      132.17951699747775
N           24.19583504590683        3.86880787241836      134.10673444188990
N           24.84816862393688        2.50848831238563      131.71223149817760
N           23.70326496475239        4.67248307366821      130.18137405216447
N           23.08025492777748        5.96365580608327      132.60066374015818
C           23.83026981166412        4.68562094419070      135.14610772663571
C           24.19823024449075        4.10718715775475      136.39667127312259
C           24.78524611681499        2.91330680116867      136.10728393651516
C           24.76854120629354        2.77052930489181      134.68519877172551
C           25.27830843578007        1.58983317979011      132.59880157332091
C           25.81374859202074        0.46024381268356      131.89281498616535
C           25.72701466157338        0.73934128521596      130.56132566298044
C           25.05180997136958        2.04078862822632      130.46239898572207
C           24.09369952775061        3.88765955965122      129.13619990486814
C           23.82113650488630        4.52813768646792      127.90316807328907
C           23.18841082562383        5.72127135216739      128.22426204286481
C           23.12766929862676        5.77936877111835      129.64972072675997
C           22.56233547191590        6.86760697118818      131.74327557404939
C           21.96448915820994        7.99750565629173      132.45819980485768
C           22.15525730388715        7.74631494804222      133.76546032986568
C           22.83632723872932        6.45577918382622      133.83423677198115
C           23.19756152780121        5.90430234468777      135.03883049204347
H           22.96933978343431        6.45203905288116      135.94112498659854
C           25.24835227439656        1.68331586616679      133.98941139527471
H           25.63157375864293        0.84489492495849      134.55895524680838
C           24.73105917767891        2.65902336894617      129.27273502887365
H           24.99453506226508        2.13472426269169      128.36055529285463
C           22.56997322842586        6.81161869583227      130.36601433179646
H           22.10815387177041        7.62842472931461      129.82938263940591
C           25.32649979045550        1.93313349277894      137.10367382705360
H           24.60120096216234        1.12729673127395      137.26653594250033
H           25.50545967335029        2.44058601547334      138.05554219988372
H           26.26413004887107        1.49609511901718      136.74791074631702
C           23.95040005288722        4.71434989026524      137.75245153776930
H           23.03623649202937        5.31603513989409      137.74212230059629
H           24.78710451724551        5.36128412939106      138.04157706316803
H           23.83457574388870        3.92461006569900      138.49941079100066
C           26.38731858320828       -0.79085300693124      132.47518850127227
H           25.92537294260016       -1.01461916895715      133.44179691716008
H           27.46657017742587       -0.66913774995446      132.62192957559182
H           26.21208154270024       -1.63375624155288      131.79867325230956
C           25.94913112990615       -0.23154098306641      129.49093250211789
H           26.91962499521655       -0.66764192043454      129.27035945107960
C           24.83561599799884       -0.57844386196344      128.86332921732296
H           23.89709273692722       -0.12483936216277      129.15898242789129
H           24.82557003381164       -1.31416921774737      128.06883963649358
C           24.17085576805664        3.95616766513964      126.55870272853534
H           23.27327854153856        3.53952444881183      126.08357584122271
H           24.91105315384144        3.15768402457436      126.65375310204517
H           24.59309032110956        4.72939101343373      125.90951307257953
C           22.69764532977033        6.77730612192959      127.34973086991748
H           22.24817303691351        7.66944401901978      127.78654855572098
C           22.79643813585096        6.68431520809171      126.02603696656372
H           23.12663297667011        5.76935241601067      125.57042695647131
H           22.55650002422746        7.51416016872631      125.37582268496978
C           21.30517126617300        9.20466282771216      131.85557785479492
H           20.56443517048979        8.90707327871207      131.10718956879387
H           22.05311399717855        9.84636862889969      131.37746265622474
H           20.79478169042884        9.77692852463327      132.63671149749919
C           21.75471389451528        8.62154760503108      134.91394310725858
H           20.73856738301856        8.37367786205747      135.24325112932394
H           21.77078889750679        9.66991172021569      134.60004615593340
H           22.43816809995846        8.49700774153953      135.75779825839828
C           28.27766363260594        7.44343143176166      133.50665284452961
H           28.77902350411767        8.04915262659111      132.74336328634081
H           29.03928900123266        6.92760104168188      134.10172204010354
H           27.70232190737403        8.10508054963850      134.15897449727396
N           27.80223819110064        5.49885781308964      131.98729698225529
H           28.74721563281781        5.39835905676196      131.66399585476120
C           27.36849605698655        6.45012572986735      132.87295138228234
C           26.75965250620435        4.72857494049730      131.64356084799016
H           26.81310328449067        3.91589732415694      130.93997419898801
N           25.67999036803066        5.13399080665470      132.27310619750668
C           26.04096603041255        6.20567793830606      133.04570877984034
H           25.31371940927776        6.72129794809036      133.64417862941903
C           20.01992794630236        0.41597078047755      132.62180618413586
H           19.30886203508611        0.24224116882543      131.80624092663885
H           19.46693593955692        0.45142083818002      133.56688259469843
H           20.72591515910798       -0.41821499557321      132.65406719452190
N           20.13165433802509        2.91734893203586      132.30474392453786
H           19.14013369257508        3.06513149618287      132.35347093907976
C           20.75924249973857        1.69698899080318      132.41281971731587
C           21.07256137477368        3.86785015250399      132.15730171860091
H           20.85762662286033        4.91101721100018      131.99487299624312
N           22.26992774484408        3.32414058147280      132.19762241235688
C           22.09152133998297        1.96622519898359      132.34455744511607
H           22.93319211374158        1.30092168003061      132.36212522143461
87
 energy: -128.451398928326 gnorm: 0.025834314168 xtb: 6.7.1 (edcfbbe)
Fe          23.94751491817401        4.26835985897428      132.18199828294630
N           24.18206795157918        3.87461938944483      134.12109447243688
N           24.86021303949776        2.53344339006898      131.72730207222662
N           23.71505376917205        4.66927408881508      130.19976327122026
N           23.05573111568764        5.97532102666990      132.60800742603251
C           23.82947382060646        4.68179188519039      135.15346420767412
C           24.19309746077090        4.09702956308169      136.41489846400884
C           24.78215234300293        2.90555086104200      136.12463491128921
C           24.76219102131708        2.77977415963351      134.68759291814672
C           25.30725472298462        1.60099481208882      132.60689143341162
C           25.83923293582925        0.46248504804033      131.90048223631513
C           25.71515336643063        0.73777492533819      130.57278250932706
C           25.07251487119924        2.03919233586875      130.48094085549519
C           24.12239158314462        3.89364954032267      129.15662251645958
C           23.82017782856678        4.52188316707460      127.90009299856365
C           23.18461401309196        5.70773072626366      128.20387367922987
C           23.13614619536463        5.76451394431384      129.64709713246893
C           22.54748854062899        6.88741778243744      131.73799292835739
C           21.96331536364184        8.00768666302139      132.45023847138739
C           22.15350627565345        7.75907623151380      133.77050911805313
C           22.82807411576635        6.48110306241399      133.84741974136989
C           23.19249567600176        5.90229688565975      135.04235509636641
H           22.96644147099698        6.44161320958084      135.94613607841933
C           25.26041514566084        1.69634687729970      133.98641707969315
H           25.64442059634822        0.86288755485988      134.55558127948433
C           24.74979472054693        2.65884920386174      129.29061406274445
H           24.99923433464703        2.12598926065342      128.38310040324544
C           22.56993463939128        6.80737552398076      130.36378390500292
H           22.11808854880212        7.62194570939908      129.82251979773324
C           25.32911332159079        1.92268885231654      137.10074391345134
H           24.61610475687280        1.11490630012206      137.26599517377974
H           25.51430764099893        2.41590477170095      138.05077150766439
H           26.26116276051345        1.49124737828082      136.74748815324855
C           23.95090409253909        4.70612311950773      137.75324621282337
H           23.04379738519403        5.30419205429052      137.74713572615519
H           24.78043253224180        5.35300419069085      138.04039260448411
H           23.84116148520664        3.93159451048846      138.50672158654729
C           26.39518588354812       -0.78946550935847      132.48600734508742
H           25.93473456698399       -1.01670742283755      133.44295725955405
H           27.47009942868415       -0.68783432568670      132.63503905556300
H           26.22039389257015       -1.62358418579260      131.81005362776824
C           25.91078488928006       -0.21331284039513      129.48267458761526
H           26.88985421724631       -0.63314743636556      129.28706389123121
C           24.82255846865606       -0.59502559575690      128.82588668586192
H           23.87767350127393       -0.15699409572762      129.09797832626839
H           24.82955800770099       -1.32471907096388      128.03800803258031
C           24.17667794804774        3.94706640824997      126.57081433226084
H           23.28920152402393        3.54297969061412      126.08036390554398
H           24.90285881720233        3.14656409352083      126.67010405851876
H           24.61643429162405        4.70548432872876      125.92647910160193
C           22.71333915769020        6.75499051707849      127.33281652696718
H           22.30579642209954        7.64557173005584      127.80074501586533
C           22.77533323725177        6.70297688039897      126.00126946915363
H           23.11193686926867        5.81892285392792      125.50668467887549
H           22.49458352971126        7.52993071677517      125.37475103520102
C           21.30699785684633        9.19808976655449      131.84372312227202
H           20.57082486188297        8.90610878398660      131.09912012985191
H           22.04483830603641        9.84042905437832      131.36493179679383
H           20.79989750281742        9.77376907594586      132.61401051107555
C           21.75482992596374        8.62056770184520      134.91835612761082
H           20.74703518552206        8.37404795062411      135.25304069700400
H           21.76769903174558        9.66553240487303      134.61818206239340
H           22.43262357802930        8.50047584050845      135.75731758393925
C           28.28368612230924        7.44365436472056      133.50701462006134
H           28.78250155419243        8.04690475614890      132.75082755073819
H           29.04372228171670        6.94157267641639      134.10363255536774
H           27.70910340512689        8.09819516465502      134.15287436113729
N           27.82307334792357        5.50899776782584      131.98662175384794
H           28.77002780690412        5.40549618074108      131.66308957125131
C           27.38086527420631        6.44807411721672      132.87914496206275
C           26.76525765782454        4.74633261164192      131.63252167224815
H           26.81709745330005        3.93546977696160      130.93799042640705
N           25.67899705785476        5.14629603821805      132.24769971137516
C           26.04666440420802        6.20351527652733      133.02936537286385
H           25.32823689924448        6.71363671874248      133.63485339593424
C           20.01189994972592        0.42035797215057      132.62200862048306
H           19.30691555813667        0.24374802962990      131.81195424833751
H           19.46061769028736        0.44208820762367      133.56076628362536
H           20.71899292758573       -0.40185625919023      132.65369191979303
N           20.10757213419306        2.90502263495811      132.29994891843450
H           19.11407646276986        3.05613519448010      132.34219249166469
C           20.74119790569190        1.69681900147630      132.42181191878245
C           21.05976760829683        3.85487261057662      132.16054200169691
H           20.85105438149998        4.89302929838740      132.00893675188897
N           22.25572187186225        3.32367304053138      132.19565725850259
C           22.07132837906593        1.97861162987510      132.34775191504662
H           22.90369660470361        1.30999801019212      132.38002052472626
87
 energy: -128.456032437724 gnorm: 0.018914944935 xtb: 6.7.1 (edcfbbe)
Fe          23.94920538382955        4.26658943013985      132.18073248660102
N           24.17777871455309        3.87614529891698      134.13031081451092
N           24.87072810720121        2.54507700075868      131.74051653555443
N           23.72410227239325        4.66872027380701      130.20697618893169
N           23.04516264312273        5.98346260650818      132.61409622168759
C           23.82120759006397        4.67952860471708      135.16026775754162
C           24.18520757859137        4.09017617457836      136.42566477322814
C           24.77815175478136        2.90105230225503      136.13372910310511
C           24.76294177214511        2.78462179340081      134.69252906893499
C           25.33231087183467        1.61064753054261      132.61635182810204
C           25.85178493362038        0.46489234637246      131.90927687790710
C           25.69075467188317        0.73072842642029      130.58097364745359
C           25.07322529053211        2.03661574330523      130.49634916834214
C           24.13876882273370        3.89136529200427      129.16981201618520
C           23.83526896251671        4.51182078333445      127.90448616790913
C           23.19950208121360        5.69792655522571      128.19678881154579
C           23.14541136863977        5.75879204390629      129.64735596514660
C           22.54050716839303        6.89565118342317      131.73798036089497
C           21.96159976528664        8.01460202604214      132.44662998274762
C           22.15080328744673        7.76969643457034      133.77164687235120
C           22.81981290698967        6.49382794773483      133.85431635727983
C           23.18296086735839        5.90019913201982      135.04605118631062
H           22.95654720523845        6.43446800578385      135.95416761675656
C           25.28090258877509        1.70901181603942      133.99350318790252
H           25.67273861074268        0.88177395969637      134.56562066239422
C           24.75703967097300        2.65598447752121      129.30463523460247
H           25.00480105685259        2.11538430765167      128.40247930701526
C           22.57391768260042        6.80182888667158      130.36154857187921
H           22.12824322207207        7.61588044690341      129.81271331383047
C           25.33327552660031        1.90980911689638      137.09763428259132
H           24.62793014942003        1.09364689454336      137.25938169486523
H           25.52378887532003        2.38996853455287      138.05437874831671
H           26.26621853509792        1.48539959909889      136.73580246253667
C           23.94907520198776        4.70063092843723      137.76315208907064
H           23.03965377564371        5.29570024177187      137.76187509585205
H           24.77849108405928        5.35203073856119      138.04267993234444
H           23.84948094687214        3.93026953135539      138.52365629270864
C           26.40466248872433       -0.78750863024400      132.49758418174630
H           25.94117084047259       -1.01502304721047      133.45328423856981
H           27.48073034595111       -0.69772915333669      132.65189039450212
H           26.22840057809879       -1.62033905431181      131.81986892560664
C           25.87518995033649       -0.20849180619465      129.47968021543400
H           26.86453907327060       -0.61172042072347      129.30056813975679
C           24.81428000498913       -0.60192321912563      128.78369783712401
H           23.84769076346282       -0.18999372494466      129.02925196786498
H           24.85413395632426       -1.32964887577774      127.99299524916844
C           24.19370351133016        3.93264258469451      126.58011684457823
H           23.30497417218547        3.54961045061081      126.07428613659339
H           24.90097407172624        3.11556206704698      126.68807519573194
H           24.65680976981187        4.68540179441708      125.94313239264902
C           22.73137456249589        6.74198745732019      127.32273974085987
H           22.35211585074462        7.63167866897510      127.81439303679252
C           22.74934491379761        6.72173900970263      125.98577754402754
H           23.07721838075444        5.85839334227613      125.43879397239915
H           22.42209804194842        7.56037681837893      125.39078816685134
C           21.30585862712373        9.19932160470075      131.82823154060713
H           20.57243592634569        8.89962756931440      131.08271231694346
H           22.04257348389393        9.83881021050528      131.34196977006951
H           20.79628831248259        9.78340212938776      132.59061094424038
C           21.75218145897438        8.62631482911039      134.92374450001824
H           20.74756277685701        8.37300668205385      135.26480261283609
H           21.75836992934632        9.67450056815127      134.63365250226929
H           22.43381504512457        8.50395697894696      135.76056104155950
C           28.29213631720310        7.44712933523611      133.50950830505846
H           28.79003003470322        8.05234628329364      132.75382707029613
H           29.05507715593268        6.95181901748095      134.10873897201577
H           27.71305244644311        8.09918071186331      134.15413314125902
N           27.84030711836974        5.51833161810032      131.97963035166228
H           28.78825442498550        5.41469222394070      131.65771449233509
C           27.39355662892157        6.44886998037252      132.87968972783696
C           26.77825287691034        4.76321323891479      131.61329029156164
H           26.83154550534946        3.95327330844650      130.91838995752050
N           25.68936389071219        5.15671872667933      132.22690459363346
C           26.05764772015086        6.20537742434932      133.01810327982855
H           25.34315104800988        6.71095559615471      133.63182697647576
C           19.99773188721222        0.41777921635683      132.62220095381849
H           19.29596594935330        0.23909612722120      131.80954925309297
H           19.44264194869030        0.43054314787862      133.55933232421225
H           20.71164032194094       -0.39857709662855      132.65394434102564
N           20.08526870991053        2.90179885844709      132.29569457762310
H           19.09080977892569        3.05283552245326      132.32860697290940
C           20.72191219919653        1.69708389689007      132.42832880408062
C           21.04007500890610        3.85199304682552      132.15943290088310
H           20.83201034330963        4.89124678108810      132.02054838705143
N           22.23827767158909        3.32424896738562      132.19440784264569
C           22.05255372283349        1.98257208118380      132.36082891280137
H           22.87993950648248        1.30859073687399      132.41208747663359
87
 energy: -128.458633338181 gnorm: 0.014667107633 xtb: 6.7.1 (edcfbbe)
Fe          23.95330763037647        4.26643133677938      132.17968571948001
N           24.18053787071747        3.87862953948580      134.13916762852602
N           24.87145370050354        2.54651451459189      131.75315290636553
N           23.73064344361315        4.66764010221958      130.21200491148912
N           23.04086638187811        5.99228311613554      132.62005462796242
C           23.81217147244540        4.67878874182407      135.16850300132273
C           24.17652844409455        4.08456133422334      136.43588353766768
C           24.77680874781377        2.89966278537868      136.14179256008677
C           24.76983375510057        2.79005986558416      134.69911490649156
C           25.35040821980501        1.61577426770912      132.62656998472855
C           25.85533406734534        0.46356371396804      131.91926244122530
C           25.65586184946194        0.71604379882247      130.59089210274928
C           25.05498913395218        2.02582447340073      130.51116064281385
C           24.14985311388185        3.88676114583464      129.18000878550689
C           23.85490939650926        4.50447404767133      127.91099201683993
C           23.22127272315356        5.69200117120570      128.19528835424538
C           23.15766786314843        5.75839125170967      129.65013489936024
C           22.53830581875976        6.90181812647312      131.73995534192244
C           21.95948272524275        8.02122395963976      132.44431526158434
C           22.14626715441473        7.77983482489226      133.77194853853337
C           22.81274876481676        6.50337626106659      133.86003006221998
C           23.17189388920044        5.89846000381324      135.05038663908110
H           22.94074536666572        6.42697204141767      135.96267914182522
C           25.30641902867493        1.72216024146812      134.00406463899884
H           25.71393710277991        0.90466040069056      134.58012277743626
C           24.75307746313254        2.64754290006815      129.31675491849862
H           25.00331117025701        2.09877218956439      128.42095244199012
C           22.58221022202657        6.79866556376916      130.36167989038256
H           22.13956075261845        7.61134618458334      129.80605517760236
C           25.33897204872379        1.89812381098824      137.09313363411570
H           24.64052548084251        1.07251405267695      137.24438929413262