87
 energy: -128.467559401119 gnorm: 0.000043810903 xtb: 6.7.1 (edcfbbe)
Fe          23.96371871696269        4.23613561015789      132.21575469492424
N           24.18388865043369        3.85277789598419      134.16870042950120
N           24.82361369996455        2.48210736844652      131.77107845257910
N           23.77587221167559        4.64312033878927      130.26093763874502
N           23.06839731118841        5.97117059548133      132.66032150981016
C           23.75841029358531        4.61866634208558      135.20471550010799
C           24.13265586885963        4.02283308839788      136.46964359067010
C           24.80205743666848        2.87869081025910      136.16866034980393
C           24.81662215004826        2.78599950466134      134.72417191389124
C           25.34067914533697        1.58359474018259      132.64998704659197
C           25.84259114055221        0.42538190173581      131.95928161582131
C           25.58405853694675        0.62483887856719      130.62912828587363
C           24.97218023008253        1.93692473026073      130.53626698231102
C           24.16900643932231        3.85305637485970      129.22447518247787
C           23.92892974516458        4.50527236830518      127.96366272780502
C           23.36655014382817        5.72023939729127      128.25982842888689
C           23.28811499145774        5.78057116421400      129.70654877037532
C           22.61903492130776        6.90547261505523      131.78295217781630
C           21.99423437262073        8.00635831708275      132.48393977958065
C           22.07778869960612        7.71069968009038      133.80861645573742
C           22.75868756590367        6.43729686428911      133.89764682621245
C           23.07270394420534        5.81452294523581      135.09164304616405
H           22.77700547352774        6.30865024128422      136.00503789199300
C           25.36869127774757        1.72924346454898      134.02784290192949
H           25.83527473094038        0.94185990127560      134.60089409041589
C           24.70628670178545        2.58209542171776      129.34376095883059
H           24.95638586796576        2.05870718361352      128.43383920058784
C           22.73075953801335        6.83607844796272      130.40688703713442
H           22.34225402731751        7.66603954756680      129.83583790459389
C           25.41526718187009        1.87344183817657      137.08296313595426
H           24.94665172430972        0.89749865904756      136.95139638923004
H           25.29688274919985        2.17156733018652      138.12197813141461
H           26.48037053038799        1.76667356010864      136.87587437129329
C           23.81620034180440        4.60969830922857      137.80303171096989
H           22.73835954687055        4.71591616534617      137.92872831118257
H           24.26658752241623        5.59760596433336      137.90490137307606
H           24.19315393071933        3.97801423618903      138.60387255267938
C           26.45706081293836       -0.76353611252711      132.61479332081825
H           25.72741134863287       -1.27714796500040      133.24228053651993
H           27.29302599643048       -0.46436541791196      133.24771574125216
H           26.81858920475736       -1.46833095772760      131.86998215080379
C           25.86265577278542       -0.29277738133648      129.54477683481295
H           26.77898070475977       -0.86559649041616      129.64622982949138
C           25.08331409117042       -0.51083925942089      128.49097690910452
H           24.13712175706977       -0.01200070400048      128.36770487025086
H           25.35595316176927       -1.21764692396840      127.72445772224437
C           24.29998388739500        3.95812794568972      126.62884711695368
H           23.52872740820500        3.28164807915025      126.25623384737423
H           25.23441406624746        3.40156884527399      126.68513463396775
H           24.41911222957977        4.76898242567469      125.91262388559041
C           22.94610778505292        6.77670214427873      127.36759670100943
H           23.05036672807114        7.78381515092853      127.75536256755750
C           22.44711052800821        6.60878382884253      126.14656943506009
H           22.27533424225733        5.63345063766024      125.72605861612155
H           22.16790842155958        7.44866446572847      125.53179219147640
C           21.39716147548793        9.19905087939825      131.81778462522647
H           20.60410610170559        8.90060870474833      131.13134064712946
H           22.15365410786775        9.73633361215461      131.24500366014195
H           20.97558098169850        9.88211180910711      132.55139681357306
C           21.59572781326223        8.49188672968268      134.98337727091644
H           20.89893147380015        7.90005223209520      135.57744846088900
H           21.08871581714054        9.39927015694445      134.66386585486526
H           22.43050203138721        8.77463876859193      135.62565232523875
C           28.42187304071585        7.41347988327507      133.35290026144034
H           28.67078736831733        8.20897503456664      132.65038456222703
H           29.34669690771040        6.91665669046167      133.64648608695958
H           27.97011000036303        7.85695392568805      134.23471198520301
N           27.77692951886867        5.73300857288895      131.61163017571195
H           28.63904421574863        5.78651494952186      131.09452892556942
C           27.47417356474200        6.44707818666726      132.74189022184717
C           26.71027382702508        4.95343302792466      131.32270886604695
H           26.66386970055932        4.28551769387303      130.48738167251665
N           25.75297786770783        5.13034700759084      132.19931264230769
C           26.21288678588782        6.05586734551931      133.08845090679861
H           25.60841363709500        6.37557822790637      133.91159272644907
C           19.68731730647917        0.71553110493287      132.97173923046901
H           19.32547383952845        0.17192843273970      132.09888803246565
H           18.82371265103111        1.05943054681095      133.54109898288260
H           20.26373434963710        0.03488408962628      133.59044054047482
N           20.07439090791706        2.88648229445236      131.78436677503495
H           19.14007172915735        2.97061137316100      131.41903219283071
C           20.54115490068842        1.86005206187190      132.56384520625608
C           21.09453960656962        3.75440830951586      131.59731627697496
H           21.01903327782329        4.65522999289236      131.02398757410256
N           22.17610695404646        3.34069514250981      132.20971965636454
C           21.84802348572577        2.16432216691301      132.81572436867975
H           22.56991924702949        1.61973693302724      133.38804819501621
