78
 energy: -115.989870238706 gnorm: 0.243064643148 xtb: 6.7.1 (edcfbbe)
Fe          45.13900000000000       54.30200000000000        8.56400000000000
N           44.98000000000000       56.11000000000000        7.68000000000000
N           44.43900000000000       53.39900000000000        6.85500000000000
N           45.20700000000000       52.45400000000000        9.46600000000000
N           45.74800000000000       55.20900000000000       10.28000000000000
C           45.31900000000000       57.34500000000000        8.17700000000000
C           45.20500000000000       58.32099999999999        7.19300000000000
C           44.80199999999999       57.75000000000000        6.07000000000000
C           44.66400000000000       56.32400000000000        6.32000000000000
C           44.22700000000000       53.96899999999999        5.65900000000000
C           43.77700000000000       53.05899999999999        4.71200000000000
C           43.77200000000000       51.84900000000000        5.34100000000000
C           44.19800000000000       52.08899999999999        6.72800000000000
C           44.71600000000000       51.27499999999999        9.01300000000000
C           44.65900000000000       50.27099999999999       10.01700000000000
C           45.11499999999999       50.89500000000000       11.15000000000000
C           45.42999999999999       52.27000000000000       10.81700000000000
C           45.94900000000000       54.60300000000000       11.49500000000000
C           46.25800000000000       55.63200000000000       12.48000000000000
C           46.16800000000000       56.82300000000000       11.85300000000000
C           45.80599999999999       56.57700000000000       10.44000000000000
C           45.66199999999999       57.58599999999999        9.48000000000000
H           45.83200000000000       58.61800000000000        9.78600000000000
C           44.30199999999999       55.36299999999999        5.42800000000000
H           44.04100000000000       55.70400000000000        4.42600000000000
C           44.31000000000000       51.08100000000000        7.70300000000000
H           44.05700000000000       50.06400000000000        7.40300000000000
C           45.86200000000000       53.25300000000000       11.75400000000000
H           46.14500000000000       52.91100000000000       12.75000000000000
C           44.59400000000000       58.34600000000000        4.68900000000000
H           44.84000000000000       59.42900000000000        4.71200000000000
H           43.53299999999999       58.22300000000000        4.38300000000000
H           45.26100000000000       57.84100000000000        3.95800000000000
C           45.53400000000000       59.83500000000000        7.33700000000000
H           46.20700000000000       59.98700000000000        8.20800000000000
H           44.59699999999999       60.40899999999999        7.50100000000000
H           46.04500000000000       60.19700000000000        6.41900000000000
C           43.48699999999999       53.37000000000000        3.25200000000000
H           44.26300000000000       54.06099999999999        2.85900000000000
H           42.49300000000000       53.85699999999999        3.16200000000000
H           43.50500000000000       52.43200000000000        2.65800000000000
C           43.33700000000000       50.53599999999999        4.85000000000000
H           43.83400000000000       49.63800000000000        5.24500000000000
C           42.36700000000000       50.33299999999999        3.94300000000000
H           41.82599999999999       51.18400000000000        3.50400000000000
H           42.10200000000000       49.31300000000000        3.62800000000000
C           44.20499999999999       48.90400000000000        9.89700000000000
H           45.07300000000000       48.21599999999999        9.98200000000000
H           43.72199999999999       48.75400000000000        8.90800000000000
H           43.48300000000000       48.67500000000000       10.71000000000000
C           45.23300000000000       50.38400000000000       12.56000000000000
H           45.60900000000000       51.06600000000000       13.33700000000000
C           44.92100000000000       49.17800000000000       12.94300000000000
H           44.53900000000000       48.44400000000000       12.21900000000000
H           45.03599999999999       48.87900000000000       13.99500000000000
C           46.51500000000000       55.31699999999999       13.93700000000000
H           47.38799999999999       54.63400000000000       14.02100000000000
H           45.62400000000000       54.81900000000000       14.37600000000000
H           46.73700000000000       56.25500000000000       14.49000000000000
C           46.24900000000000       58.20000000000000       12.44500000000000
H           47.19799999999999       58.68399999999999       12.12900000000000
H           46.22999999999999       58.13399999999999       13.55400000000000
H           45.39500000000000       58.81300000000000       12.08700000000000
O           43.20300000000000       54.39500000000000        9.26500000000000
H           43.00400000000000       53.52300000000000        9.60700000000000
H           42.65400000000000       55.09499999999999        9.25700000000000
C           50.50299999999999       52.70500000000000        7.40900000000000
H           51.23900000000000       53.22899999999999        8.05600000000000
H           50.87600000000000       52.70900000000000        6.36200000000000
H           50.38900000000000       51.66000000000000        7.76700000000000
N           49.04899999999999       54.72300000000000        7.10300000000000
H           49.76899999999999       55.28299999999999        6.69300000000000
C           49.18800000000000       53.40900000000000        7.47900000000000
C           47.79499999999999       55.10999999999999        7.38100000000000
H           47.41600000000000       56.11900000000000        7.21900000000000
N           47.12900000000000       54.09399999999999        7.86600000000000
C           47.99400000000000       53.01700000000000        7.97600000000000
H           47.66999999999999       52.07500000000000        8.40000000000000
78
 energy: -116.032219632002 gnorm: 0.092735585976 xtb: 6.7.1 (edcfbbe)
Fe          45.16082916141404       54.30063416494867        8.55033875095593
N           44.99027832459624       56.10846752138633        7.66966543353782
N           44.45569663331549       53.40054574344479        6.86498908730982
N           45.17477608462451       52.48157295330243        9.49247428932389
N           45.72443626739678       55.21124022810274       10.26959272109083
C           45.31195570977565       57.33321788626595        8.18585656475741
C           45.21102878125905       58.34326833643252        7.18600627328070
C           44.80526414626052       57.74612492364160        6.04627159713312
C           44.66816229503264       56.33016263351800        6.33604828649132
C           44.21587235432304       53.98773641775232        5.67163691405543
C           43.77974763322237       53.04585467879092        4.70517778511439
C           43.76133827361587       51.82995993586947        5.34223548956189
C           44.20801964241770       52.08194300525392        6.71504477528118
C           44.72038586789450       51.29295165637923        9.00781837058382
C           44.67069624908591       50.29239966025657       10.03320896075962
C           45.12472860886800       50.91148526579400       11.17729080025632
C           45.43704422721110       52.28001848976105       10.82170916522517
C           45.96079037854715       54.60971371868839       11.47350670126721
C           46.24692909093424       55.62555683879724       12.47876950925583
C           46.15107319507429       56.82450632511838       11.85770926249624
C           45.82498299684023       56.56079179950340       10.45525935035113
C           45.67017992053242       57.55903697949048        9.50156861126459
H           45.83436611553842       58.58734690633448        9.80406353607072
C           44.30183176273862       55.36646449377709        5.43558916987262
H           44.04800094316392       55.70112915799621        4.43527226425230
C           44.31752371614840       51.09359210639191        7.69069013368220
H           44.05253282194790       50.08392425950486        7.39881341490595
C           45.87400981982460       53.25620992795728       11.72909239072370
H           46.12804577914390       52.92204507900602       12.72920065487876
C           44.59245616037311       58.34523731152521        4.68908890469981
H           44.83045331383726       59.41306821828359        4.70390774163632
H           43.54979829568170       58.22396687236404        4.37881334057662
H           45.24308897784616       57.84974591755462        3.96090912577358
C           45.53296021181817       59.82032443472805        7.34309316836301
H           46.19709159109563       59.98642841998509        8.19538738660979
H           44.61446369552068       60.39678618184296        7.49733918110696
H           46.03175553395651       60.18891310045155        6.44132019416426
C           43.49131233834829       53.36257039803061        3.26341501896044
H           44.24861531620520       54.04808994046795        2.86591872506230
H           42.51071352499060       53.84328970093455        3.16127761882651
H           43.50348498121478       52.44699282266894        2.66611811529044
C           43.33609789267489       50.53334389079958        4.84271945394217
H           43.83148856521747       49.65377684094094        5.25151465953899
C           42.37508991029559       50.33487517211417        3.94089270665983
H           41.82348312068925       51.16355796664061        3.51406046632208
H           42.10241136768423       49.33363569471616        3.62766773643082
C           44.20416235033909       48.90367194763465        9.88745969681755
H           45.05072591071374       48.20920575238378        9.97791100711481
H           43.72614584906903       48.74209230555812        8.91696173196846
H           43.47408584884808       48.66610186449679       10.66969160538296
C           45.23763083873544       50.39145176323175       12.54856742988121
H           45.60649363708682       51.07934247158894       13.30597375362220
C           44.92510037036653       49.16766590171939       12.94850710710432
H           44.55665257388200       48.42437412210325       12.26078751784636
H           45.03116805573180       48.87422608607353       13.98593881171674
C           46.51612794251839       55.31889902719032       13.92324554128661
H           47.37554988853822       54.64551520060929       14.02101619001687
H           45.64362039893481       54.82884871345404       14.37098844179616
H           46.73189452994428       56.23430866708622       14.48330451543367
C           46.25297436046885       58.19592011555527       12.44355447359911
H           47.18570994435917       58.68425812698548       12.13578303239147
H           46.23134659549597       58.14599575505778       13.53631395817059
H           45.41293895099450       58.80923653397188       12.10131160834964
O           43.20285845493894       54.38256683092595        9.26592907487510
H           42.97210638339430       53.52321402339449        9.61965003188920
H           42.61314120444996       55.11492717612398        9.26544286536831
C           50.50480987686573       52.70598687581995        7.40658325356913
H           51.23843854114582       53.21439059225470        8.04312667071083
H           50.88024374105119       52.70110730802543        6.37732713274613
H           50.39307618878186       51.67697528155048        7.75538765294634
N           49.06227363587733       54.72172208807778        7.10559892107564
H           49.78394721657190       55.28496214610156        6.69214740518863
C           49.19796145662333       53.41142979133482        7.48517213211524
C           47.79757000169960       55.10048111587829        7.37632785484762
H           47.42092585497566       56.09551770940176        7.21107324754274
N           47.12624329826040       54.10286697746751        7.88929582376149
C           47.98548826005133       53.03283848427531        7.97237877155774
H           47.66229624108873       52.09639526715242        8.38689893160325
78
 energy: -116.042728477788 gnorm: 0.025263838439 xtb: 6.7.1 (edcfbbe)
Fe          45.16887690422138       54.29671763872405        8.54867965899780
N           45.00382987962761       56.10378870526151        7.65907335853679
N           44.48597586493904       53.40161016160051        6.87358734226740
N           45.16467510944033       52.49848845155533        9.50820215585886
N           45.72589302109176       55.21185958348942       10.25579173309828
C           45.31402559935626       57.31934900853892        8.18788038300019
C           45.21755815188616       58.35278342200260        7.18246348669935
C           44.81334469943036       57.73674494346213        6.03638967110805
C           44.68439956241579       56.32948534647466        6.35003771619169
C           44.21960478322160       54.00110855478987        5.68352937873573
C           43.78275773056350       53.03901170561971        4.70818909393017
C           43.75962232436982       51.82386794389064        5.34829345509145
C           44.22440085434545       52.07983665577854        6.70755119291596
C           44.72161924025183       51.30939343566347        9.00489334146342
C           44.68187523445878       50.30748010840169       10.03864489575404
C           45.13587606368172       50.91653837474338       11.19087257426747
C           45.43529300082140       52.28782379369325       10.82316309147099
C           45.96558056576616       54.61548462580746       11.45431733342851
C           46.24510394090481       55.61684795861931       12.47130253441440
C           46.14524971856255       56.82296164636196       11.85514986094592
C           45.83436750151804       56.54875872014737       10.46389378486000
C           45.67417410843197       57.53632191832725        9.51059416554022
H           45.83540664296790       58.56064096430959        9.81362268405743
C           44.31192856077022       55.36473087281968        5.43961175813474
H           44.05630721307801       55.69854752829304        4.44368793468163
C           44.32274913320509       51.10776756580967        7.68618556633521
H           44.04808794282550       50.10266950338757        7.40206567129790
C           45.87047719990842       53.26093466819002       11.71102398579345
H           46.10991403879066       52.93764804896691       12.71380242463096
C           44.59125441593938       58.33843235806041        4.69230875488249
H           44.82125881119661       59.39973872774793        4.70371622701409
H           43.55677353199350       58.21803340677109        4.37854280813341
H           45.22843849499600       57.85422615308890        3.95418164717020
C           45.52994336640677       59.80327486454052        7.35037010853493
H           46.18881032484656       59.97341551904940        8.19544118219056
H           44.62000085302940       60.38190441630619        7.50296327148382
H           46.02135903866198       60.18336487626433        6.45720146810534
C           43.49332577382220       53.35480884622696        3.27895124791591
H           44.24163567231847       54.03850203790882        2.88081289374447
H           42.51802006638508       53.83035225346001        3.17118730856108
H           43.50323713741664       52.44930199672399        2.67979056723533
C           43.33802531407793       50.53653847867634        4.84485322981288
H           43.83830483023058       49.67076128264458        5.26231958685666
C           42.37771005690450       50.33866082793200        3.94668950574500
H           41.81825876378065       51.15161606650646        3.52167771165900
H           42.11037874730214       49.34878278382863        3.62037633774161
C           44.20226629077607       48.90760506557134        9.87160548034803
H           45.03395883737188       48.20779629374675        9.97183238914456
H           43.73807609770327       48.75110435123476        8.90341953774966
H           43.46121750113628       48.66861482274419       10.63309566261144
C           45.24374530253501       50.39367245888516       12.53184359003010
H           45.60332907324861       51.09283615895227       13.27469127736061
C           44.93754581217219       49.16490728437479       12.95119388791966
H           44.57941305063342       48.40046364782209       12.29480022049838
H           45.03885077994877       48.88672871500853       13.98505771574961
C           46.51593596478777       55.31519739973270       13.90775076238542
H           47.36998752857477       54.64802710030196       14.00951900026955
H           45.65309062060966       54.83027727762749       14.36391167679599
H           46.72852433346355       56.22365402084144       14.46435195915542
C           46.25658826553971       58.19045081151351       12.44048618244415
H           47.18163581046294       58.67704739252662       12.13288001724847
H           46.23870844064897       58.14718350741764       13.52549107777461
H           45.42390950740720       58.80860757622992       12.11068760623627
O           43.17330714158958       54.38254440775846        9.25719587645385
H           42.90077667823215       53.54568437252485        9.64204154450030
H           42.56686659964951       55.12210792866229        9.27874764031402
C           50.50150035187360       52.70235718081472        7.40501014833076
H           51.24061894612110       53.19947497623607        8.03220953076090
H           50.87508716962839       52.69340592123925        6.38311118793035
H           50.38914962571904       51.68077752013328        7.74729132768805
N           49.07095760999859       54.72256592584557        7.11209097932664
H           49.79421182024518       55.28542407806104        6.69513745504348
C           49.20131997418819       53.41480673111405        7.49629915843543
C           47.80136524300950       55.10102761728885        7.37751673775359
H           47.42649242810219       56.08563505863516        7.19794407133803
N           47.11859145351370       54.11627108321885        7.90383282437449
C           47.97536659322170       53.05436579571393        7.98115133328816
H           47.65089535772687       52.11746076775581        8.38191805044533
78
 energy: -116.045639565087 gnorm: 0.019304840349 xtb: 6.7.1 (edcfbbe)
Fe          45.16476098723198       54.29485964358376        8.54916147204236
N           45.01605295403801       56.09938732339688        7.65199152383988
N           44.50582984002575       53.40294509038092        6.87689810265286
N           45.15764274312602       52.50678384022329        9.51143586622607
N           45.71973981156942       55.20946056725033       10.24871958517034
C           45.32292702429802       57.31162139131843        8.18478223313643
C           45.22382054160204       58.35056605613761        7.17931088180391
C           44.82310211840546       57.72905223843976        6.03241203129305
C           44.70081148819870       56.32558160774064        6.35084403191709
C           44.23333253928800       54.00458899416203        5.68764939279052
C           43.78548772345030       53.03788921775644        4.71404707287653
C           43.76317111861040       51.82592643927325        5.35392706268201
C           44.23641001216031       52.08196391743432        6.70627062962248
C           44.72074654033413       51.31806776846468        9.00258608793491
C           44.68523742298861       50.31253254788450       10.03243016711850
C           45.13860475269779       50.91415974959413       11.18824563657895
C           45.43351794096135       52.28929268377312       10.82083742296104
C           45.96488333407618       54.61451244639785       11.44475133781914
C           46.24201979081849       55.60964745851673       12.46360561881881
C           46.14138465094424       56.81882778006592       11.85045618516781
C           45.83566094811892       56.54436579150002       10.46241112310470
C           45.67928320237120       57.52841024487439        9.50720922440235
H           45.83793303013658       58.55076224782584        9.81443520094461
C           44.32671039043787       55.36131829788042        5.43563360604597
H           44.06829284819855       55.69687466942523        4.44245728372531
C           44.32645964749528       51.11488885395330        7.68586434916332
H           44.04252706092074       50.11181946540693        7.40627860348030
C           45.86864318229670       53.26104391409132       11.70538234664462
H           46.09664573339644       52.94770584757882       12.71308556951771
C           44.58839085120407       58.33160519811264        4.69126561905329
H           44.81215259519172       59.39434603175872        4.70463996387059
H           43.55177799688177       58.20688386308085        4.38322020442313
H           45.21982146668339       57.85425068460898        3.94232250915818
C           45.52730836267217       59.79701265608848        7.35939601554401
H           46.18547931640814       59.96326836085000        8.20645779065313
H           44.61478477309923       60.37155957786748        7.51778881883819
H           46.01566413755560       60.19005765155225        6.46896925258037
C           43.49238993078192       53.35048007726395        3.28854891867211
H           44.23846354142518       54.03596246659650        2.88969922318997
H           42.51499227190433       53.82168077791395        3.18203446678972
H           43.50361056075292       52.44329662492945        2.69119610063061
C           43.34510292693078       50.53895846660848        4.84884471887656
H           43.85049291035820       49.67842858800253        5.26985341440077
C           42.38696236239174       50.33992675371879        3.94854023924354
H           41.81026021530280       51.14802670126628        3.53571412965776
H           42.12091088090472       49.35107304935443        3.61791603974140
C           44.19852143168029       48.91270690298937        9.85122402304813
H           45.02121672628657       48.20572578688568        9.96828897475891
H           43.75659328180697       48.76601546179777        8.87093082209439
H           43.43529279109281       48.67803723539729       10.59296456621066
C           45.25111745171389       50.39324106111280       12.52389044099362
H           45.60209150173898       51.10616253442708       13.25892361824976
C           44.96049839956117       49.16525069357164       12.96113384965909
H           44.62053734587327       48.37243310527516       12.32434069131137
H           45.06193982696260       48.90883415210462       14.00127125015648
C           46.51798722367797       55.30785587290335       13.89653255335541
H           47.37324740183694       54.64194292394430       13.99546334914529
H           45.65775237004141       54.82316060269942       14.35797383332161
H           46.73070667952975       56.21865400651556       14.44895558396492
C           46.26250360136419       58.18485857004745       12.43659136052891
H           47.18756618572940       58.66728602592895       12.12244833396693
H           46.25240904737151       58.14167900257201       13.52185973197341
H           45.43073114936178       58.80929107905234       12.11524103537413
O           43.12460706545090       54.38644525164007        9.22994496963431
H           42.82845373780697       53.58091746956229        9.67290369732319
H           42.52657984483348       55.13646808714490        9.29699331348187
C           50.49258582617251       52.69476258766269        7.40616892444198
H           51.24368026888327       53.18238421307190        8.02750767739083
H           50.85811655298946       52.68553592097042        6.38101346549972
H           50.37485068388885       51.67223323403123        7.74434440391730
N           49.07526127575041       54.72536428694720        7.12133277644624
H           49.80072516610900       55.28452804798547        6.70241215097813
C           49.19854065325843       53.41766614429319        7.50895248485299
C           47.80694625546235       55.11067707100749        7.38266782768498
H           47.43410960587043       56.09230015116705        7.18512506015569
N           47.11639593362281       54.13300162123395        7.91609666589487
C           47.96786131398640       53.07001563047106        7.99528315913713
H           47.63936892163895       52.13189164168057        8.38969233024321
78
 energy: -116.047513888366 gnorm: 0.037647832279 xtb: 6.7.1 (edcfbbe)
Fe          45.15915516367550       54.29502075452801        8.54636984305676
N           45.02802218825024       56.09498685283923        7.64389435241878
N           44.52968968483727       53.40549950575561        6.87824369853272
N           45.14701351644389       52.51711218066320        9.51163766621599
N           45.70081665813831       55.20705931653944       10.24161907568886
C           45.33125292498217       57.30590027103955        8.17965898730446
C           45.23090461090745       58.34638453764109        7.17432353901367
C           44.83654907784702       57.72215337671243        6.02694652041652
C           44.72010949065882       56.32144632125682        6.34606601257080
C           44.25345858806228       54.00680328395350        5.68927864795515
C           43.79074264793356       53.03795209301123        4.72005779829657
C           43.76922612151956       51.83035246272025        5.36054938053131
C           44.25021990307952       52.08664332944756        6.70620863507067
C           44.71657163857119       51.32794637681114        9.00076363112261
C           44.69078992104862       50.31602517749715       10.02318934817610
C           45.14469346327527       50.91087708528175       11.17956404169981
C           45.42833966124206       52.29203266630367       10.81724528292261
C           45.95358378038532       54.61328387559846       11.43606172043233
C           46.23723266338330       55.60213320986426       12.45312929705419
C           46.13759871644267       56.81384770145318       11.84284158518676
C           45.82771819911856       56.54246189204923       10.45832929747949
C           45.68048183634636       57.52488239306074        9.50035494677124
H           45.84234563482195       58.54461599492493        9.81296253709433
C           44.34734627509960       55.35768538734975        5.42597301575787
H           44.08882273003344       55.69519081584532        4.43468097633835
C           44.32829950111201       51.12237841557988        7.68662876915424
H           44.03596753701787       50.12174723884292        7.40888437709789
C           45.85960630971328       53.26169551664384       11.70325973987907
H           46.08468169071504       52.95966230050580       12.71375068337047
C           44.58443257062778       58.32479231725249        4.68798448505934
H           44.79953226524560       59.39033552121377        4.70287453142798
H           43.54341229001997       58.19180368763959        4.39191943863092
H           45.20966207136340       57.85476811762884        3.92724271920141
C           45.52321040144511       59.79273878031638        7.37126566447859
H           46.18172745931739       59.95097492307053        8.22145084109970
H           44.60496277120193       60.35778157701905        7.54135614876169
H           46.00704160787227       60.20455440195214        6.48499855358551
C           43.49031264283725       53.34605222824855        3.29691063197013
H           44.23160125594976       54.03544996893962        2.89432590981642
H           42.50831268930772       53.80968235731675        3.19341285509116
H           43.50473430570182       52.43488363069697        2.70329641209029
C           43.35291901887891       50.54119697656559        4.85782131244734
H           43.87360690703877       49.68604762685822        5.27192339788070
C           42.39253602646021       50.33939805992959        3.96070464182174
H           41.80896252164069       51.14414996213856        3.54946692397731
H           42.14012366253083       49.35068727865087        3.61432499621274
C           44.20047158875593       48.91754974927952        9.83534770051195
H           45.01302683913215       48.20328709461066        9.97128342175693
H           43.78284292513572       48.77569676571025        8.84184698867924
H           43.42072039240763       48.68980432457654       10.56272068220406
C           45.26241666339335       50.39088251946357       12.51366580410638
H           45.59688919376977       51.11599637875008       13.24653661016368
C           44.99151700271247       49.16346198667506       12.96090247769203
H           44.65706642980607       48.35279522051341       12.33983043694966
H           45.09743444632865       48.92655959384733       14.00757731189782
C           46.52249923936002       55.29804279918766       13.88280187804092
H           47.37963508016542       54.63215758820257       13.97487246261945
H           45.66561642676054       54.81255109713820       14.35168925884287
H           46.73856574383583       56.21068955108120       14.43245714317145
C           46.27352273657944       58.17792039559263       12.43003222607132
H           47.19898547168741       58.65392952288318       12.10380125294011
H           46.27772990770537       58.13301747179247       13.51654019872930
H           45.44141430210339       58.81048568345170       12.12150936534122
O           43.04087494659640       54.38322303905047        9.15662631406755
H           42.74271590924693       53.64138495100258        9.73011285340841
H           42.47932657026579       55.16108710707044        9.35150100616315
C           50.47828446169409       52.68091413113605        7.40935726470966