72
 energy: -105.980694310068 gnorm: 0.000053257292 xtb: 6.7.1 (edcfbbe)
Fe          -5.89270458185955       24.51467456691246        7.48338787860665
N           -4.17952565362789       23.52610093551923        7.25128203886085
N           -6.33073275328180       24.21158203772039        5.55129488483063
N           -7.65648056098292       25.46191037970985        7.72174902119706
N           -5.50719700038777       24.74528484835793        9.43258747916004
C           -3.27235388923733       23.22674418666235        8.21725682394755
C           -2.14100089441397       22.52019715471163        7.65571974781193
C           -2.38974994903223       22.40069129452026        6.32517394406853
C           -3.67363072972161       23.02800929212775        6.09475741231634
C           -5.53480774388999       23.62612596645346        4.61798764326494
C           -6.18036383083534       23.62473191700672        3.32441623445391
C           -7.38837978299106       24.22381016210580        3.49954021649662
C           -7.45864254151794       24.59528526473028        4.89535220738223
C           -8.59747417894084       25.69467094746427        6.76971217290682
C           -9.70478214787394       26.44767774413739        7.32077098555707
C           -9.38553099472469       26.68800902653322        8.63162834436651
C           -8.11087701895584       26.06055461745174        8.85919119882694
C           -6.27597980886939       25.38980575461245       10.34858658612094
C           -5.66482730222913       25.33065223741439       11.66212605448580
C           -4.51362671640318       24.60514915385109       11.50997698666517
C           -4.43637769967278       24.25619551618098       10.11451873778015
C           -3.38648263908004       23.55030884479592        9.55357385147864
H           -2.59028936103322       23.23660831899715       10.21053770239708
C           -4.28918319298787       23.08121303100321        4.85886377478075
H           -3.76437473906593       22.64896800420487        4.02131700889604
C           -8.52640672877539       25.26800201259566        5.45687050516779
H           -9.35748497786114       25.50264058079107        4.81072682064204
C           -7.46789599302576       26.03592862125701       10.08421275230005
H           -7.95267449045317       26.53942449271884       10.90583240192452
C           -0.96934125733527       22.04864943430753        8.44565838101022
H           -1.28696691923115       21.34736088825244        9.21732383608473
H           -0.47182298109713       22.88704585791699        8.93400821650117
H           -0.24766307934418       21.54813839366865        7.80504351774788
C           -1.56447835985125       21.76240025400211        5.26184134158439
H           -1.32919110895888       22.48035561346735        4.47592794195868
H           -2.10222050464358       20.92927313960094        4.80886922491534
H           -0.63112792236450       21.38458940580585        5.67160863190711
C           -3.54352322754843       24.17579873880070       12.55371531259722
H           -2.66342193393668       24.82135663992622       12.55909952244034
H           -3.21212933460715       23.15461038313699       12.37241434105326
H           -4.00893346491575       24.22210651637052       13.53602493577112
C           -6.22857090567729       25.91087441065315       12.86128687258624
H           -7.31093333173572       25.91693814323712       12.91558456317139
C           -5.52961815443921       26.42760603019515       13.86632525918771
H           -4.45551191998953       26.48980808772427       13.84522153077875
H           -6.01381819761037       26.83232922061998       14.73937216002378
C          -10.13909994278239       27.48462802595984        9.63782646040024
H           -9.45881231527936       28.07379766459310       10.25105166226529
H          -10.71330844973708       26.83420068198427       10.29984818625151
H          -10.82972113990710       28.15941279718671        9.13641063315686
C          -10.87079477685470       26.86449512161206        6.57292831752530
H          -10.69945348033171       27.09125058031464        5.52730072550879
C          -12.09987474080891       26.97626763088580        7.06516223707531
H          -12.33545965346219       26.71967341656176        8.08333220513363
H          -12.92314812129027       27.30615883237236        6.45375436931846
C           -8.46461529831248       24.49046728549880        2.50482177701709
H           -8.63110237659324       25.56284908886247        2.40128773350005
H           -9.40202821759916       24.03133920231262        2.81952641929094
H           -8.19730983821248       24.09028450907360        1.53011320522122
C           -5.57818830267074       23.05443508997029        2.08713909743454
H           -4.64284209933072       23.56121904147114        1.84966550023912
H           -6.25239801613255       23.16668831482994        1.24185717001343
H           -5.36446712118245       21.99336825431774        2.21812180363522
O           -7.01628327815972       22.61796424217289        7.90827748805301
H           -7.81874866269503       22.97529593285097        8.30575960738146
H           -7.24459776349873       22.33553486496725        7.01503765134149
C           -3.22647002958087       26.62622594512407        7.65251129043925
H           -2.87846782962097       27.65393692780004        7.68975535902320
H           -2.60932588953852       26.04585101862056        6.97462339127224
H           -3.22034531494048       26.17005395976094        8.63656619007879
S           -4.92189926414020       26.59317723680735        6.97194078032361
H           -5.46612757234168       27.29722626585085        7.97110373310730
