72
 energy: -105.731163319930 gnorm: 0.302660173530 xtb: 6.7.1 (edcfbbe)
Fe          -5.90100000000000       24.55200000000000        7.51500000000000
N           -4.21600000000000       23.49800000000000        7.24100000000000
N           -6.31400000000000       24.30200000000000        5.56700000000000
N           -7.76600000000000       25.31100000000000        7.78200000000000
N           -5.62200000000000       24.60300000000000        9.49900000000000
C           -3.35400000000000       23.14600000000000        8.25200000000000
C           -2.15800000000000       22.60800000000000        7.65300000000000
C           -2.30300000000000       22.63000000000000        6.32500000000000
C           -3.60300000000000       23.19600000000000        6.04400000000000
C           -5.46600000000000       23.76800000000000        4.61700000000000
C           -6.17700000000000       23.67899999999999        3.36300000000000
C           -7.41500000000000       24.14500000000000        3.56600000000000
C           -7.51900000000000       24.54500000000000        4.94700000000000
C           -8.67000000000000       25.60400000000000        6.79100000000000
C           -9.65500000000000       26.53000000000000        7.30300000000000
C           -9.34500000000000       26.77400000000000        8.58700000000000
C           -8.15700000000000       26.01300000000000        8.90100000000000
C           -6.39900000000000       25.27000000000000       10.41600000000000
C           -5.81500000000000       25.09700000000000       11.72800000000000
C           -4.70000000000000       24.36400000000000       11.58500000000000
C           -4.57500000000000       24.02900000000000       10.17900000000000
C           -3.58300000000000       23.27600000000000        9.60100000000000
H           -2.91800000000000       22.73300000000000       10.27200000000000
C           -4.16000000000000       23.39400000000000        4.81500000000000
H           -3.53100000000000       23.24600000000000        3.93700000000000
C           -8.63000000000000       25.08800000000000        5.52500000000000
H           -9.54800000000000       25.11199999999999        4.93800000000000
C           -7.53000000000000       25.98600000000000       10.12000000000000
H           -7.96700000000000       26.58300000000000       10.92000000000000
C           -0.92900000000000       22.09300000000000        8.42400000000000
H           -1.48400000000000       21.36500000000000        9.05400000000000
H           -0.76000000000000       23.02200000000000        9.01000000000000
H            0.04500000000000       21.64700000000000        8.13100000000000
C           -1.26400000000000       22.15900000000000        5.28200000000000
H           -1.21600000000000       23.11400000000000        4.71700000000000
H           -1.94500000000000       21.46000000000000        4.75000000000000
H           -0.24400000000000       21.72400000000000        5.34200000000000
C           -3.72800000000000       23.90500000000000       12.68900000000000
H           -3.44100000000000       24.94000000000000       12.97200000000000
H           -2.86300000000000       23.23000000000000       12.86600000000000
H           -4.59200000000000       23.58800000000000       13.31200000000000
C           -6.39700000000000       25.73000000000000       13.01500000000000
H           -7.33400000000000       25.49200000000000       13.48200000000000
C           -5.59600000000000       26.11900000000000       14.01000000000000
H           -4.55900000000000       26.42400000000000       13.80500000000000
H           -5.96300000000000       26.14000000000000       15.04700000000000
C          -10.08200000000000       27.68300000000000        9.59200000000000
H           -9.20100000000000       28.30200000000000        9.86600000000000
H          -10.23900000000000       26.91300000000000       10.37700000000000
H          -10.97500000000000       28.34000000000000        9.52100000000000
C          -10.82700000000000       27.05300000000000        6.44100000000000
H          -10.67200000000000       26.74100000000000        5.42100000000000
C          -11.85800000000000       27.71000000000000        6.98100000000000
H          -11.86300000000000       27.95700000000000        8.05300000000000
H          -12.71400000000000       28.01200000000000        6.36000000000000
C           -8.56000000000000       24.27100000000000        2.54500000000000
H           -7.93700000000000       24.93700000000000        1.91000000000000
H           -9.62500000000000       24.57000000000000        2.44300000000000
H           -8.42600000000000       23.22100000000000        2.20600000000000
C           -5.57000000000000       23.13600000000000        2.04500000000000
H           -5.74800000000000       24.11900000000000        1.55900000000000
H           -6.43100000000000       22.46700000000000        1.83000000000000
H           -4.63500000000000       22.69600000000000        1.63600000000000
O           -6.94900000000000       22.51700000000000        7.85900000000000
H           -7.82400000000000       22.72300000000000        8.18700000000000
H           -6.61800000000000       21.70400000000000        7.71900000000000
C           -3.34800000000000       26.67800000000000        6.91300000000000
H           -2.78600000000000       27.48200000000000        7.43400000000000
H           -3.25600000000000       26.84800000000000        5.81900000000000
H           -2.87500000000000       25.70600000000000        7.17000000000000
S           -5.07900000000000       26.67300000000000        7.39700000000000
H           -4.83900000000000       26.46300000000000        8.68300000000000
72
 energy: -105.847761812246 gnorm: 0.161413810073 xtb: 6.7.1 (edcfbbe)
Fe          -5.93129782709543       24.50491958661140        7.51841170766142
N           -4.19902556355191       23.51449781851574        7.24325821263617
N           -6.30834409674284       24.30079601319822        5.57762935208906
N           -7.76151990078496       25.34135340406794        7.77799663274043
N           -5.62460219306875       24.60631266617841        9.49312878388061
C           -3.34576155113256       23.13802252767820        8.24373032755837
C           -2.14056197120744       22.59061736450722        7.65509449740415
C           -2.28243484155737       22.62829990387981        6.32272597250165
C           -3.58637199341792       23.20405193763754        6.05616647974736
C           -5.46877869166795       23.78253052042077        4.62948409391787
C           -6.16408090263042       23.67397194584756        3.37723472966277
C           -7.42348228057784       24.13695033674270        3.58496527416031
C           -7.50684372410634       24.53125796085476        4.96085436357214
C           -8.67471244672103       25.61020413938044        6.79966724517627
C           -9.68306414524330       26.52703373163274        7.28909360884516
C           -9.36688887153049       26.78412910755002        8.58113236135875
C           -8.16697753722174       26.02966557627732        8.89062092161048
C           -6.39298878157245       25.26901229859420       10.41427777710565
C           -5.81342510598855       25.11483413511734       11.73260522180701
C           -4.69469622914558       24.34926983161609       11.57270863565734
C           -4.58930430738308       24.02624104811845       10.17211949717258
C           -3.58224976482362       23.27390745761139        9.59874606663010
H           -2.91018586777631       22.75225918801226       10.27243616867365
C           -4.15645181159699       23.39854263511346        4.82008912665764
H           -3.54288466287532       23.22780460799007        3.94056965588232
C           -8.62831669007603       25.08451119535451        5.52839892350138
H           -9.53327489544874       25.12361819117974        4.92998896918673
C           -7.53421815602833       25.99017952880065       10.11955435499288
H           -7.96860008254210       26.57461142614022       10.92273615545168
C           -0.95825242012235       22.10375755152122        8.46445423263650
H           -1.45217477427157       21.35576441053840        9.09432737869333
H           -0.73227160254534       23.00425715819288        9.04759022443421
H           -0.01332053962333       21.67392361269951        8.09141429631989
C           -1.30376793035437       22.17751621044138        5.25264166218524
H           -1.19901108080910       23.10163862283283        4.67335907015860
H           -1.92313340293850       21.45582461355016        4.70761697245274
H           -0.29783262193198       21.74550904295065        5.39572692757644
C           -3.76587464491430       23.93477770598842       12.70717709055824
H           -3.42087657229049       24.92722752520217       13.01832797481177
H           -2.90809210386356       23.24378594747746       12.78970705892512
H           -4.56163431300134       23.58916745400848       13.37917962833099
C           -6.36318954789101       25.66886175365997       13.02584857513100
H           -7.35521686986569       25.47685705526779       13.42285378697777
C           -5.58093352192114       26.11722633877635       14.00955960820441
H           -4.55862545789575       26.42315881093203       13.82124817746168
H           -5.95500927930848       26.17672072345425       15.02978237024767
C          -10.03979987062524       27.66686658735915        9.61893847801278
H           -9.20941168047459       28.31990028006961        9.90688422445738
H          -10.24502242341024       26.93806296407067       10.41158596179186
H          -10.93165252540597       28.29940266272396        9.49001288962497
C          -10.81751609764442       27.03723931337499        6.46028261682729
H          -10.68616753338894       26.75227896062382        5.42660402021233
C          -11.85016319819601       27.70099380541705        6.97058827393859
H          -11.87939203215428       27.94826326802325        8.02276229523711
H          -12.69626190769490       28.00987979333750        6.36069534480568
C           -8.50894379428462       24.25212690680050        2.51942127121877
H           -7.96305438285797       24.92874313014360        1.84857399610548
H           -9.57014085512057       24.56407689576928        2.51665565047424
H           -8.45224699544497       23.22178757594270        2.14557452078138
C           -5.62193607501993       23.16342284618088        2.03986913516413
H           -5.75125914619441       24.10514491579852        1.49098901441553
H           -6.42512816531099       22.46250986705714        1.77678462378436
H           -4.65997868344843       22.71883555577860        1.72216730246014
O           -6.94939469223955       22.54331951476407        7.86109334411255
H           -7.82927816363785       22.71434990873301        8.18872729849311
H           -6.61686369574115       21.67840955797200        7.71852550587300
C           -3.33122200648767       26.67661217092077        6.91131365419485
H           -2.79318418217918       27.47938586869514        7.42926002048954
H           -3.26129679162856       26.84326541182227        5.83068254763563
H           -2.87684434698513       25.71248153636742        7.16331605689656
S           -5.07464982769414       26.66924901430272        7.39065190508934
H           -4.83262934966650       26.48401106582825        8.68579989555577
72
 energy: -105.914628687976 gnorm: 0.068014914429 xtb: 6.7.1 (edcfbbe)
Fe          -5.94827790316095       24.48363799987526        7.51722387044000
N           -4.18898989163074       23.52389918263168        7.24738992945793
N           -6.30804555490705       24.28835068693520        5.58629853401472
N           -7.75625220084328       25.36393270595245        7.77519250962478
N           -5.63394052826392       24.59839283019404        9.49354099890053
C           -3.34125597252527       23.13250494888487        8.23805990809636
C           -2.12624973460907       22.57456973946155        7.65939145801711
C           -2.26522395182622       22.62958860368876        6.32020024693420
C           -3.57458018258699       23.21467319471785        6.06908462264985
C           -5.47253580093079       23.78954607378109        4.63724276313409
C           -6.15251184710987       23.67402404404882        3.38045008044880
C           -7.43206575977431       24.12974299343561        3.59343103087979
C           -7.50028807292991       24.51349943684755        4.97023042482324
C           -8.67498982702411       25.61548073543583        6.80847792941494
C           -9.70550248615320       26.52225276548053        7.28586745560091
C           -9.38048813398788       26.79254248546411        8.58582864598401
C           -8.16932001877725       26.04436893571859        8.88196142427970
C           -6.39168851820858       25.26318335348534       10.41536253415410
C           -5.81540292705028       25.12670428262946       11.73947253637998
C           -4.69172451426265       24.33577774048746       11.56701183286237
C           -4.60311283214777       24.02101363125050       10.17091517202919
C           -3.57901842146620       23.27594723549201        9.59713192080922
H           -2.89929721715914       22.77650625874574       10.27325187665539
C           -4.15378575246964       23.39992816927262        4.82734329841272
H           -3.55570867297916       23.20502492060302        3.94710726403278
C           -8.62595861236875       25.08491931410545        5.53189326794225
H           -9.51702381539831       25.14113703068563        4.92217751600340
C           -7.53562763584330       25.99306945574637       10.11836273651702
H           -7.97025114693499       26.56330547632684       10.92612543484251
C           -0.98848267256224       22.11275216498581        8.50199037975493
H           -1.41865149402373       21.34593996373862        9.14130144676007
H           -0.70575713993531       22.98531162084966        9.08806301325981
H           -0.07619465668361       21.70044719470440        8.04288347733683
C           -1.34362353190237       22.19757598208594        5.22763952769866
H           -1.18453679954972       23.08962988246796        4.62560510927472
H           -1.90369975129175       21.45401772997458        4.66384946982800
H           -0.35409473024988       21.76987702091511        5.45973233161602
C           -3.80436574250483       23.96346779099168       12.72092452546489
H           -3.39946575901252       24.91454366824236       13.05992829260855
H           -2.95920706223801       23.25185093010355       12.69359389593701
H           -4.53235238565859       23.59286625384356       13.44375975219277
C           -6.32981093299404       25.62318648288868       13.02553926595317
H           -7.36405035885911       25.45292721260233       13.34627348475965
C           -5.57022685947877       26.11545563664638       14.00277661230458
H           -4.55413378885617       26.41743161145751       13.83664348075013
H           -5.95546838770356       26.21462783688687       15.00776117848495
C          -10.00021363889594       27.65026538245134        9.64288739773946
H           -9.21339153456362       28.33339173810519        9.95003854118959
H          -10.24688009869426       26.96229340976560       10.44968954422291
H          -10.89134091093644       28.25742067237225        9.44577607741385
C          -10.80159713737610       27.01635606972073        6.48224770162285
H          -10.70692593410990       26.76346512609240        5.43087934438152
C          -11.84414404378054       27.69118695134261        6.95953575660034
H          -11.90156681490198       27.94009846523542        8.00060380145084
H          -12.67682770075014       28.00947082940243        6.35233109913576
C           -8.45622044050099       24.23180505050919        2.49775585033731
H           -7.98498198501599       24.91830343014630        1.79258245414162
H           -9.50905785132398       24.55876952881719        2.60987184457810
H           -8.47320540585524       23.22221512990631        2.08621854688974
C           -5.67210529048412       23.19270910243673        2.03862603534108
H           -5.75642202051061       24.09241329497392        1.42696140619905
H           -6.42192848771526       22.46259300299865        1.72974440800655
H           -4.68122149708165       22.74636536043228        1.82681328343711
O           -6.93943156576639       22.56996654686727        7.85939707357078
H           -7.83066808085000       22.69102664107595        8.18872084600827
H           -6.62881978512788       21.67480544401640        7.72291613358995
C           -3.31313793430258       26.67495996331705        6.90735148706088
H           -2.79830647871422       27.47799139808251        7.42595992076243
H           -3.26409803541853       26.83919940229198        5.83612781965804
H           -2.87621401120836       25.71531880602053        7.15808676629764
S           -5.07079968425525       26.67763923943919        7.38294249151959
H           -4.83125364502620       26.50653679941137        8.68564190151785
72
 energy: -105.943418063118 gnorm: 0.051099324251 xtb: 6.7.1 (edcfbbe)
Fe          -5.95775577256824       24.47397002151297        7.51651051894860
N           -4.18689997125352       23.53500775229216        7.25375012346424
N           -6.31246207297545       24.27449561516100        5.58949191732999
N           -7.74678816998639       25.37848024835669        7.77185364604894
N           -5.64037004665474       24.58984131583731        9.49597686970657
C           -3.34413122707862       23.13461005764808        8.24081807647627
C           -2.12823654995490       22.57081214214312        7.66725406594255
C           -2.26569635273072       22.63869803758304        6.32233520439971
C           -3.57425089636888       23.22834301595375        6.07872171500970
C           -5.47339232259794       23.78870979206233        4.63871003338493
C           -6.14958643538660       23.67993520232391        3.37742698102167
C           -7.43301174991184       24.12455297624652        3.59195394796656
C           -7.50321052700391       24.50016341311368        4.97336586456572
C           -8.67092421979928       25.61904830919270        6.81300620051346
C           -9.71061224543215       26.51500480848721        7.29875382439687
C           -9.37504440016828       26.79125757275249        8.60101069701571
C           -8.16000754535574       26.05166517720594        8.87995878739658
C           -6.39367291645999       25.25824079059801       10.41454716643384
C           -5.81539578130307       25.12995140085667       11.73553067757658
C           -4.69162550634494       24.33620982181164       11.56787449267816
C           -4.60967504410026       24.01553924042479       10.17435700082898
C           -3.57684769215639       23.28066479831311        9.59885575349653
H           -2.88009144238562       22.80934725507763       10.27694356220031
C           -4.15452230205124       23.39895779985856        4.83533885673736
H           -3.56815882430152       23.17278168173146        3.95573395946943
C           -8.62313836884282       25.08866889407481        5.53515701164629
H           -9.50188077709126       25.16971125395494        4.91277251673384
C           -7.53325850208126       25.99300706374457       10.11814518635108
H           -7.97333798943566       26.54925140413257       10.93214665421302
C           -1.00705730820011       22.11505891516977        8.52506922905089
H           -1.38313503034004       21.33452764306764        9.18783652912099
H           -0.67905756533024       22.96389371317020        9.12790422498924
H           -0.12833982778865       21.71823213535023        7.99570623618875
C           -1.36957505237313       22.21265388884353        5.21549232965284
H           -1.17134462605686       23.07778537778382        4.58044781753192
H           -1.88699717134016       21.45478646555197        4.62497392268655
H           -0.39973557362586       21.79174221823528        5.52095576318194
C           -3.82293288280112       23.97413808679040       12.72265019649353
H           -3.36579673194234       24.89402379559947       13.09187515018590
H           -3.00301883822200       23.24319987664617       12.59436978274710
H           -4.49646626848350       23.59856390731962       13.50100032196369
C           -6.31721048978008       25.59839048256419       13.01688059262377
H           -7.36612024279832       25.42194180721063       13.27700542141645
C           -5.57271020712844       26.11177823677248       13.99399901705485
H           -4.54990884126211       26.40759845466428       13.84781451544317
H           -5.97524267953239       26.26862118278419       14.98626704721055
C           -9.97131819351321       27.64101789592277        9.66569750241679
H           -9.21087330094618       28.34522988486460        9.99888916059192
H          -10.24661364578944       26.98701265975727       10.49468296290716
H          -10.85688335048328       28.22692552288802        9.40468032845757
C          -10.79978907720994       27.00110913502564        6.49380502014223
H          -10.72752323679290       26.76866851835284        5.43525944526143
C          -11.85117149622964       27.68273882718774        6.94572700856600
H          -11.94064190598879       27.92955667515256        7.98636163861898
H          -12.66197975004254       28.01318975790422        6.32094624047923
C           -8.42643116234740       24.21800774009758        2.48870940625967
H           -8.01006532892057       24.90474334970659        1.74459038064330
H           -9.45898645528146       24.55522791941521        2.70026220253524
H           -8.49565880104727       23.22578568953245        2.03233891922074
C           -5.69675278882237       23.21319599931853        2.03960435091014
H           -5.75775129278632       24.07677910346553        1.36810654073531
H           -6.41250279092484       22.46439796437499        1.68808772769228
H           -4.68838036062336       22.77419981452004        1.92540576547369
O           -6.93719783768065       22.57905172952457        7.86040106367222
H           -7.83632618288215       22.65768042746617        8.19054277632878
H           -6.64558546738892       21.67294516206450        7.72940827629992
C           -3.30051637064133       26.67426780847872        6.90247440925203
H           -2.79581031368597       27.48143249876465        7.42155904972805
H           -3.26219332702137       26.83469351720541        5.83161958917459
H           -2.87007259788821       25.71345414909512        7.15500227424819
S           -5.06580378818071       26.68397030348896        7.37581332919342
H           -4.82853618809444       26.54685489644990        8.68547522169501
72
 energy: -105.955472057812 gnorm: 0.039184903071 xtb: 6.7.1 (edcfbbe)
Fe          -5.96398053933347       24.46876220671153        7.51723805766501
N           -4.19155926377733       23.54607914499189        7.26329283262034
N           -6.32086802722326       24.26199676317404        5.58892019695049
N           -7.73529724769176       25.38760737445249        7.76861120833875
N           -5.64081957146063       24.58028790882598        9.49858189552523
C           -3.34763623229884       23.14281501902709        8.24720497655141
C           -2.13613818424627       22.57398217859240        7.67627618416959
C           -2.27515305607376       22.64978888235713        6.32725300052302
C           -3.58222605975925       23.23871488536971        6.08887944449140
C           -5.47702069779420       23.78262282885362        4.63733548752902
C           -6.15221077398752       23.68746680924133        3.37106513024828
C           -7.43321336101345       24.12294152858914        3.58482115743656
C           -7.51026913114051       24.49490330440188        4.97145130913196
C           -8.66666980347395       25.62478600966487        6.81677030930443
C           -9.71124010117904       26.50848744944690        7.31912940351934
C           -9.36368124799868       26.78518708582907        8.62038072575716
C           -8.14677329207959       26.05263486964650        8.88161832764323
C           -6.39346931222929       25.25026302128532       10.41412240733878
C           -5.81194957965941       25.12674087468618       11.73020107792921
C           -4.68946061765642       24.33958437248977       11.57413718091686
C           -4.60731482274366       24.01381787202462       10.18019260205769
C           -3.56903203894199       23.29240052616154        9.60366993890316
H           -2.85111536852116       22.85115665848297       10.28099145399596
C           -4.16224171125314       23.39143093568177        4.84405659623257
H           -3.58266743100374       23.13276974406523        3.96867428551532
C           -8.61974310744914       25.10031286156430        5.53658906712692
H           -9.48761132676016       25.21105317512159        4.90297337592484
C           -7.52838110919901       25.98727397827989       10.12058071495125
H           -7.97522981843060       26.53083657231389       10.93973101852664
C           -1.01464675196704       22.11180523388963        8.53302633043008
H           -1.35535612840772       21.32346581305407        9.20832961411873
H           -0.65563924185531       22.94211307685474        9.14801686639109
H           -0.16778371437851       21.72589842507052        7.95813167565642
C           -1.38335618979321       22.22303369732508        5.21644970142489
H           -1.16243446078627       23.06950472019407        4.56183116785760
H           -1.87472402657959       21.45730689108447        4.61158095627530
H           -0.43366112828600       21.81154920037507        5.56989016530955
C           -3.81883069804896       23.96769861366460       12.71786588828407
H           -3.31444755547207       24.86166138929489       13.09808554288929
H           -3.03753408511096       23.22089753121760       12.51456329973957
H           -4.45448601378137       23.59679698067140       13.53041105496778
C           -6.32303766367544       25.58857999065990       13.00500066243078
H           -7.37972750465773       25.40539248371360       13.21363352461205
C           -5.59468590095007       26.12466663514782       13.98185994240017
H           -4.55892270445508       26.39316823229479       13.85498120699308
H           -6.01027636226867       26.32405708233917       14.95993077403715
C           -9.95134019549906       27.63808571077875        9.68697236087661
H           -9.20464458730726       28.34995648215136       10.03923203146056
H          -10.24888373015992       27.01002379807109       10.53121791639679
H          -10.82367158675332       28.21033152097511        9.37651697339978
C          -10.80285425111392       26.99058444282126        6.50804095215743
H          -10.73275467633729       26.76919883216316        5.44962469135101
C          -11.86592405407606       27.67095348761756        6.93394832053768
H          -11.99864951747212       27.91507458306299        7.97328778009974
H          -12.64713883666258       28.01123891929170        6.27573520725108
C           -8.42164356768072       24.21171262512672        2.48419420130966
H           -8.04073227909993       24.89667067279613        1.71825059207216
H           -9.42622047191490       24.55138832376037        2.76499374414002
H           -8.52389672481712       23.23169080542064        2.00722074102419
C           -5.69726081854245       23.22583413614559        2.03793429955408
H           -5.74303788381448       24.06390285015763        1.33325387613299
H           -6.38871489371871       22.46368349485668        1.66365199387607
H           -4.68581467385703       22.80302256514208        1.99638544746430
O           -6.94492670673981       22.57371003397344        7.86569784688037
H           -7.84779051625647       22.61956569067291        8.19475826018761
H           -6.66491354270961       21.66470498893155        7.73676615332823
C           -3.28931272753540       26.67365989449502        6.89498943451965
H           -2.78735008949017       27.48557994747604        7.40944108971691
H           -3.25345218805649       26.82634472093232        5.82281270963949
H           -2.85861997261710       25.71383266873771        7.15289371597369
S           -5.05792466724679       26.68898849414460        7.36466182270495
H           -4.82400387566784       26.61195947211371        8.68318009730208
72
 energy: -105.961781106695 gnorm: 0.026752485505 xtb: 6.7.1 (edcfbbe)
Fe          -5.96653912211311       24.46658353613872        7.52031613864046
N           -4.20057984945376       23.55297575227479        7.27428588258977
N           -6.33025087406126       24.25528362406623        5.58647102439252
N           -7.72489021200233       25.39141504175550        7.76706769749549
N           -5.63475711085426       24.57440519244809        9.50134122418327
C           -3.34892382299239       23.15445605075263        8.25444221251677
C           -2.14451200511359       22.58170846197214        7.68344409965965
C           -2.28911622473395       22.65784891477691        6.33265818707551
C           -3.59586509728232       23.24157565307267        6.09867103028364
C           -5.48452060809610       23.77502776404799        4.63525070288542
C           -6.15771915298784       23.69574649346410        3.36372531316338
C           -7.43409222714331       24.12784797205246        3.57516286796960
C           -7.51662877411709       24.49940321426056        4.96604255249905
C           -8.66244182999229       25.63226217363680        6.82034878004109
C           -9.70975719531457       26.50478442778997        7.33925907466754
C           -9.35285052868329       26.77700908050432        8.63865692590503
C           -8.13481868140179       26.04835572457121        8.88589185677641
C           -6.39073512265645       25.24034244113727       10.41563491251662
C           -5.80967076463020       25.11765359226710       11.72964428420146