78
 energy: -116.058074717313 gnorm: 0.000062770901 xtb: 6.7.1 (edcfbbe)
Fe          27.91697696803805       91.67085604693627       52.59875279150172
N           28.88011438144784       93.32799849374661       51.97985017940000
N           29.06669701017661       91.61168339137767       54.22767042414611
N           26.91183765528910       90.06823454029772       53.22503803704554
N           26.72816461486298       91.78126596925013       50.97775373765388
C           28.67312831654743       94.01645056196915       50.82461597058498
C           29.59907322245957       95.12061506434084       50.71506788361467
C           30.37708409019434       95.08045962648410       51.83072671023005
C           29.91645925582809       93.95135113473684       52.60622124928710
C           30.06207964469683       92.47661439914823       54.56417789318830
C           30.68113002503728       92.09014580498379       55.80686498615174
C           30.03961517293625       90.95213485181306       56.21690552088010
C           29.02564372376045       90.68218410335629       55.21454215640939
C           27.16174453464551       89.34281391216479       54.34740213215700
C           26.24268018283491       88.23771371846254       54.46082564993120
C           25.42004224537567       88.30890645872270       53.36897572138638
C           25.85975942645488       89.46773885780838       52.61427220199784
C           25.71681250155995       90.93214703976918       50.65055288073331
C           25.12718931236632       91.30312054304102       49.38418237104886
C           25.81294921286699       92.39458132788759       48.94873123269886
C           26.81121966303785       92.67590483204451       49.95551631312936
C           27.71149463931476       93.72150601377386       49.87583264435477
H           27.66457123244331       94.35324317861911       49.00225531410033
C           30.46567661113326       93.56897238976066       53.81444606863805
H           31.28438860348358       94.16050220348473       54.19519379559731
C           28.15625984573436       89.61134202206443       55.26976952922330
H           28.25428136160756       88.93309531361042       56.10353129318831
C           25.29934005805503       89.85588834301541       51.41095039913727
H           24.48234190676220       89.26530267301817       51.02537499683973
C           31.49149440681429       95.98229678791316       52.23862130181320
H           31.65135498726195       96.76005005080341       51.49596432016595
H           32.41933111386554       95.42081400382872       52.35204337065350
H           31.26823711312211       96.46031912443935       53.19279076233882
C           29.63513060834017       96.07767383179079       49.57321582154360
H           28.68255677079879       96.59987257050982       49.47938231435107
H           29.82436455623718       95.55082995519658       48.63766808779394
H           30.41845848785697       96.81848312789984       49.71354228725067
C           31.75275460320224       92.85293679059107       56.50519467868672
H           31.59032481855150       93.92503451955305       56.40465245027595
H           32.73476913806412       92.61948677816881       56.08953682633501
H           31.75993815187911       92.60020037632754       57.56342273280421
C           30.25445379340711       90.16190961523809       57.40863099227163
H           29.36858222974119       89.70308969399274       57.83173964205640
C           31.42777645491230       89.95951300527254       57.99949814911383
H           32.34688340546591       90.35039135990081       57.59886099644510
H           31.51223231416029       89.36909427085772       58.89678365159293
C           26.18625412390455       87.28317382005409       55.60174639023373
H           26.36649875799954       87.79931106642739       56.54341425130121
H           26.94130027654906       86.50254429517867       55.49443492839372
H           25.20684436177937       86.81125079143020       55.64573108112410
C           24.30844039507999       87.45966778720731       53.00193890320701
H           23.48536608239856       87.95606982385240       52.50066341968559
C           24.23153363325039       86.15136084653034       53.22339006397544
H           25.03737312012193       85.59866927719666       53.67399414557913
H           23.36364889898002       85.58108962764884       52.93607852027097
C           23.99041838163266       90.58330203145520       48.74360405745363
H           23.11434181358425       90.59536503228476       49.39259376066571
H           24.25408558459982       89.54280490168152       48.55245561018017
H           23.72176296152582       91.04760972167227       47.79792165738397
C           25.62928369077928       93.18951145761709       47.70157490736196
H           24.81704264384818       92.78615865010424       47.10194004237170
H           26.53911456135137       93.17508326741721       47.10104790435157
H           25.39747362956297       94.22841556832812       47.93814667490923
O           26.42466057758379       93.08771438769918       53.61291370698342
H           26.89997872223005       93.91966077065958       53.51291898617878
H           25.71973589777016       93.08319302880261       52.95626153517998
C           30.31568279664178       87.79035685882565       49.39653009050545
H           30.94925445083480       87.04697662720861       49.88016326101992
H           30.81150418392417       88.11830860265277       48.48293714925386
H           29.37181436129330       87.32398620709003       49.13240289971126
N           31.07600392307480       89.71928976952276       50.80108271738010
H           32.05807289583064       89.59974874029788       50.61443302620692
C           30.06541981178939       88.93940619781348       50.30290764227438
C           30.51402173319674       90.66694190167414       51.58477354863213
H           31.06729560717406       91.41987697883881       52.10722484958161
N           29.21003497076048       90.53466063189975       51.61264837091360
C           28.91586110869730       89.46427511375994       50.82001084953800
H           27.90447766963420       89.14544753918010       50.67556657844179
