78
 energy: -115.975669932671 gnorm: 0.260149677070 xtb: 6.7.1 (edcfbbe)
Fe          28.02300000000000       91.60699999999999       52.50500000000000
N           28.81800000000000       93.42200000000000       52.02499999999999
N           29.08500000000000       91.62900000000000       54.23499999999999
N           26.90000000000000       90.06699999999999       53.20700000000000
N           26.72800000000000       91.78200000000000       50.94199999999999
C           28.57800000000000       94.14699999999999       50.87800000000000
C           29.44500000000000       95.30000000000000       50.83499999999999
C           30.21600000000000       95.26200000000000       51.94799999999999
C           29.83200000000000       94.08299999999998       52.68900000000000
C           30.07000000000000       92.52099999999999       54.60000000000000
C           30.71700000000000       92.07299999999999       55.81200000000000
C           30.12300000000000       90.90600000000001       56.17300000000000
C           29.09500000000000       90.63799999999999       55.19600000000000
C           27.18000000000000       89.31399999999999       54.33100000000000
C           26.15700000000000       88.30700000000000       54.50400000000000
C           25.28800000000000       88.43500000000000       53.46599999999999
C           25.81700000000000       89.46400000000000       52.60000000000000
C           25.71900000000000       90.90800000000000       50.59000000000000
C           25.27300000000000       91.19600000000000       49.24500000000000
C           25.95200000000000       92.29200000000000       48.82600000000000
C           26.80600000000000       92.70299999999999       49.91600000000000
C           27.65100000000000       93.80699999999999       49.89700000000000
H           27.58100000000000       94.46800000000000       49.03299999999999
C           30.41200000000000       93.66500000000001       53.88500000000000
H           31.20400000000000       94.29000000000001       54.29699999999999
C           28.20600000000000       89.56600000000000       55.23899999999999
H           28.32400000000000       88.85899999999999       56.06000000000000
C           25.27800000000000       89.84099999999999       51.37100000000000
H           24.44300000000000       89.25300000000000       50.98899999999999
C           31.28400000000000       96.27899999999998       52.38300000000000
H           31.34900000000000       97.09399999999998       51.63000000000000
H           32.27200000000000       95.77699999999999       52.45700000000000
H           31.00700000000000       96.71699999999998       53.36500000000000
C           29.44000000000000       96.35899999999999       49.73699999999999
H           28.41700000000000       96.45000000000000       49.31399999999999
H           30.14000000000000       96.06299999999999       48.92700000000000
H           29.74299999999999       97.33999999999999       50.16099999999999
C           31.85400000000000       92.78700000000001       56.53799999999999
H           31.87900000000000       93.85400000000000       56.22900000000000
H           32.82400000000000       92.31300000000000       56.27500000000000
H           31.69100000000000       92.73299999999999       57.63600000000000
C           30.40200000000000       90.09000000000000       57.28600000000000
H           29.59000000000000       89.45500000000000       57.66699999999999
C           31.66400000000000       89.99100000000000       58.00100000000000
H           32.53100000000000       90.59099999999999       57.68900000000000
H           31.76600000000000       89.31500000000000       58.86200000000000
C           26.07200000000000       87.35500000000000       55.68999999999999
H           26.49900000000000       87.84599999999999       56.59100000000000
H           26.65200000000000       86.43300000000001       55.47299999999999
H           25.01000000000000       87.09699999999998       55.88900000000000
C           24.06300000000000       87.77700000000000       53.27500000000000
H           23.23900000000000       88.34600000000000       52.82000000000000
C           23.76700000000000       86.40400000000000       53.62100000000000
H           24.53600000000000       85.76600000000001       54.08100000000000
H           22.76899999999999       85.98200000000000       53.42900000000000
C           24.26500000000000       90.37800000000000       48.42800000000000
H           23.23300000000000       90.63599999999998       48.74700000000000
H           24.43500000000000       89.29399999999998       48.60000000000000
H           24.37800000000000       90.61400000000000       47.34800000000000
C           25.85000000000000       92.95699999999998       47.44000000000000
H           24.82999999999999       92.80099999999999       47.02799999999999
H           26.59100000000000       92.50100000000000       46.74900000000000
H           26.03900000000000       94.04800000000000       47.53200000000000
O           26.73100000000000       92.78200000000000       53.49400000000000
H           27.01700000000000       93.68099999999998       53.33400000000000
H           26.03300000000000       92.53100000000001       53.98399999999999
C           30.27300000000000       87.90000000000001       48.97800000000000
H           30.53800000000000       86.90899999999999       49.40400000000000
H           31.09500000000000       88.23699999999999       48.31099999999999
H           29.33000000000000       87.80200000000001       48.39900000000000
N           31.07999999999999       89.21200000000000       50.98300000000000
H           32.00200000000000       88.82599999999998       50.97200000000000
C           30.08599999999999       88.88699999999999       50.08700000000000
C           30.61900000000000       90.10399999999998       51.84400000000000
H           31.20000000000000       90.53200000000000       52.66000000000000
N           29.36200000000000       90.37000000000000       51.53699999999999
C           29.00400000000000       89.62200000000000       50.44299999999999
H           28.01000000000000       89.68300000000001       50.01899999999999
78
 energy: -116.028592836361 gnorm: 0.094931321968 xtb: 6.7.1 (edcfbbe)
Fe          28.00267617766659       91.61584276616699       52.52243058371376
N           28.85209275718657       93.40425869381670       52.00226478613456
N           29.10884145969547       91.61075359078751       54.22794516694191
N           26.92414705052985       90.03651843883030       53.18950385152958
N           26.73368880392069       91.77524801689857       50.92948491811832
C           28.58641361493988       94.13852669445384       50.87654588389000
C           29.43925305113407       95.30599061629279       50.83472384821702
C           30.21687221959413       95.26732510461802       51.95208579460557
C           29.83787968424731       94.07599330330125       52.68076291610252
C           30.07618147062598       92.51223936095791       54.59188354058927
C           30.72929748406984       92.07970905264044       55.80448793625195
C           30.13698749673139       90.90020198539186       56.17850817921751
C           29.09908629741290       90.63810255696245       55.19179011306602
C           27.17553652536109       89.32163633808409       54.33321431827606
C           26.16762264837257       88.30344447323341       54.51228371570005
C           25.29127533874707       88.41860526166693       53.46371417893887
C           25.80870688467545       89.48340735053020       52.61590042404693
C           25.74494040036568       90.89282783611790       50.57785283562223
C           25.27185557222410       91.19111848946875       49.24057812274773
C           25.94662377359899       92.29696368101671       48.82175176416983
C           26.82786138694564       92.68186512310436       49.90505016708763
C           27.65889586629451       93.79482807222263       49.89930525685427
H           27.58436956740902       94.45619274733633       49.04245569834836
C           30.40618238304651       93.66092873546205       53.87874454465054
H           31.19313985060756       94.28538649854815       54.28800011271265
C           28.20839076446465       89.57325603494493       55.23141774153558
H           28.32202293801227       88.87072654472799       56.04998659701211
C           25.28607106512952       89.84980482649929       51.37879698793544
H           24.45503585381019       89.26309094125388       50.99824419781444
C           31.27036881182033       96.26522980709164       52.37923251528049
H           31.34679630773581       97.07455827374078       51.64528345767775
H           32.25157983729443       95.78347810157301       52.45878546518116
H           31.01344045669810       96.70382479079873       53.35032634966097
C           29.43544297224893       96.34881377488398       49.74700038275520
H           28.43327980012332       96.45171170132028       49.31919824416024
H           30.12725290580762       96.06983237210952       48.94255976115851
H           29.73855857125723       97.32115720018592       50.14936070542301
C           31.84235834108191       92.79166928181013       56.52441944900450
H           31.88107339100713       93.84536438621325       56.23411415492273
H           32.80675943263543       92.32941980943791       56.27870501262901
H           31.69268970217668       92.73109106003496       57.60948650468426
C           30.43248577828438       90.08132870825862       57.31050316406423
H           29.62252477591803       89.44920132190873       57.67248317645540
C           31.62040990102945       89.99958915423652       57.98279348864568
H           32.49224727794766       90.56768523731537       57.68262542502875
H           31.73886143071379       89.33327262910622       58.83015613608438
C           26.07661961861885       87.36756522562926       55.68508874855257
H           26.49248486146105       87.83670864511295       56.58252068714478
H           26.64099890142189       86.44932912073179       55.48069811390967
H           25.03135240999678       87.10214998155294       55.88075446865060
C           24.05263654438696       87.73403477073849       53.26980205934927
H           23.24601597803857       88.31100812518086       52.81526246062071
C           23.77400382396883       86.44523782180678       53.61646743156425
H           24.52420405881401       85.79765389216232       54.05554732907621
H           22.79538162532748       86.01460519999711       53.43298819941641
C           24.27284386061302       90.38525841705254       48.44361007906825
H           23.24774519813112       90.62986475738455       48.74704643657447
H           24.43207869233359       89.31270795408611       48.59682445385697
H           24.37677772584491       90.60633724450851       47.37597883914411
C           25.84813302415324       92.95447896602008       47.46121408433275
H           24.84817629082903       92.80734155994435       47.03932446614849
H           26.57813731013960       92.51344132452243       46.77002303358167
H           26.03792668930432       94.02962180626112       47.53049253593991
O           26.71754150579391       92.80731844328422       53.50341838573323
H           26.98637011183575       93.71446875131676       53.35774394580751
H           25.97871233489488       92.55213882470751       54.02315693554181
C           30.27729440592585       87.89943066882866       48.98253544370547
H           30.53752837708181       86.91618520419085       49.39122719313623
H           31.08258805739874       88.22464344903004       48.31381109536623
H           29.35084465913510       87.80580638268783       48.40957151982305
N           31.08127583629702       89.20398491565011       50.97351518764645
H           32.00891951450001       88.81671795659064       50.96654555983984
C           30.08795682331170       88.88331547007967       50.08409752130234
C           30.60091522912825       90.11101940349259       51.83782154660583
H           31.17504066234343       90.53282422533221       52.64647639216719
N           29.34780234683607       90.39108306288558       51.54382725125898
C           29.01051812581606       89.63094549421756       50.45515531193900
H           28.02509731571836       89.68675218965161       50.03170570854863
78
 energy: -116.040378280049 gnorm: 0.037742437587 xtb: 6.7.1 (edcfbbe)
Fe          27.98837890046842       91.62345324106180       52.53665449175107
N           28.87718185467875       93.38328097982809       51.98430099100749
N           29.12314112367007       91.59842064408083       54.21910450846336
N           26.93439244326615       90.03245986981578       53.18773035504149
N           26.75334492668727       91.75953523550535       50.91709209026789
C           28.60298720729042       94.11676794637471       50.86965899224339
C           29.43376250241707       95.30302199529487       50.83479909315433
C           30.21465961422374       95.26358210054676       51.95283813848400
C           29.84849283569565       94.05683985460497       52.66542326534000
C           30.08610537981761       92.49692191756280       54.57473737829839
C           30.73661043529018       92.07910712276998       55.79229137930673
C           30.14319664269575       90.89739294995771       56.17192679668242
C           29.11040072922561       90.63356188978106       55.17602093935466
C           27.17944468767486       89.32903536475860       54.32858311121360
C           26.17475064728679       88.31140440054047       54.51692271530003
C           25.29951344167473       88.42274284324166       53.46325646155437
C           25.81961103433128       89.49454517461916       52.62292484357372
C           25.77394645994558       90.87833699362146       50.57105418026129
C           25.28098099973025       91.18149771072426       49.24062949114935
C           25.95089132138274       92.29288882465464       48.82202560400668
C           26.85421715810711       92.65630005540866       49.89727415900163
C           27.67681726878560       93.77224642048670       49.89521178114093
H           27.59353090726949       94.43781816627302       49.04688902363993
C           30.41045558106565       93.64641966277598       53.86347867308098
H           31.18299617861863       94.27975275053798       54.27796339061000
C           28.22010688519521       89.57375038339794       55.21705712229345
H           28.32078208720764       88.88312482008712       56.04309171860351
C           25.30485930078587       89.85241218704675       51.38285800556925
H           24.46707932261945       89.27592604790169       51.01145047783452
C           31.25497546426576       96.24826565909056       52.37902170932625
H           31.33633732501299       97.05475565676296       51.65413570652869
H           32.23159853185173       95.77252279453164       52.46126612174611
H           31.00910067566722       96.68373216465649       53.34746003123941
C           29.42823428034920       96.33825774820299       49.75756816263377
H           28.43647826533227       96.44750573006910       49.32637550631932
H           30.11714873372370       96.06501931594593       48.95706124441841
H           29.73547085940285       97.30557090791871       50.14957252724560
C           31.83125914350593       92.79685849726258       56.50701570968341
H           31.87154409062926       93.84564484446848       56.22852296153691
H           32.79782859640797       92.34801780575366       56.27199707377410
H           31.68445838302578       92.72924533487503       57.58474343627712
C           30.44302205286599       90.07303079117918       57.31766866218489
H           29.62774984657430       89.44636081995422       57.66367808552712
C           31.59086972960271       89.99476680146249       57.96113054219627
H           32.46629530884736       90.54948044693364       57.67567771484470
H           31.71287342097562       89.34854580342073       58.81480429131021
C           26.08240393627254       87.38177494340984       55.67907350847650
H           26.49188766129660       87.83755834330259       56.57707628848460
H           26.63726542294377       86.46289342631900       55.48300742729015
H           25.04422176314621       87.11485751502438       55.86899022389112
C           24.05380034593177       87.71747908596681       53.25830329152022
H           23.26483112457399       88.30096086575782       52.79254828152917
C           23.78970756556718       86.47099450043899       53.59592689190996
H           24.52388316470798       85.81801390341616       54.03443476824263
H           22.81354230753097       86.04005143529471       53.44169131685682
C           24.28070172857456       90.38863491408763       48.46313684104288
H           23.26088214158787       90.62973974177299       48.76467550660066
H           24.43379659212054       89.32161554453616       48.60921620601503
H           24.37745477645884       90.60277607124351       47.40095126305108
C           25.84730348993589       92.95454599323007       47.48536674401846
H           24.85621811730798       92.81152730067413       47.06009054050736
H           26.57430346432277       92.52255701378580       46.79464316405364
H           26.03919760996443       94.02195687634610       47.54799733981453
O           26.68531068576799       92.84000135791904       53.52803127867531
H           26.91869150422369       93.76346937054834       53.40855450749041
H           25.93094251170478       92.59278996895812       54.05794083537594
C           30.27789823620559       87.90060335988727       48.98767237817786
H           30.53774049337077       86.92138816499966       49.38750493738892
H           31.07593737765343       88.21923049030666       48.31839109833305
H           29.36031905117191       87.80945514710267       48.41648227713111
N           31.07846913477866       89.20419866526456       50.97148648915031
H           32.00901375589557       88.81769007372830       50.97065568420503
C           30.08579978348974       88.88369851366754       50.08458816834204
C           30.58330582210044       90.12178563502015       51.83253682705128
H           31.15033281430464       90.54307458396907       52.63690007815181
N           29.33435275077862       90.40448174739082       51.54596039868640
C           29.01209676759428       89.63892628062234       50.46123478729009
H           28.03250551356777       89.68714049025937       50.03498198622471
78
 energy: -116.045048208738 gnorm: 0.022711656452 xtb: 6.7.1 (edcfbbe)
Fe          27.97676188490080       91.63592024889505       52.54594808531277
N           28.89738216788370       93.36089398101888       51.96748944480479
N           29.13518292145939       91.58752422156147       54.20240049840690
N           26.94886667157197       90.03333875044544       53.18336453486597
N           26.77421336434153       91.74721924448411       50.91197232137814
C           28.62024053416500       94.09502359934261       50.85836633232447
C           29.43527848683159       95.29189557847772       50.83121193936601
C           30.21520358452027       95.25185683469284       51.94849152138145
C           29.85939311127162       94.03754073297850       52.65123360143696
C           30.09743435354849       92.48283014855731       54.55604712859229
C           30.74377132659506       92.07083801478522       55.77644268133468
C           30.14730403117374       90.89166231066444       56.15581898658549
C           29.12044247829975       90.62728836089585       55.15905155160852
C           27.18669388144711       89.33378426469656       54.32442282125854
C           26.18110509923096       88.31850765925360       54.51379555480168
C           25.31238532958153       88.43058499669229       53.45621852849393
C           25.83448586734009       89.50096557432940       52.62178402048340
C           25.79665152021120       90.86837546845749       50.56871527288796
C           25.29498599591317       91.17203540857969       49.24365135601778
C           25.96309304181613       92.28275481914916       48.82400520530527
C           26.87889517782693       92.63585011336141       49.89056180448659
C           27.69876506041956       93.75059294680860       49.88331980028187
H           27.61202018916928       94.41669868901340       49.03749724909288
C           30.41990499391468       93.63277153345787       53.84888690592115
H           31.18382657506215       94.27247017624438       54.26678332568419
C           28.22755302682269       89.57316828017460       55.20990957114191
H           28.32311696296410       88.88831402654975       56.03971769362632
C           25.31918127145413       89.85361001737705       51.38392001483742
H           24.47642474219067       89.28312908046446       51.01894369321332
C           31.24721550723676       96.23367786095737       52.38383775144897
H           31.32986183852849       97.04291801889464       51.66350851404851
H           32.22251916461632       95.75655046988385       52.46758221861270
H           30.99958193161682       96.66221143793351       53.35442499660694
C           29.42212547763860       96.32966900527978       49.76134911374844
H           28.43013135484436       96.44168858502267       49.33282539500926
H           30.10888026940795       96.05851154383973       48.95887536388931
H           29.73218993326757       97.29481517841826       50.15461598987090
C           31.82526341484717       92.80254135426296       56.49196473100280
H           31.85228785820444       93.85288856794843       56.21798465267766
H           32.79958958008128       92.37025933606527       56.25892855974537
H           31.67589686776401       92.72839041361109       57.56790409171902
C           30.43125494658498       90.06689332415010       57.30957865615203
H           29.60947684431678       89.44518994369531       57.64734168939324
C           31.58302398316966       89.99416453981237       57.96623573615245
H           32.46568084395464       90.53054568726651       57.66977176674698
H           31.70296144474616       89.34619252429225       58.81785650774022
C           26.08597457875026       87.39346567645698       55.67609223784039
H           26.49182203204487       87.84734437674155       56.57642677609515
H           26.63999375602789       86.47366692703807       55.48443491563246
H           25.04724508721169       87.12765256953945       55.85963582411016
C           24.06409657624418       87.72566963424198       53.23947588812134
H           23.28526088421473       88.31048118363799       52.76040162119953
C           23.79414165596133       86.47697797011323       53.59843105335027
H           24.53242677575790       85.81988261735299       54.02190884422811
H           22.82301242314474       86.04123046820359       53.43382700491374
C           24.28356749665943       90.38506879937518       48.48225998515125
H           23.26866913783393       90.63114800612698       48.79456958778195
H           24.43293094267046       89.31809459620374       48.62889776244196
H           24.37059760821699       90.59625964771453       47.41928518773081
C           25.84920669823363       92.95815546637631       47.50068189948267
H           24.85694325687075       92.81800145285048       47.07941451876079
H           26.57548200076525       92.53547351437655       46.80408981926311
H           26.04049115139328       94.02445474044391       47.57364191864995
O           26.64380434019296       92.87422345286873       53.55899188682038
H           26.84164219961078       93.81194173233132       53.46493201672590
H           25.88426932380554       92.63086151567997       54.09010678960529
C           30.27668259881319       87.90484114633135       48.99450228064034
H           30.53785968427036       86.92575199646474       49.39272130527326
H           31.07422211356817       88.22171578787420       48.32429103294987
H           29.36099999487218       87.81256305850859       48.42170210290737
N           31.07081947405268       89.21476419583396       50.97668341858049
H           32.00254044241090       88.83034701550785       50.98104679790720
C           30.07991106920273       88.88935225967725       50.08911351350114
C           30.56735674452696       90.13597960788836       51.83273944412637
H           31.12940570742825       90.56279599821677       52.63606051239838
N           29.31953883890933       90.41412424568908       51.54539395892346
C           29.00476950363074       89.64417496043399       50.46294280279306
H           28.02781098995074       89.68498250715670       50.03174011259630
78
 energy: -116.048665125702 gnorm: 0.018716127926 xtb: 6.7.1 (edcfbbe)
Fe          27.97824232449204       91.64058048470636       52.54370632696190
N           28.90458944503384       93.33781599794061       51.95806263958018
N           29.13836317495405       91.58063117138757       54.18441947072475
N           26.96007234806165       90.04712476656059       53.18439214448751
N           26.79440248342620       91.73917641856133       50.91647463490050
C           28.63229382147113       94.07171907948079       50.85063285518000
C           29.43713568867470       95.27417921406699       50.82727366787710
C           30.21367263113728       95.23428329901820       51.94422203871256
C           29.86291228163382       94.01608560454572       52.63993889550762
C           30.10573915544672       92.46874212440237       54.53660201568754
C           30.75382654787527       92.05898621478400       55.75596182884048
C           30.15407649660629       90.88346504253964       56.13482883287133
C           29.12701819459334       90.62356977135691       55.14260514040538
C           27.19274274601070       89.34359702500372       54.32257041906779
C           26.18964759986687       88.32567882041131       54.50869209472233
C           25.32801043480944       88.43971206248129       53.44772119069583
C           25.84859430816487       89.51346823500816       52.62359131969732
C           25.81713956570167       90.86263826615475       50.57307491367554
C           25.31192674186875       91.16158759034434       49.25110423757128
C           25.98063870003514       92.26860366847005       48.82846244642457
C           26.90150655049587       92.61708402528689       49.88879155165277
C           27.72216206187813       93.72754906185803       49.86923712854492
H           27.64302208297174       94.38625462931570       49.01840543102350
C           30.42963561730757       93.61744574287316       53.83346383728689
H           31.19175633228372       94.25910325532256       54.24864578682205
C           28.23401041499334       89.57278999012705       55.20553039196076
H           28.32916005856182       88.88973620672027       56.03507681835440
C           25.33123841652969       89.85695712409668       51.38754743476064
H           24.48848317831501       89.28757017173146       51.02535213524850
C           31.23996162314924       96.21431221366076       52.39255798853026
H           31.32644062237427       97.02970253356652       51.67902274325325
H           32.21491826413936       95.73512847327432       52.47952304420045
H           30.98582183898026       96.63431770386542       53.36598179627897
C           29.41520606714398       96.31634227195075       49.76332721453628
H           28.41906046378875       96.43345287082876       49.34400768856251
H           30.09469862909528       96.04727597152983       48.95284105738516
H           29.73086925173174       97.27908057708264       50.15990422402756
C           31.82134722080780       92.80755947669910       56.47352000308352
H           31.82078575555176       93.86165875780428       56.20603837210992
H           32.80738581791975       92.40214023672351       56.23655092012297
H           31.67236507629049       92.72201315133312       57.54908388104244
C           30.42084681341277       90.05483919065735       57.29111426582590
H           29.58987384751935       89.44979005755832       57.63189315214180
C           31.57481053065185       89.97530325424323       57.95277414581465
H           32.45260391229728       90.52120040712069       57.66476082099991
H           31.67698226311242       89.34915932056612       58.82406126672067
C           26.09063258500921       87.40551114955751       55.67295615378672
H           26.49090788487871       87.86335967815415       56.57476945729472
H           26.64699764941267       86.48520680941121       55.48753050736511
H           25.04963573455875       87.14090624557383       55.84899121195205
C           24.08263178497735       87.73405326890625       53.21107487083498
H           23.31087276689578       88.31802412590829       52.72348045557791
C           23.81290787152349       86.48093285218010       53.56971482936029
H           24.54198488123800       85.83848712809755       54.02758474357746
H           22.83605068562859       86.05170924487810       53.41889366501613
C           24.28531342316946       90.37799945705230       48.50872895990755
H           23.27721967695173       90.63286116047162       48.83873206837531
H           24.42956233023438       89.31002764403786       48.65927781283331
H           24.35555308795780       90.58390630480896       47.44258208382391
C           25.85454409529909       92.96212568214226       47.51693460229987
H           24.85939551464766       92.82337377551238       47.10121917045382
H           26.58033122973278       92.55798641188525       46.80737631888548
H           26.03852160752634       94.02935121444484       47.60949217511876
O           26.60074342340533       92.91836304285221       53.59570433628706
H           26.74346867864017       93.87170820323806       53.53494287669015
H           25.83272999399509       92.68766332758155       54.12554744538456
C           30.27799446637864       87.90718037219294       49.00079637410997