72
 energy: -105.908507519541 gnorm: 0.230143186253 xtb: 6.7.1 (edcfbbe)
Fe          -6.07400000000000       24.78700000000000      271.86999999999995
N           -4.37700000000000       23.71800000000000      271.63499999999999
N           -5.79500000000000       24.80800000000000      273.86700000000002
N           -7.92800000000000       25.58900000000000      272.15800000000002
N           -6.53400000000000       24.47600000000000      269.92399999999998
C           -3.79400000000000       23.38900000000000      270.42200000000003
C           -2.48400000000000       22.81600000000000      270.67500000000001
C           -2.30500000000000       22.78200000000000      272.00799999999998
C           -3.48400000000000       23.35400000000000      272.62999999999994
C           -4.73100000000000       24.24800000000000      274.55199999999996
C           -4.86200000000000       24.59800000000000      275.94999999999999
C           -5.98300000000000       25.32800000000000      276.08800000000002
C           -6.57500000000000       25.49300000000000      274.77899999999994
C           -8.33700000000000       26.27199999999999      273.28199999999998
C           -9.55500000000000       27.00300000000000      272.98300000000000
C           -9.86800000000000       26.73900000000000      271.70099999999996
C           -8.85200000000000       25.85000000000000      271.16799999999995
C           -7.73500000000000       24.72700000000000      269.30599999999998
C           -7.63300000000000       24.29900000000000      267.92599999999999
C           -6.39300000000000       23.80500000000000      267.71499999999997
C           -5.68900000000000       23.91200000000000      268.97500000000002
C           -4.38200000000000       23.54900000000000      269.18799999999999
H           -3.76100000000000       23.37400000000000      268.31000000000000
C           -3.70600000000000       23.51600000000000      273.98399999999998
H           -3.01100000000000       23.02300000000000      274.66399999999999
C           -7.70100000000000       26.23100000000000      274.50199999999995
H           -8.12200000000000       26.82900000000000      275.31000000000000
C           -8.82400000000000       25.32500000000000      269.89600000000002
H           -9.74000000000000       25.38800000000000      269.30799999999999
C           -1.07800000000000       22.24300000000000      272.76200000000000
H           -0.20600000000000       22.21000000000000      272.07499999999999
H           -1.28500000000000       21.21600000000000      273.13099999999997
H           -0.83900000000000       22.91200000000000      273.61599999999999
C           -1.49300000000000       22.35300000000000      269.58499999999998
H           -0.83200000000000       23.20000000000000      269.30099999999999
H           -2.05300000000000       22.01700000000000      268.68700000000001
H           -0.86700000000000       21.52200000000000      269.97500000000002
C           -3.88200000000000       24.12200000000000      277.03199999999998
H           -3.05700000000000       24.85900000000000      277.13499999999999
H           -3.45300000000000       23.13900000000000      276.74299999999999
H           -4.41100000000000       24.03500000000000      278.00500000000000
C           -6.58700000000000       25.95600000000000      277.35199999999998
H           -7.67400000000000       26.11400000000000      277.41199999999998
C           -5.85300000000000       26.32700000000000      278.39900000000000
H           -4.76100000000000       26.19200000000000      278.39200000000000
H           -6.32900000000000       26.77300000000000      279.28500000000003
C          -10.26800000000000       27.88100000000000      274.03699999999998
H           -9.51000000000000       28.43100000000000      274.63499999999999
H          -10.86700000000000       27.23900000000000      274.71800000000002
H          -10.92900000000000       28.61500000000000      273.52900000000000
C          -11.05200000000000       27.22900000000000      270.84399999999999
H          -11.07700000000000       26.93500000000000      269.78500000000003
C          -12.07000000000000       27.98800000000000      271.26400000000001
H          -12.77900000000000       28.42000000000000      270.54199999999997
H          -12.21100000000000       28.18900000000000      272.33600000000001
C           -8.79500000000000       24.41100000000000      266.92200000000003
H           -9.09300000000000       25.47600000000000      266.81700000000001
H           -9.66600000000000       23.82800000000000      267.28899999999999
H           -8.47200000000000       24.02800000000000      265.93000000000001
C           -5.78500000000000       23.22100000000000      266.41000000000003
H           -5.30600000000000       24.03600000000000      265.82700000000000
H           -6.58800000000000       22.76200000000000      265.79500000000002
H           -5.01700000000000       22.45900000000000      266.66199999999998
O           -7.06400000000000       22.75100000000000      272.18599999999998
H           -7.30300000000000       22.71500000000000      273.11200000000002
H           -7.20500000000000       22.11400000000000      271.58099999999996
C           -3.52100000000000       26.91000000000000      271.18599999999998
H           -2.93600000000000       27.72200000000000      271.66799999999995
H           -3.45900000000000       27.04900000000000      270.08600000000001
H           -3.05100000000000       25.94100000000000      271.45600000000002
S           -5.23700000000000       26.93700000000000      271.71899999999999
H           -4.98000000000000       26.53500000000000      272.95499999999998
72
 energy: -105.951394429551 gnorm: 0.091376832458 xtb: 6.7.1 (edcfbbe)
Fe          -6.12554527865137       24.70883964949764      271.87324442820835
N           -4.36068416270003       23.74552202960783      271.63021185041117
N           -5.79071941841921       24.82014958838849      273.86595975102381
N           -7.92297437817378       25.62028117040331      272.14256060794190
N           -6.52659642860699       24.47753572439041      269.91575022055622
C           -3.78208651450132       23.40833041301863      270.43247321532135
C           -2.47748909710681       22.81982690443551      270.66950839185927
C           -2.30256806870063       22.77658922109986      272.01469299101643
C           -3.48972572670744       23.35497163422825      272.61849356363734
C           -4.74435452444523       24.25421199924850      274.55490454644632
C           -4.86375954765461       24.58341044712813      275.96129041161180
C           -5.98753816104204       25.34245778545723      276.10368953203749
C           -6.56485263528942       25.49108639187851      274.78125428497020
C           -8.33708158974887       26.28492919752720      273.26412913479618
C           -9.56726127284962       27.00470406722642      272.98825147533950
C           -9.90438559210786       26.72503807592323      271.69548233413417
C           -8.85934861788508       25.85254545527704      271.17406818675693
C           -7.72247021629943       24.71718230310351      269.30168793517214
C           -7.64458773680861       24.29247663750573      267.91660519158262
C           -6.39138024199808       23.81166270854788      267.70670114443681
C           -5.69184298521488       23.93474420074261      268.97083161643167
C           -4.37991070082510       23.55872928150693      269.19383692596909
H           -3.77321158910622       23.34401644307830      268.32033796502026
C           -3.71473177943217       23.52215821985482      273.97747297540127
H           -3.00544202643100       23.05255554641535      274.65193893466528
C           -7.69833972463641       26.23023733300999      274.49248053921542
H           -8.12634452801088       26.80873218616730      275.30298027001703
C           -8.81772402723723       25.32157532898795      269.89555412728663
H           -9.71899267254162       25.40607689033489      269.29827039580903
C           -1.09482989346664       22.25139297840951      272.75709537839060
H           -0.22786456189271       22.21354872491140      272.08992582662268
H           -1.28509795899353       21.23834134845373      273.12955309835559
H           -0.84785212715179       22.89871747038688      273.60400784558999
C           -1.50919086799150       22.36073513984205      269.59875213525390
H           -0.84785049988339       23.18618086925754      269.30795293997272
H           -2.04473158076237       22.02133390150452      268.70799432941413
H           -0.88776272468998       21.53890894860837      269.96768100092055
C           -3.89293978718340       24.12385303932253      277.02120766787885
H           -3.07219680972819       24.84415836405045      277.12910309689033
H           -3.46281761757130       23.15498890754455      276.75209596991118
H           -4.40235707801758       24.03221499840008      277.98501746942867
C           -6.56651157332237       25.94588245560565      277.33637843480375
H           -7.64506039172977       26.09716287081316      277.37359405978231
C           -5.84852432134358       26.31913829648053      278.38973388794659
H           -4.77207954087460       26.21172886433818      278.40072847161287
H           -6.31619272786916       26.76193218105537      279.26377480993682
C          -10.25153965132051       27.87074390637115      274.02520017612250
H           -9.51431444819847       28.41614477990804      274.62227397078016
H          -10.85310721160026       27.25020396026927      274.70018167312685
H          -10.90122226732592       28.60587575465932      273.54785374101601
C          -11.03945643458484       27.22046184330642      270.86449660591688
H          -11.02636283732307       26.94939735793042      269.80907533692624
C          -12.05944300294222       27.97570134602259      271.26790259601501
H          -12.77463286308474       28.38132918184572      270.55878862926193
H          -12.21946392817036       28.20519030711593      272.31133016812691
C           -8.78437640081675       24.40870239408033      266.93192992493988
H           -9.08633152060299       25.45609950572242      266.82183213864101
H           -9.64981345288312       23.83568348874995      267.28144735470858
H           -8.48029825394712       24.03328604825404      265.95097163203366
C           -5.79617547810632       23.23401646573128      266.43355965367175
H           -5.31817398863196       24.02475907706978      265.84354071624847
H           -6.57364558175176       22.77228722869905      265.81697743000922
H           -5.04117078223277       22.47628090924877      266.66451422135174
O           -7.06278268564035       22.76085304879167      272.20471887198727
H           -7.31601774619509       22.69103333189081      273.12200813599094
H           -7.21996098055229       22.08003038191877      271.57642795795374
C           -3.50035412687022       26.90639121473659      271.18233281390661
H           -2.94549811626281       27.72016994382349      271.66214178525354
H           -3.46472667416040       27.04240705560733      270.09817127302227
H           -3.04888730635064       25.94630828262215      271.44443950636185
S           -5.22899207945637       26.92008635000661      271.71070456360269
H           -4.96344287538477       26.58576064264223      272.97191975323653
72
 energy: -105.963900399310 gnorm: 0.023804147618 xtb: 6.7.1 (edcfbbe)
Fe          -6.13855715708316       24.69921452909767      271.86709321046516
N           -4.36413726930120       23.75417096457084      271.62798729057545
N           -5.80426911200847       24.80455855135683      273.86494450623178
N           -7.92129599079035       25.62311000928718      272.13036127118932
N           -6.52654832367694       24.46323185305065      269.92209109682744
C           -3.78190720360700       23.42470152304664      270.44320480114743
C           -2.48014768208540       22.83021248131616      270.66847317322686
C           -2.31006590358920       22.77893732939619      272.02097627094730
C           -3.50247777373558       23.36183748129755      272.60901138907997
C           -4.76302574171943       24.24908314994532      274.55219960641733
C           -4.86466547822499       24.56976303495249      275.95917177805183
C           -5.98703498125100       25.35109843850360      276.10556316581494
C           -6.56203264974433       25.47828832757774      274.77794733627235
C           -8.33150718147497       26.28393268763418      273.24679325542303
C           -9.56368117541913       27.00156924010414      272.99128446541715
C           -9.92017135640557       26.71406441371851      271.69305173509417
C           -8.86095553395701       25.84726855344111      271.17907984797887
C           -7.71407807238152       24.70424513306651      269.30779930903913
C           -7.65198192199244       24.28942768695422      267.91827299314468
C           -6.38881384891962       23.82194294682399      267.70849854233774
C           -5.69741487704695       23.94677003990801      268.97754498878783
C           -4.38399314405369       23.56191215941508      269.20242606744426
H           -3.79204741294059       23.30283977251917      268.33335771851569
C           -3.72109251718155       23.53448566049554      273.96904508090938
H           -2.99052003894680       23.09645056258410      274.63723705370148
C           -7.69518443829083       26.22141671202759      274.48002209874829
H           -8.13393564544677       26.78099244373218      275.29317505540723
C           -8.80890417122260       25.32282559096013      269.89489735521255
H           -9.69189737655457       25.43720858198488      269.28116379574817
C           -1.11886233838999       22.26039748438042      272.75638138587118
H           -0.25550822952006       22.22035632301159      272.09740478467410
H           -1.29987572256539       21.25430853779421      273.13358061253916
H           -0.86852934608116       22.89751596463709      273.59994030942482
C           -1.52817495099107       22.37208092793194      269.61367515718803
H           -0.86592720575955       23.18551218281072      269.31559033654196
H           -2.05350639095557       22.02804208181337      268.72823674079109
H           -0.91087282151060       21.55450614909061      269.97609401279266
C           -3.90596866635142       24.12039534331015      277.00680396978754
H           -3.08889410982621       24.83454847622403      277.11585005746446
H           -3.47321752773563       23.15765480369788      276.75128788851526
H           -4.40647436756663       24.03083675041880      277.96690386274128
C           -6.54203761858861       25.93731091076784      277.30832805313605
H           -7.61664605583159       26.07737596630740      277.32371993301342
C           -5.84071919650194       26.31709844123140      278.37221415995572
H           -4.77145809024969       26.23248840472790      278.40674913349216
H           -6.31215397252726       26.74322996933966      279.24159175442384
C          -10.23073131720918       27.85865023447269      274.01269252090952
H           -9.49654913563461       28.38922383420515      274.61282381838834
H          -10.84156423215662       27.25223510317772      274.68217344048833
H          -10.86895410757320       28.60155248073776      273.55098404089858
C          -11.01460580925225       27.20840859943671      270.88800601620352
H          -10.96106218596525       26.95892135450763      269.83340688108751
C          -12.05070690541760       27.95087392369410      271.27438906002601
H          -12.76925266815495       28.32927737516784      270.56616002498919
H          -12.23162155962974       28.21551535093407      272.29738666369883
C           -8.77458819346731       24.40494126633762      266.94545003987309
H           -9.07718810210243       25.44426527766937      266.83334583167243
H           -9.64019425472122       23.83817775686355      267.28344940769409
H           -8.47879145038969       24.03338252616071      265.96968256968484
C           -5.80594515365727       23.25183602459523      266.45788137711014
H           -5.32536942231694       24.02870743214518      265.86342595372435
H           -6.57564072171753       22.79115341598081      265.84382013375188
H           -5.06135935841705       22.49288891711822      266.68203949659971
O           -7.05659017664173       22.78084779155546      272.22263474219943
H           -7.33645097438646       22.65116788059131      273.13024935239133
H           -7.22916649636800       22.08032256076096      271.59151844959820
C           -3.47588647281972       26.90172376627482      271.17234289772728
H           -2.94576734643915       27.71705887694321      271.65421929774544
H           -3.46199734646609       27.03591259269488      270.09755890033546
H           -3.03979909620353       25.94569476794886      271.43289187191448
S           -5.21752673056758       26.93454089148799      271.69635138423575
H           -4.95752019232084       26.66350142227521      272.98208941554213
72
 energy: -105.967653221595 gnorm: 0.022420257830 xtb: 6.7.1 (edcfbbe)
Fe          -6.15149527580182       24.68168084372476      271.86794414274738
N           -4.36855535529742       23.76660639262512      271.62633313244385
N           -5.80455807675346       24.80286036101121      273.85895810843044
N           -7.91757613947641       25.61796543965278      272.12400597252952
N           -6.52797952214934       24.46268754459352      269.92918442670054
C           -3.78759794213360       23.43407077492826      270.44516122866742
C           -2.48752560390765       22.84131903571292      270.67022145439489
C           -2.31834180009964       22.79114244177995      272.02231043972728
C           -3.50819163891937       23.37617440740052      272.60499968530911
C           -4.76524416195861       24.24888924266983      274.54414719175293
C           -4.85955145157073       24.56597181909864      275.94720693539210
C           -5.97927647868319       25.35118071846977      276.09519119427313
C           -6.55940705532445       25.47197312976492      274.77134407653443
C           -8.32443532476677       26.27450399111764      273.24244356045352
C           -9.55181053289073       26.99309395235205      272.99555059429969
C           -9.91191758735778       26.71261630998307      271.69641445080447
C           -8.85627087847886       25.84681370038205      271.17826936586448
C           -7.71289183412264       24.70553939288660      269.31443744568497
C           -7.65360080131783       24.29282689537004      267.92665030769928
C           -6.38976035221840       23.83004205585039      267.71681275241389
C           -5.70062228690409       23.94961624352001      268.98508811405685
C           -4.39102395165475       23.55531719795493      269.20524987181471
H           -3.80983572365744       23.26380143307801      268.33943165301565
C           -3.71659925744164       23.54873338500061      273.96282571926491
H           -2.96738468687015       23.13822377801509      274.62728648557982
C           -7.69437652287340       26.20892739475773      274.47623177830758
H           -8.14385658408668       26.75525571668243      275.29178325071206
C           -8.80404138651661       25.33353175018110      269.89168094852209
H           -9.67299377452709       25.47289862295766      269.26296685551057
C           -1.13650294959633       22.26863742653521      272.76383675587562
H           -0.27186382794681       22.22368145290437      272.10585064288188
H           -1.32500324921662       21.26416506808055      273.14475287422408
H           -0.88804345065669       22.90767233405920      273.60796149841252
C           -1.54028758175933       22.37874946989520      269.61817731614013
H           -0.87857986177405       23.19155526313302      269.31390080995482
H           -2.06997011584801       22.02939080132854      268.73612231643222
H           -0.92436384572159       21.56227861250392      269.98778159752050
C           -3.90942503159710       24.11233037073996      276.99664380789920
H           -3.09156475087384       24.82639571202381      277.10765862788384
H           -3.47836605201995       23.14640766560202      276.74480968823309
H           -4.41681974474388       24.02773580070786      277.95505688782981
C           -6.53102095290689       25.93224389442969      277.29376538612473
H           -7.60582496328803       26.07078839936026      277.29578391764159
C           -5.83843439899929       26.31363433089831      278.36392993821147
H           -4.76500630452818       26.25712604327570      278.40339727551185
H           -6.31998440844403       26.73597873121328      279.22903289222216
C          -10.20751434434148       27.85512904312737      274.01495607497901
H           -9.46223927827319       28.36178632015523      274.62504884457769
H          -10.83880945421854       27.25524486462765      274.67391719286189
H          -10.82462991632550       28.61752213508444      273.55201911197736
C          -10.99642253028427       27.20879224660753      270.89143883855206
H          -10.91787398845451       26.97015634522854      269.83587514219431
C          -12.05375721783810       27.92909719546362      271.26781334041198
H          -12.78044650331988       28.27406787143298      270.54971093143917
H          -12.26308470123454       28.19390045020416      272.28659515979081
C           -8.77510663626139       24.40355700420386      266.95546563530007
H           -9.07727720884299       25.44380359153540      266.84087060761232
H           -9.64195780187502       23.83700909368360      267.29432493187466
H           -8.47732874636410       24.02857772491052      265.98027276216817
C           -5.80930406798933       23.26301433086470      266.46846330713765
H           -5.32345547022959       24.03920808483843      265.87599149672786
H           -6.58537038076533       22.80880271499477      265.85623536198682
H           -5.07004715207522       22.49847755494481      266.69549813307674
O           -7.06572451298667       22.76405522347300      272.24450021807002
H           -7.36811970653949       22.59641743917328      273.14194387962050
H           -7.25409766671368       22.06433540160736      271.61505447167133
C           -3.45973736827842       26.89543556512949      271.16013294414785
H           -2.93622135487728       27.71915972051177      271.63417457343093
H           -3.45519378423072       27.01955698820385      270.08357440791480
H           -3.02135880027010       25.94251593882028      271.42794976598327
S           -5.20691598681639       26.92933555864406      271.68708210155216
H           -4.93622194291307       26.77800624431756      273.00649738903365
72
 energy: -105.969897678187 gnorm: 0.017145477940 xtb: 6.7.1 (edcfbbe)
Fe          -6.14644637382304       24.69065230413284      271.87031480747197
N           -4.37803930679987       23.77537511209900      271.62628270893140
N           -5.80523012099310       24.79767543943029      273.85151592769535
N           -7.90741285769450       25.61151728725399      272.11834448679383
N           -6.53036587342760       24.45831860672769      269.94318324835524
C           -3.79712958773123       23.43691370735752      270.44719205794047
C           -2.49669074446470       22.84966926725413      270.67265605103972
C           -2.32617395699649       22.80596878030924      272.02290433478862
C           -3.51321019259158       23.39159309791954      272.60214729806518
C           -4.76434209698686       24.24949740369237      274.53552172992465
C           -4.85437606683567       24.56258963437481      275.93518081724017
C           -5.97245955215693       25.34673786811785      276.08468263745135
C           -6.55819907255829       25.46190725843852      274.76509815487492
C           -8.31657602163286       26.26058354314008      273.24068887500329
C           -9.53686482970123       26.98423806137953      272.99845518818216
C           -9.89654300450756       26.71488529706777      271.69900733407081
C           -8.84605847750333       25.85026145164173      271.17601514807365
C           -7.71180953617178       24.70750908842848      269.32374958870759
C           -7.65412488605841       24.29762786859488      267.93765032968344
C           -6.39234305493190       23.83529123670008      267.72798495118508
C           -5.70546451387192       23.94583515629594      268.99589569882136
C           -4.40095601490092       23.54127628064493      269.20854237463976
H           -3.82974631540838       23.22640696193713      268.34731172432930
C           -3.70613048603624       23.56772010954113      273.95775538714480
H           -2.94120979628468       23.18360291369673      274.61791960909119
C           -7.69583970813511       26.19107183667112      274.47570197479058
H           -8.15610427119116       26.72519106924506      275.29246508785917
C           -8.79720218754625       25.34997090282508      269.88738834111166
H           -9.65135284407294       25.51142978323589      269.24522390471191
C           -1.15316784942832       22.28003643087838      272.77498358632749
H           -0.28407272607302       22.22391872608189      272.12287873024565
H           -1.35580578715912       21.27950659233489      273.16165949205566
H           -0.90729806331461       22.92293824198017      273.61817755956349
C           -1.55197674647012       22.38383101409645      269.62020425896895
H           -0.89449729891581       23.19744368194300      269.30683015398375
H           -2.08574624749214       22.02602109922352      268.74291159423115
H           -0.93306969637706       21.57174831846020      269.99609958230064
C           -3.91134999865917       24.10202120641128      276.98784167367450
H           -3.08890122584926       24.81107077170292      277.10360863078893
H           -3.48679693345956       23.13153291130825      276.73839095863457
H           -4.42764865658244       24.02254654707826      277.94316743022688
C           -6.52350678237110       25.93228094220836      277.28134478733205
H           -7.60007521436732       26.05667751379604      277.27964211979400
C           -5.83615419065634       26.32325828224014      278.35084168295742
H           -4.76323396021136       26.26746077868015      278.40256680484515
H           -6.32957116849066       26.72869547654760      279.21820302494336
C          -10.18696737276889       27.85435214740906      274.01401412701910
H           -9.43437305067745       28.33361808932984      274.64039206364447
H          -10.84541723715422       27.26598486871349      274.65915219041887
H          -10.77619300315140       28.63563348298933      273.54103878598488
C          -10.98354510731431       27.20500812405179      270.89330711379898
H          -10.87896555504278       26.99126103506570      269.83398208229124
C          -12.06615510923674       27.88772039971334      271.26888123431672
H          -12.78489490531717       28.22312091382142      270.54033194836251
H          -12.28937690032210       28.15362188707053      272.28560337046741
C           -8.77708998843522       24.40591139004415      266.96685708273657
H           -9.07936615884319       25.44648505225480      266.84688572163941
H           -9.64402549645971       23.84012536562152      267.30946958346624
H           -8.47928493177088       24.02532726283131      265.99272394430011
C           -5.81164442009733       23.27463851633036      266.47668158626664
H           -5.31707020716579       24.05226015829114      265.89254551231710
H           -6.59209248171673       22.83272743095195      265.85994194240368
H           -5.07972918832202       22.50156996796800      266.70186134691227
O           -7.06048697724478       22.74513556260240      272.26719349797821
H           -7.40755472853189       22.55190951632844      273.14526455065521
H           -7.29244792647586       22.05401181811495      271.63941312126906
C           -3.44319330339052       26.89188989978318      271.14623943962590
H           -2.91361831073183       27.71722904510089      271.60892348670058
H           -3.44534266820078       27.00366853201003      270.06743271225344
H           -3.00832396461065       25.93789761667896      271.42108491193000
S           -5.19360147568434       26.95191544291064      271.67764764140378
H           -4.92396523444174       26.86467061088912      273.00099915298574
72
 energy: -105.970979318232 gnorm: 0.016742750500 xtb: 6.7.1 (edcfbbe)
Fe          -6.14580159906101       24.68446498849649      271.87624739373024
N           -4.38150623924197       23.78328992697537      271.62682313045821
N           -5.79813156042181       24.80414302902381      273.84566293748554
N           -7.89812830267468       25.60766467291840      272.11739260319592
N           -6.53085693558836       24.45658674290359      269.95123805099934
C           -3.80245422904949       23.43560181975597      270.44758898981928
C           -2.50051913878376       22.85244782058091      270.67347148468662
C           -2.32553377070802       22.81976132163096      272.02202665776991
C           -3.50930117108564       23.40875505606297      272.60080504957085
C           -4.75560646690631       24.25924320643179      274.53029146814339
C           -4.84909420642648       24.56439400086247      275.93012491910764
C           -5.96893607929401       25.34163321115327      276.08138931542874
C           -6.55419108262425       25.46051285255243      274.76291160203465
C           -8.30996939219759       26.25375989937861      273.24208142473606
C           -9.52645506156766       26.98139969593782      272.99965231894976
C           -9.88169815294340       26.72235660826551      271.69946988552891
C           -8.83493749399165       25.85871727701584      271.17353079498554
C           -7.70983902132275       24.71330159784496      269.32778516142139
C           -7.65353401821808       24.30299547228255      267.94304476009495