78
 energy: -116.058077931845 gnorm: 0.000097959801 xtb: 6.7.1 (edcfbbe)
Fe         -39.77939804774561      -73.96251306806896       -1.13273025555210
N          -39.19903556144045      -75.64003893844048       -2.08291458389600
N          -41.48687544444911      -73.96290459768319       -2.20576375081248
N          -40.38996843541702      -72.33581076574806       -0.15567553760381
N          -38.11460506430891      -74.01112529183743       -0.04116978765983
C          -38.02635723302307      -76.30764353735732       -1.91596726518514
C          -37.95009836934355      -77.43925566475521       -2.81138991066814
C          -39.10613990637560      -77.43918412433464       -3.52909361878936
C          -39.87162025659703      -76.30465908426505       -3.06437433247234
C          -41.85394200364885      -74.85539671156405       -3.16943079491319
C          -43.11904632250932      -74.49116450169646       -3.74983058593333
C          -43.51185835212473      -73.33608414649382       -3.12421928213465
C          -42.47641138226371      -73.03231557286884       -2.15732734643043
C          -41.53421524790337      -71.63222073607395       -0.37320993829352
C          -41.61532723821709      -70.49705560382377        0.51210218454827
C          -40.48129645760962      -70.52663480901847        1.27821997804022
C          -39.73527078404608      -71.69193145770301        0.84130248936740
C          -37.75918546764362      -73.13981064701589        0.93733619545116
C          -36.46940063330722      -73.49040822227721        1.49376785216198
C          -36.05371217115693      -74.59590619653576        0.82200763139560
C          -37.09626620917417      -74.90530402454294       -0.13375287863728
C          -37.03932858767303      -75.97348606324252       -1.00766153207144
H          -36.15957847352649      -76.59777405058900       -0.97726115057534
C          -41.10958242346869      -75.95438903097745       -3.56778268177320
H          -41.51761228133571      -76.57327130827071       -4.35229276468678
C          -42.50060879024290      -71.93851464767259       -1.31421049209610
H          -43.34086506739975      -71.26650308702234       -1.39720225517476
C          -38.50434410530139      -72.05452800846014        1.35581479849634
H          -38.08949332869236      -71.44079838543210        2.14088140199231
C          -39.55916859881660      -78.38189655992080       -4.59122694305529
H          -38.81597117163177      -79.15658529564892       -4.76264735433084
H          -39.72552091449858      -77.85314485002426       -5.53034263780043
H          -40.49502219788761      -78.86276641473242       -4.30494453547678
C          -36.79854087416123      -78.38274041898288       -2.87706089261255
H          -36.64953586340147      -78.87293684910972       -1.91468036422912
H          -35.88147374565504      -77.85022922399618       -3.12979013775032
H          -36.96791537579038      -79.14964102389425       -3.62898478005689
C          -43.85342454410171      -75.28448517664604       -4.77421705309050
H          -43.72826594954560      -76.35205645815230       -4.59880481598725
H          -43.48704728325742      -75.06263517451799       -5.77818107039777
H          -44.91494569845807      -75.04808243637430       -4.73747451812219
C          -44.71437173830100      -72.55691153066563       -3.31744781344708
H          -45.10137218115134      -72.06627186282681       -2.43191615145929
C          -45.35449254655682      -72.39745008631030       -4.47136057719385
H          -44.99185390178615      -72.81991677058619       -5.39214803792998
H          -46.25605142220856      -71.81141630226156       -4.53851787415276
C          -42.76399089207654      -69.55338692046548        0.59433040318485
H          -43.70781845165343      -70.08423456207328        0.47884523724220
H          -42.70401978341893      -68.79698135192470       -0.19008770685199
H          -42.76440138183361      -69.04970427871680        1.55876926602132
C          -40.06856849549539      -69.63340508088329        2.33815197329304
H          -39.51972682272390      -70.09455208670848        3.15106824173853
C          -40.30227557175763      -68.32564729425225        2.37893154490141
H          -40.80050645214035      -67.80764174544689        1.57800033099270
H          -39.97785462560827      -67.72064842228450        3.20940411548174
C          -35.79548204746769      -72.74050377502449        2.59104733023006
H          -36.41385920200454      -72.74038907720035        3.48879462066479
H          -35.62306077448131      -71.70416593825246        2.29921968112909
H          -34.83688064044446      -73.19121656660695        2.83609584864414
C          -34.79938530930121      -75.38441199437271        0.98300778129140
H          -34.16939116045956      -74.95478380707742        1.75793691579397
H          -34.23409706761998      -75.40066736729031        0.05082589277450
H          -35.02709979882959      -76.41441552723509        1.25842108388759
O          -40.86985460317175      -75.34062114939501        0.34213262049142
H          -40.53196805089526      -76.19142696446707        0.04166687694495
H          -41.76986534308213      -75.25939711972363        0.00800469084478
C          -36.85889752692046      -70.06591455189951       -3.84520343880386
H          -37.41215685433393      -69.35287178266972       -4.45627257131304
H          -35.97483230534377      -70.37757197296089       -4.40135946245690
H          -36.54017781322811      -69.56945771518131       -2.93412139447221
N          -38.25396261071199      -72.05391708207411       -4.45607031001273
H          -38.14532372722738      -71.95196227285828       -5.45174200361346
C          -37.70667759970158      -71.23574923638776       -3.50274670861611
C          -38.96312284968006      -73.01083993211240       -3.81644642923297
H          -39.50136729081677      -73.79145583602525       -4.31292768538553
N          -38.89802884770922      -72.84862730327652       -2.51734887617628
C          -38.11934854577359      -71.74858441711486       -2.30641262115004
H          -37.91057990092960      -71.40204814960943       -1.31534147649885
