77
 energy: -118.916379359326 gnorm: 0.251797558925 xtb: 6.7.1 (edcfbbe)
Fe          34.91300000000000        4.06200000000000       10.04200000000000
N           36.82400000000000        3.83000000000000        9.49200000000000
N           34.63800000000000        5.32500000000000        8.51600000000000
N           33.03900000000000        4.32000000000000       10.62100000000000
N           35.24000000000000        2.81900000000000       11.60500000000000
C           37.78800000000000        3.01000000000000       10.07100000000000
C           39.00100000000000        3.05700000000000        9.30000000000000
C           38.79100000000000        3.88600000000000        8.26800000000000
C           37.45100000000000        4.37300000000000        8.37400000000000
C           35.56800000000000        5.64200000000000        7.54300000000000
C           34.92400000000000        6.49800000000000        6.59100000000000
C           33.65700000000000        6.69400000000000        6.97300000000000
C           33.46200000000000        5.94600000000000        8.20200000000000
C           32.11900000000000        5.22300000000000       10.11500000000000
C           31.00000000000000        5.35000000000000       11.00900000000000
C           31.20700000000000        4.54100000000000       12.04900000000000
C           32.47300000000000        3.87500000000000       11.83300000000000
C           34.35099999999999        2.55600000000000       12.62400000000000
C           35.02600000000000        1.77400000000000       13.62700000000000
C           36.27100000000000        1.59000000000000       13.23100000000000
C           36.43900000000000        2.23900000000000       11.94300000000000
C           37.61300000000000        2.25800000000000       11.21600000000000
H           38.44600000000000        1.64700000000000       11.56400000000000
C           36.88600000000000        5.25900000000000        7.45600000000000
H           37.50300000000000        5.65700000000000        6.65100000000000
C           32.27700000000000        5.90700000000000        8.90900000000000
H           31.41700000000000        6.44000000000000        8.50300000000000
C           33.03500000000000        2.95100000000000       12.69700000000000
H           32.40500000000000        2.51500000000000       13.47200000000000
C           39.79100000000000        4.26500000000000        7.15900000000000
H           40.75400000000000        3.73900000000000        7.33200000000000
H           39.97200000000000        5.36100000000000        7.17500000000000
H           39.38700000000000        3.96100000000000        6.17000000000000
C           40.27700000000000        2.26000000000000        9.62300000000000
H           40.00300000000000        1.31000000000000       10.12900000000000
H           40.92900000000000        2.85300000000000       10.29900000000000
H           40.82000000000000        2.02400000000000        8.68300000000000
C           35.65100000000000        7.06600000000000        5.33200000000000
H           36.30300000000000        6.28000000000000        4.89400000000000
H           36.27900000000000        7.93500000000000        5.62200000000000
H           34.90100000000000        7.37600000000000        4.57300000000000
C           32.56300000000000        7.52700000000000        6.29800000000000
H           31.55500000000000        7.12800000000000        6.11400000000000
C           32.87000000000000        8.79000000000000        5.92500000000000
H           33.87600000000000        9.19600000000000        6.10500000000000
H           32.11700000000000        9.42700000000000        5.43700000000000
C           29.79700000000000        6.28200000000000       10.73800000000000
H           28.89800000000000        5.67000000000000       10.50900000000000
H           30.01800000000000        6.93700000000000        9.86800000000000
H           29.59200000000000        6.90100000000000       11.63700000000000
C           30.34000000000000        4.27900000000000       13.30000000000000
H           30.64200000000000        3.49800000000000       14.01300000000000
C           29.20799999999999        4.96900000000000       13.57400000000000
H           28.85900000000000        5.76100000000000       12.89500000000000
H           28.62300000000000        4.74600000000000       14.47900000000000
C           34.32200000000000        1.29600000000000       14.92700000000000
H           33.45300000000000        0.65500000000000       14.66400000000000
H           33.95999999999999        2.17500000000000       15.50300000000000
H           35.03300000000000        0.70500000000000       15.54300000000000
C           37.40200000000000        0.82600000000000       13.99700000000000
H           37.38800000000000       -0.24600000000000       13.70600000000000
H           37.23300000000000        0.90400000000000       15.09200000000000
H           38.39100000000000        1.25800000000000       13.73400000000000
C           32.16000000000000       -0.04900000000000        7.23800000000000
H           32.32600000000000       -1.07600000000000        7.62700000000000
H           32.22900000000000       -0.06800000000000        6.12900000000000
H           31.15100000000000        0.29600000000000        7.55000000000000
N           34.56600000000000        0.69200000000000        7.58100000000000
H           34.94200000000000       -0.05000000000000        7.02600000000000
C           33.22100000000000        0.88700000000000        7.80300000000000
C           35.27000000000000        1.62100000000000        8.20400000000000
H           36.35500000000000        1.70400000000000        8.20200000000000
N           34.39400000000000        2.39900000000000        8.80800000000000
C           33.09600000000000        1.97600000000000        8.58800000000000
H           32.23700000000000        2.48500000000000        9.00500000000000
O           35.48200000000000        5.48600000000000       11.12400000000000
O           34.68900000000000        6.44800000000000       11.18900000000000
77
 energy: -118.969128658573 gnorm: 0.113774998522 xtb: 6.7.1 (edcfbbe)
Fe          34.93551212233869        4.10263837285104       10.07573392946550
N           36.84017014022451        3.82009046521262        9.47649699103595
N           34.63143316300742        5.30832230016907        8.49906906041617
N           33.02933449029721        4.33663337269268       10.65215890376706
N           35.24451714629643        2.81991537498151       11.61541593576150
C           37.78560258194612        3.00861821510933       10.06287346304249
C           39.01187309659398        3.04433934406128        9.30231029588172
C           38.80506845130878        3.88939857926987        8.26165996729666
C           37.45498404350296        4.37255817803873        8.37699794385961
C           35.55075579422938        5.65055848441720        7.54018087065248
C           34.92455331102690        6.51491074570204        6.57013052997210
C           33.63659367869607        6.69824655701326        6.95688340684203
C           33.46250446657621        5.93206743131022        8.18405321849182
C           32.12041834761098        5.22065012090982       10.12398163399515
C           30.98098876722363        5.35481284460471       11.00154411767816
C           31.18498742744055        4.52510870778662       12.06206543654540
C           32.46327976166590        3.87658802855885       11.82946286832276
C           34.35721756242982        2.53953514240627       12.61778854622219
C           35.01397318577263        1.75792423983142       13.64199628950962
C           36.28846241050587        1.57303214684021       13.24268326462388
C           36.43133732348090        2.23478678542914       11.95620204214291
C           37.59943968412900        2.26173315802515       11.21429579586023
H           38.43291860733809        1.66397369413721       11.56624837557316
C           36.87313319078680        5.25308210646035        7.47219891473813
H           37.48832865965942        5.64266728938999        6.66925288563263
C           32.28634080133165        5.89209390174061        8.91283240323627
H           31.43912447717499        6.44175937617122        8.51608703820899
C           33.03910322299289        2.95084026685036       12.68305360549196
H           32.42360762583706        2.54096083551079       13.47602295509901
C           39.78117333599015        4.26279508883021        7.16916794827398
H           40.73505997792338        3.75127291429838        7.32911130125711
H           39.96500711116819        5.34209900463398        7.17349813426775
H           39.39092028634418        3.97187966430242        6.18712817303745
C           40.26380219374541        2.26226171389768        9.62375000617674
H           40.01045987028198        1.32156012442989       10.12110267249564
H           40.91624392481305        2.84212696058633       10.28635061741307
H           40.81133661142115        2.03023223280859        8.70452817553786
C           35.63934428708161        7.05986589698333        5.34381688525653
H           36.28648126020027        6.29274210563061        4.90437653137569
H           36.26237959240716        7.91805531162542        5.61932902756720
H           34.90967668438898        7.37454318135164        4.59214716132034
C           32.58958564932798        7.53447217156172        6.30471255202306
H           31.59470480519943        7.12321027398135        6.13604032950505
C           32.87102854016815        8.77881033122926        5.92472716391492
H           33.85378533415462        9.19782553413350        6.10182561219897
H           32.12994048464623        9.41240502216236        5.44663337660104
C           29.80998808397104        6.27510148403890       10.73126436677155
H           28.91339093679903        5.68091047085104       10.51271720384137
H           30.01501721053133        6.92865049259827        9.88120196938082
H           29.61061126995758        6.90417565187346       11.60393531056688
C           30.34039263056481        4.29153794147233       13.27389052795956
H           30.65820936747801        3.51877408447663       13.97299280482523
C           29.22108520931664        4.95813131675176       13.56550043176972
H           28.84814398755759        5.73993377084045       12.92306497239487
H           28.64698517290215        4.74236184622413       14.46152890232141
C           34.32828036144039        1.29765071545421       14.91368090803178
H           33.46889363991900        0.66454310685360       14.66656583716916
H           33.97092529924888        2.15939617671542       15.48817313528978
H           35.01985675565254        0.71797779969417       15.53115307742965
C           37.39208349736795        0.83293775223489       13.98422805353809
H           37.38685320205187       -0.22750599866639       13.70647919427002
H           37.23506936458494        0.90689078101018       15.06453131895586
H           38.37102460448985        1.25415457660276       13.74089634754548
C           32.16870424794699       -0.04888081921240        7.23801762332911
H           32.32103008799820       -1.06517177938077        7.61767794637517
H           32.22297741203092       -0.07090145011912        6.14418832230307
H           31.17589255868534        0.29297222574871        7.54212762249241
N           34.55145003264970        0.67517998044352        7.57100104709841
H           34.93660277892668       -0.06810280334762        7.01442962705698
C           33.21429939109936        0.87089492162357        7.79514854708269
C           35.24272193917323        1.63006344608058        8.21030288756079
H           36.31757665996291        1.71121987485578        8.20819275852861
N           34.39740273090562        2.42664549568736        8.82793098663455
C           33.12147025361626        1.97515511239270        8.58581426259101
H           32.26780648153769        2.47993788015569        8.99833300148124
O           35.47657215032782        5.47950091623590       11.12582313914605
O           34.69118919061879        6.47086143188205       11.19128150867071
77
 energy: -118.985484330671 gnorm: 0.031411834641 xtb: 6.7.1 (edcfbbe)
Fe          34.95407973230817        4.14341720431094       10.10672194069500
N           36.85856533255606        3.82276675886861        9.47414444413617
N           34.62782893016418        5.29756573894305        8.48536728001776
N           33.01550206263645        4.34954709400865       10.68100951835243
N           35.24966915811888        2.82741847623781       11.62735363290079
C           37.78214601249923        3.01110884727167       10.05894472544405
C           39.01713212880459        3.03313049429924        9.30371880014509
C           38.81531346682804        3.88985507715149        8.26006501086040
C           37.45810299087796        4.37205728023311        8.38428359265985
C           35.53562738248280        5.65201652252601        7.53738188659223
C           34.92671328381471        6.52682641217155        6.55959338008182
C           33.62443771349287        6.69697903841533        6.94984274342824
C           33.46253350713882        5.91633859463878        8.16969468369081
C           32.12491673168442        5.22272557887095       10.13486354966102
C           30.96712860934838        5.35928052564604       10.99160981553380
C           31.16471877233148        4.51446295373559       12.06363871767189
C           32.45806344693701        3.88745728912395       11.82947524779245
C           34.36462822551641        2.53428871590368       12.61471167873219
C           35.00342724846833        1.74215268837799       13.64543858411665
C           36.29658172836780        1.56110335217255       13.24746370575604
C           36.42505926213326        2.23730586204926       11.96906515548439
C           37.58715634059994        2.27022762016838       11.21462583323035
H           38.42238606082724        1.68472215181892       11.57071922568937
C           36.85943667292657        5.24105715098698        7.48680644716047
H           37.47377902176493        5.62584141714965        6.68595884872249
C           32.29746073083366        5.88061530118306        8.92011555505294
H           31.46242993319662        6.44929106315496        8.53410888832340
C           33.04802518779732        2.96466159410778       12.67848154636371
H           32.44694988029250        2.57691234463160       13.48901551999451
C           39.77220886875649        4.26166824325943        7.18064222819635
H           40.72296604950299        3.75916725427426        7.32930802744086
H           39.95395867330235        5.33359711836833        7.17707242786713
H           39.38538436621548        3.98087867774745        6.20214795690918
C           40.25142697315971        2.26322114378213        9.62405382784040
H           40.01106407953350        1.32722811502466       10.11805461872414
H           40.90283367631079        2.83743629118263       10.28111897164408
H           40.80527328417337        2.03600990092071        8.71680038097749
C           35.62481800535414        7.05782089014289        5.35815768942262
H           36.26727474924620        6.29888601457480        4.91698847136075
H           36.25008302955766        7.90924694976453        5.62229014497033
H           34.90592804352902        7.37963280746667        4.61071916472010
C           32.61671784073693        7.53126293290232        6.31674484748471
H           31.62874387578996        7.10834953278242        6.17126805266429
C           32.87333511882380        8.77026316331959        5.92431318570106
H           33.84012878769180        9.20826019963818        6.09404303003606
H           32.13707152104210        9.39663773941556        5.45086654302039
C           29.82121338484833        6.26888735544432       10.72382002529955
H           28.92051141935195        5.68961993866228       10.51782562403764
H           30.01988727502535        6.91591669544899        9.87857001836652
H           29.63073525823268        6.90679036086922       11.58271067651973
C           30.34420422094565        4.29610273495713       13.23396798614836
H           30.68697691129347        3.53338555607141       13.92384437258255
C           29.22861668581476        4.94639986326902       13.55205895350431
H           28.82485905961844        5.72713389791955       12.94200719820322
H           28.67642000545353        4.73225313409611       14.45181782662841
C           34.33479805052318        1.29477555463686       14.89669352592292
H           33.47627185030438        0.66719958774970       14.66603735456269
H           33.98160620532595        2.14977524199238       15.46994665024706
H           35.01662999510091        0.72391914677777       15.51826950261434
C           37.37897726597227        0.84008296793400       13.97059449118792
H           37.38583130741675       -0.21569120809618       13.70068011379860
H           37.22979279474396        0.90910315151211       15.04460963733239
H           38.35368338945953        1.25678447103015       13.73965066432693
C           32.17181894688574       -0.04586528302890        7.23944055823496
H           32.31735153190001       -1.05815476273169        7.61093855389366
H           32.21982385233262       -0.07037361284221        6.15321247796414
H           31.18759235670572        0.29446636658143        7.53817325998852
N           34.54273241166173        0.66190209253510        7.56449112409774
H           34.93693965716969       -0.07922286133507        7.00742732797825
C           33.20798093603423        0.85916185214925        7.79092267058434
C           35.22084311336044        1.63207329865059        8.21433641819280
H           36.28794633885619        1.71433616739113        8.21110662339126
N           34.39818496401094        2.43561910313954        8.84076480245146
C           33.14093246385318        1.97078533789544        8.58477211386679
H           32.28761820565501        2.47169367403612        8.99179422815140
O           35.46823668384054        5.44906357052369       11.10976499633856
O           34.71096696082760        6.48037648403668       11.18094069631268
77
 energy: -118.988162442220 gnorm: 0.018793586026 xtb: 6.7.1 (edcfbbe)
Fe          34.96284087352397        4.15771677160353       10.11832331081783
N           36.86435780868521        3.82602090806680        9.47995549058752
N           34.62927085636766        5.28725174048626        8.48098485225950
N           33.01790890738364        4.36196728380990       10.69059333931572
N           35.25208874778131        2.84000772668836       11.63476989876558
C           37.78270146603489        3.01494527550408       10.06480122582896
C           39.01618873107012        3.02948387023678        9.30699353554460
C           38.81672954297120        3.88729450163055        8.26494999054669
C           37.46049914988588        4.37191268433863        8.39005342526388
C           35.53563823938721        5.64499490424169        7.53696979590005
C           34.93069567804616        6.52459367748273        6.56416775101654
C           33.62988534440520        6.69439479434474        6.95722968508727
C           33.46588799372407        5.90750001183700        8.16775679203232
C           32.12987131822251        5.22681044019673       10.13344209941253
C           30.96517136306804        5.36171263681504       10.97598323552413
C           31.15839226483716        4.51848915465688       12.05047084032170
C           32.45846430148777        3.89947811107868       11.83125282969660
C           34.36521946263953        2.54455914901793       12.61753114861661
C           34.99749378939767        1.73743810399026       13.63860419863109
C           36.29152058112994        1.55902638426786       13.24263398406512
C           36.42440213571692        2.24589847818324       11.97432468753153
C           37.58624609378272        2.28006161052070       11.22198926974822
H           38.42297827696975        1.70150915725008       11.58349262787648
C           36.85816220826826        5.23338458767774        7.49097980385214
H           37.47011135272838        5.61274634512407        6.68703606361533
C           32.30597346986433        5.88100600640396        8.92171235574736
H           31.47988118503320        6.46857728650906        8.54611064908710
C           33.05342567812374        2.98621034039632       12.68732806626790
H           32.46432687901095        2.62139117257341       13.51780934594655
C           39.76801129674533        4.26502652284036        7.18479715567894
H           40.72231037382637        3.76570992037538        7.32680526545210
H           39.94350340225530        5.33898500177504        7.18411343047524
H           39.37536761248304        3.98842194361152        6.20647924144876
C           40.24837466332323        2.25895800096018        9.62934683038804
H           40.00926800368138        1.32045729976649       10.12147301237626
H           40.89617095188834        2.83456372073848       10.29011390671958
H           40.80712425773115        2.03613381067323        8.72309709998032
C           35.61956095116390        7.06295593532717        5.36304387039314
H           36.25515159819255        6.30239538850199        4.91279194225975
H           36.24998528284204        7.91164546633670        5.62759363736332
H           34.89323419410690        7.39470720042501        4.62511739069162
C           32.62351738196374        7.52957799828100        6.33223323052699
H           31.63458704850681        7.10126541142962        6.21043115944198
C           32.87048794608950        8.76623867842602        5.91893827317215
H           33.83441941423970        9.21853968815225        6.07702034240455
H           32.12465680749705        9.38184186163951        5.44736447625904
C           29.82779303906610        6.27765988271247       10.70242562548089
H           28.91362030716168        5.70726748824784       10.52368467990735
H           30.02452577371058        6.90396416744172        9.83947306624212
H           29.66239394985133        6.94219467604055       11.54914259774895
C           30.34454271788082        4.29350296054428       13.21659534033638
H           30.71157494193082        3.53154307873212       13.89471776215379
C           29.21978759636254        4.92164700169105       13.55918949281973
H           28.77171219765085        5.69368168869107       12.96296417055302
H           28.69971327058385        4.69174580706961       14.47405494526840
C           34.33193058212404        1.28599596105533       14.88887813304803
H           33.47048589917627        0.65855476027294       14.66387077765055
H           33.98304901504401        2.14422657093579       15.46191284449335
H           35.01768989151307        0.71621377855189       15.50873822815004
C           37.37538242076590        0.83754516698387       13.96254675972089
H           37.38973768173573       -0.21815575779087       13.68799565332909
H           37.22322250381348        0.90247706781164       15.03730512595405
H           38.34872805165447        1.26249215579568       13.73493894171990
C           32.16662136110925       -0.04599596901061        7.23706458461639
H           32.30736015889311       -1.06159040326508        7.60473041182653
H           32.21349847216185       -0.06869206968670        6.14963679049615
H           31.18359178308476        0.29901483924112        7.53677826167451
N           34.54082767069077        0.65421600532109        7.56304803217183
H           34.93624686670874       -0.08527531768669        7.00451206827274
C           33.20507151316770        0.85396918708375        7.79143280794058
C           35.21693621310069        1.62392349539695        8.21519151109426
H           36.28284369214941        1.70832884340693        8.21043292309257
N           34.39758687564218        2.42650311999475        8.84384407985119
C           33.14237210817663        1.96348401891432        8.58784997131747
H           32.28753270803816        2.46309265958694        8.99253308931574
O           35.47886970984025        5.43620467919664       11.09467128606722
O           34.74168614112665        6.48545349252682       11.16082947374749
77
 energy: -118.989597070822 gnorm: 0.010167229402 xtb: 6.7.1 (edcfbbe)
Fe          34.97323331072050        4.16823699335588       10.12646704496992
N           36.86903933542780        3.82832093053184        9.48622413032928
N           34.63614516073460        5.27996622050321        8.48039001126440
N           33.02665695320855        4.37892011069530       10.69888804177590
N           35.25720938114405        2.86027733453146       11.64391573137753
C           37.78610860833571        3.01951207039203       10.07293542011830
C           39.01730333948018        3.02790131210668        9.31207235733894
C           38.81918671646901        3.88326270729475        8.27068706546869
C           37.46437573225894        4.36987040593184        8.39366897059297
C           35.54111725332048        5.63785302203344        7.53584159271036
C           34.93807841375993        6.52392919030633        6.57166786951996
C           33.64090373128291        6.69662795175214        6.96881219940070
C           33.47532008014947        5.90680096633768        8.17195450420767
C           32.13810545304838        5.23738960506826       10.13396454900922
C           30.96403968662325        5.36309745066630       10.96116466262129
C           31.15377690938925        4.52359061045668       12.03531249095292
C           32.46310043913088        3.91709918257146       11.83665708595480
C           34.36799532158091        2.56379808448690       12.62453780436050
C           34.99402517998172        1.73809745506383       13.63281809299886
C           36.28578159185687        1.56002851260484       13.23824108820968
C           36.42655841252644        2.25851285721820       11.98034011880347
C           37.58992818873843        2.29256575944969       11.23309683386018
H           38.42796919569972        1.72043747961667       11.60114945119629
C           36.86137533846371        5.22425849839990        7.49019032731284
H           37.47104590113648        5.59835951390278        6.68221198752661
C           32.31934227396811        5.89221815839573        8.92718679699422
H           31.50196863315202        6.49310770289273        8.55676025265571
C           33.06305774270342        3.01833840168875       12.70401316246442
H           32.48689783736204        2.67366865016090       13.55125972292002
C           39.76522451545993        4.26956988610019        7.18749352882340
H           40.72408526852653        3.77475339745571        7.32166484205524
H           39.93213540980504        5.34635107460816        7.19335540044780
H           39.36612599620438        3.99657596414756        6.20949523126304
C           40.24836041403449        2.25413212974681        9.63819918763776
H           40.00540274250392        1.31204958103171       10.12453899792374
H           40.89091895903629        2.82804692695379       10.30757803565649
H           40.81296102291621        2.03646445655038        8.73302863805754
C           35.61750375893678        7.07177933193054        5.36705198113556
H           36.24240461868717        6.31073217383980        4.89980903511677
H           36.25541428066141        7.91545170732676        5.63386412296922
H           34.87918280985265        7.41632543744072        4.64444162111610
C           32.62635806731915        7.52902709241903        6.35135918674657
H           31.63453788786901        7.09739841343543        6.26045568552464
C           32.86166188827183        8.76122983716229        5.91399791729214
H           33.82850633420856        9.22238287526356        6.03759193242055
H           32.10033366418313        9.36206210299701        5.44583647061327
C           29.82470020341560        6.27973366007487       10.69096477226022
H           28.90005655393659        5.71751820905846       10.54037395362006
H           30.01002484480100        6.88725476286143        9.80848944569620
H           29.68261803319229        6.95627222206612       11.53448052200181
C           30.33979483536028        4.28935410833394       13.19991810570846
H           30.72638498508108        3.53637197734354       13.87658613478787
C           29.20737117636908        4.89786747315582       13.54964262878142
H           28.73897850911346        5.66865448378935       12.96483722323197
H           28.71160653572467        4.64956907539011       14.47471117734124
C           34.32730510128653        1.27473599062440       14.88115700732397
H           33.46474298525495        0.64777489473205       14.65498682330513
H           33.98050872417728        2.13209353360029       15.45924637055962
H           35.01675599671546        0.70122183384919       15.49546958474982
C           37.37166524885556        0.83129328529358       13.95415101622463
H           37.39261888600485       -0.22191706519276       13.66712261384270
H           37.21573805912068        0.88574773613423       15.03009797849265
H           38.34295186256328        1.26686453740442       13.73098678442959
C           32.15615339569725       -0.04849153848820        7.23197279689160
H           32.29045952569808       -1.06795436319315        7.59526792699751
H           32.20331812168259       -0.06646920176062        6.14307114974242
H           31.17446456663459        0.30279642867239        7.53374836880595
N           34.53698745202356        0.64160265136545        7.56019283561092
H           34.93181501371702       -0.09604618716280        6.99946213370807
C           33.20007400376144        0.84460462637111        7.79086749656459
C           35.21412542386867        1.60697962485134        8.21477722818280