72
 energy: -105.639990393749 gnorm: 0.706080232302 xtb: 6.7.1 (edcfbbe)
Fe          48.34399999999999       46.28200000000000        8.77000000000000
N           47.66699999999999       44.40200000000000        8.97800000000000
N           50.24500000000000       45.49700000000000        9.27400000000000
N           49.04400000000000       48.13700000000000        9.29300000000000
N           46.45100000000000       47.00500000000000        8.99200000000000
C           46.35399999999999       44.02700000000000        8.68000000000000
C           46.26300000000000       42.59900000000000        8.74400000000000
C           47.47300000000000       42.09300000000000        8.97300000000000
C           48.39099999999999       43.23499999999999        9.05300000000000
C           50.60300000000000       44.18100000000000        9.21100000000000
C           52.08000000000000       44.11800000000000        9.19300000000000
C           52.53800000000000       45.36300000000000        9.25400000000000
C           51.36000000000000       46.25600000000000        9.27400000000000
C           50.36599999999999       48.49999999999999        9.41400000000000
C           50.46700000000000       49.93600000000000        9.46300000000000
C           49.22700000000000       50.40600000000000        9.53200000000000
C           48.31000000000000       49.25200000000000        9.51300000000000
C           46.09600000000000       48.33600000000000        9.01800000000000
C           44.66800000000000       48.44000000000000        8.82500000000000
C           44.20300000000000       47.20500000000000        8.66100000000000
C           45.31400000000000       46.27600000000000        8.78700000000000
C           45.28599999999999       44.91600000000000        8.63200000000000
H           44.30600000000000       44.47600000000000        8.44800000000000
C           49.77300000000000       43.07800000000000        9.17500000000000
H           50.20000000000000       42.07800000000000        9.24200000000000
C           51.41900000000000       47.62600000000000        9.31400000000000
H           52.41300000000000       48.07000000000000        9.26000000000000
C           46.93500000000000       49.38200000000000        9.32500000000000
H           46.49700000000000       50.37500000000000        9.42800000000000
C           47.92800000000000       40.63300000000000        8.98400000000000
H           48.57800000000000       40.44000000000000        8.10400000000000
H           47.04299999999999       39.96400000000000        8.93200000000000
H           48.50600000000000       40.42700000000000        9.91000000000000
C           44.92100000000000       41.81900000000000        8.64200000000000
H           44.27500000000000       42.29100000000000        7.87100000000000
H           44.39500000000000       41.84800000000000        9.62000000000000
H           45.12000000000000       40.76600000000000        8.34900000000000
C           52.85100000000000       42.80700000000000        9.12400000000000
H           52.25100000000000       42.05300000000000        8.57100000000000
H           53.04399999999999       42.43100000000000       10.15100000000000
H           53.81300000000000       42.96500000000000        8.59000000000000
C           53.95199999999999       45.93700000000000        9.14600000000000
H           54.05800000000000       47.01800000000000        8.97700000000000
C           55.05800000000000       45.26400000000000        9.23500000000000
H           55.03800000000000       44.17699999999999        9.40300000000000
H           56.02900000000000       45.77199999999999        9.14300000000000
C           51.80000000000000       50.74400000000000        9.46500000000000
H           52.28300000000000       50.66500000000000        8.46800000000000
H           52.48900000000000       50.33000000000000       10.23200000000000
H           51.59000000000000       51.81400000000000        9.68000000000000
C           48.72600000000000       51.87200000000000        9.57100000000000
H           48.62800000000000       52.49100000000000        8.66900000000000
C           48.41400000000000       52.35900000000000       10.76500000000000
H           48.51400000000000       51.73600000000000       11.66600000000000
H           48.05100000000000       53.39200000000000       10.86900000000000
C           43.92699999999999       49.79799999999999        8.74900000000000
H           44.44199999999999       50.46100000000000        8.02200000000000
H           43.93300000000000       50.28499999999999        9.74800000000000
H           42.88100000000000       49.63600000000000        8.41100000000000
C           42.74100000000000       46.74800000000000        8.46900000000000
H           42.54900000000000       46.56200000000000        7.39100000000000
H           42.05000000000000       47.54100000000000        8.82600000000000
H           42.56400000000000       45.80800000000000        9.03400000000000
O           48.42900000000000       46.26600000000000       10.11800000000000
H           48.60200000000000       45.35600000000000       10.36100000000000
H           48.34399999999999       46.95200000000000       10.67700000000000
C           48.12499999999999       45.20000000000000        5.61700000000000
H           48.06700000000000       44.22500000000000        6.14600000000000
H           48.83300000000000       45.08900000000000        4.76800000000000
H           47.11500000000000       45.43500000000000        5.21900000000000
S           48.67700000000000       46.50700000000000        6.71800000000000
H           49.72700000000000       45.83900000000000        7.17300000000000
72
 energy: -105.791155794913 gnorm: 0.343082942899 xtb: 6.7.1 (edcfbbe)
Fe          48.32857574964262       46.29950208980755        8.75210142668618
N           47.66731251908664       44.39369484998647        8.93962967599012
N           50.25371438176551       45.49189544485532        9.22197872298065
N           49.04769074322281       48.15021803849526        9.28036030056916
N           46.45699812325364       47.01072604153661        8.96302128163658
C           46.35304052895525       44.02602917371284        8.70238843178014
C           46.24373024348836       42.59432097646513        8.74156841938332
C           47.48260040065010       42.08797159404794        8.96130751502144
C           48.38344735145133       43.22905234548338        9.04993120938201
C           50.62284424908999       44.17966308622503        9.20092019280674
C           52.08697534494764       44.10753996159703        9.19350073069612
C           52.55420371668708       45.38015980134463        9.24102002203983
C           51.37372291315319       46.25093442933074        9.26445888441780
C           50.36427704218092       48.50840536475379        9.38298084000415
C           50.47829676540215       49.94579318691753        9.46578399617933
C           49.21335665491750       50.42677512057252        9.52490299360917
C           48.31568648078703       49.27440731427729        9.46963447420074
C           46.09363941024419       48.33163592107046        9.02446104177750
C           44.66361152066448       48.45140237424391        8.82123900692335
C           44.18704414563039       47.19618029879383        8.66656004995392
C           45.31940646204612       46.28556914616993        8.76785905199242
C           45.28503966439327       44.91526638071803        8.63168402530070
H           44.31000465613131       44.47598041631641        8.45011537854451
C           49.76997650743295       43.09088824557882        9.17724540601918
H           50.19153644901492       42.09294933326420        9.23914870018879
C           51.42633652300436       47.62619793770133        9.30947551203164
H           52.41142406116707       48.07097970562040        9.26934589900067
C           46.93674247924201       49.38210181272892        9.32135371912960
H           46.50100575563641       50.36930647305203        9.42616640065276
C           47.92692795847706       40.64341770286241        8.98568447150552
H           48.57031741112968       40.44210468671157        8.11575618647562
H           47.05736912273033       39.97381521582407        8.93577557472434
H           48.49803898369100       40.42753260044996        9.89945260387168
C           44.92990025452228       41.82674968927942        8.63833190621670
H           44.28227129998212       42.28496183651300        7.87957802263089
H           44.40465005865591       41.84733092019812        9.60544012908432
H           45.11673702536211       40.78221712118140        8.35395445621583
C           52.84567749789087       42.80977454102648        9.12305461401715
H           52.25890694352548       42.05916741245144        8.57759471263372
H           53.04435410940257       42.43412432657043       10.13779046572906
H           53.79692544759104       42.95751428174895        8.59510419958538
C           53.93508119950861       45.93640124397111        9.14764540602567
H           54.03757011644256       47.00898181886048        8.97825263401665
C           55.06176122249883       45.25543379260755        9.23830715457053
H           55.05427720336728       44.18566383243959        9.40786895782936
H           56.02198489437805       45.75857734560185        9.14386927082777
C           51.78721178949294       50.73473587900007        9.46521823956659
H           52.27449652541700       50.66379805263243        8.48108549775100
H           52.47749998245756       50.33564143638932       10.22247899444109
H           51.58963132054772       51.79513452391497        9.67844745097404
C           48.73086497912698       51.85669378303547        9.58382523401347
H           48.63729177475640       52.46506153909115        8.67952241929529
C           48.41239326373321       52.35880333683189       10.76610684228157
H           48.50978898799789       51.74984352244167       11.66152068144036
H           48.05392346016455       53.38102375733008       10.87245027472044
C           43.93296732698179       49.78548538143426        8.74937803274748
H           44.43594662666866       50.44992733453388        8.03214277160714
H           43.93241869155983       50.27651743825920        9.73427946165646
H           42.89621081863926       49.63758623553299        8.41797734682505
C           42.74966558985277       46.75000460252360        8.46961448725731
H           42.55168169651021       46.56355296028946        7.40384648474746
H           42.05951527815444       47.52846667576429        8.82192330998535
H           42.56468178423176       45.82204551596545        9.02732600405059
O           48.39428299874104       46.24451804403815       10.23464324909103
H           48.59790514210493       45.33570826351110       10.43956967885914
H           48.32656481553940       46.97078396819972       10.80266140427627
C           48.12128845629904       45.18073539478046        5.59977293749647
H           48.06532258666974       44.23175092394380        6.14566263086074
H           48.82507943823366       45.08560672183270        4.76619987199498
H           47.12444006089198       45.43479242007842        5.22141437790117
S           48.69902652427776       46.51323242804148        6.66920035707513
H           49.73890848850429       45.83923462763859        7.14012788422561
72
 energy: -105.874304009484 gnorm: 0.156714117845 xtb: 6.7.1 (edcfbbe)
Fe          48.31063228033807       46.32404935795190        8.75484630681343
N           47.66061041780873       44.38072172433926        8.89678186159458
N           50.26921730697543       45.49167254759276        9.18111762505708
N           49.05314983445727       48.16914552112512        9.26671617668639
N           46.45346089044331       47.02199921936909        8.92986805764247
C           46.35377859897769       44.02491473597146        8.71976787478478
C           46.22850466714691       42.58626310706503        8.74351884828176
C           47.48587505670096       42.08455632458184        8.95147151340760
C           48.37477796862819       43.22414788296291        9.03431547198451
C           50.64560729754860       44.18490320212360        9.18921893226970
C           52.09370421953959       44.10141388948243        9.19678330572269
C           52.57037814345939       45.39372457261567        9.22973772371570
C           51.38858948369465       46.24740685881452        9.24242186635175
C           50.36080600113031       48.51717377199384        9.35113216327185
C           50.48633861986542       49.95705299728126        9.46393045451304
C           49.20771945440401       50.44551922528052        9.51327783638354
C           48.32356388204280       49.29853152163245        9.42011228134414
C           46.08886570050292       48.32765724128028        9.02344697460571
C           44.65715495564802       48.45866197221323        8.82153242411084
C           44.17453634043081       47.19118467320224        8.66961888852661
C           45.32439778910217       46.29743631913053        8.74499718994587
C           45.28648879978073       44.91481622625246        8.62684366240943
H           44.31399632474523       44.47504803286461        8.45519507873391
C           49.76259769963562       43.11083700986693        9.17069470542572
H           50.17869869390089       42.11249539752706        9.23716235511737
C           51.42961933717762       47.63069462208725        9.29903397551763
H           52.40932950028470       48.07803323671597        9.28317050977784
C           46.94067949321774       49.38219596100489        9.31022405666839
H           46.50472387040777       50.36470190399824        9.42372887425024
C           47.92418172851892       40.65444830160814        8.98588418938865
H           48.56541490946002       40.44357746602908        8.12529815314256
H           47.06680060935734       39.98358795379639        8.93997833234831
H           48.49041732239788       40.43221132854183        9.89182566879011
C           44.94021884491880       41.83376348858177        8.63594955686704
H           44.28967513753727       42.28140586950200        7.88536505919625
H           44.41240326367230       41.84798728929801        9.59421073853366
H           45.11684520009540       40.79475495964526        8.35854036380170
C           52.84175965651972       42.81419333345666        9.12277634177203
H           52.26277928017996       42.06461420254357        8.58455676200646
H           53.04671057891597       42.43601918167263       10.12772599020243
H           53.78556742872311       42.95191575992501        8.59868591527567
C           53.91840771615419       45.92707634519646        9.14924023948474
H           54.01628845751268       46.99468157500683        8.98051731044617
C           55.05979213487069       45.24750832978622        9.24147209595247
H           55.07049515049479       44.19033045140540        9.41571073370559
H           56.01092357118826       45.74854325331432        9.14505898361831
C           51.77205387397579       50.72690076128169        9.46665959768431
H           52.26382042507753       50.65978690676601        8.49178122053539
H           52.46520078753917       50.33837780990054       10.21611725319400
H           51.58576639671743       51.78067342780889        9.67825307616366
C           48.74013326242414       51.83852161025896        9.59746958439555
H           48.64888438066708       52.43477791082856        8.68932024789675
C           48.41191254292364       52.35994567544645       10.76845946657519
H           48.50381554126916       51.76419983676319       11.66270651360047
H           48.05608250924186       53.37266626614586       10.87513687020966
C           43.93801673313268       49.77090870432077        8.75161687929126
H           44.43271655900532       50.43728226444300        8.04104803732653
H           43.93259885040359       50.26765408687049        9.72527203530068
H           42.90775937936836       49.63478594871476        8.42454618058809
C           42.75971531620170       46.75261033144952        8.47047573121056
H           42.55593060411088       46.56467453636530        7.41334574222267
H           42.06815032535063       47.51960714298965        8.81869111239510
H           42.56535766156986       45.83267049850114        9.02229404545649
O           48.33557026764537       46.21382344305356       10.36239171223703
H           48.60918946313676       45.30295707890664       10.54865963367585
H           48.33402921677656       46.97828597620232       10.93408075779542
C           48.11780357796834       45.16357756920767        5.58145012853172
H           48.06376530411323       44.23898154174529        6.14711123374995
H           48.81469523323174       45.07363288640712        4.75644148438972
H           47.13060198461494       45.43286552233859        5.22108364739215
S           48.72098265583424       46.52415149879162        6.62523696339325
H           49.76296352918691       45.84210261885524        7.08688741534173
72
 energy: -105.916169333619 gnorm: 0.096603291219 xtb: 6.7.1 (edcfbbe)
Fe          48.30446421372660       46.33577229556036        8.78950865558221
N           47.65453680965732       44.37848097278079        8.85955198012485
N           50.27271324201231       45.50238668644191        9.15104862365517
N           49.05114700731873       48.17204187262657        9.24748197980179
N           46.45919130902556       47.02953592996737        8.88764086289736
C           46.35439349040763       44.02842091922652        8.72207849444108
C           46.22272894483628       42.58523179002123        8.74643073789271
C           47.48592249597265       42.08817461101093        8.94034213662860
C           48.37055821030198       43.22817392720179        9.00894562243031
C           50.65388791004685       44.19673926209185        9.17106233812297
C           52.09060228352565       44.10076970628101        9.19393510620882
C           52.57376457010814       45.40035411372831        9.21661293345277
C           51.39546568451841       46.25130999653645        9.21509279668777
C           50.35584933279220       48.51779076729000        9.31873344955387
C           50.48605907439376       49.95764318945862        9.45343885422584
C           49.20635934338196       50.44865110899462        9.49836848639890
C           48.32632616232957       49.30815588084850        9.37114560933997
C           46.09046241696708       48.32512956378644        9.00833182301765
C           44.65713052720169       48.45704211231322        8.82400497531614
C           44.17523182196610       47.18724726332687        8.66700275857263
C           45.33311179168472       46.30342376339827        8.71672335211071
C           45.28842632726163       44.91614434449446        8.61598172426620
H           44.31435952045305       44.47513504506964        8.46520807368417
C           49.75366370682236       43.13229240823588        9.15428921725180
H           50.16550021637681       42.13416575244534        9.23468903289628
C           51.43008641657120       47.63742706634447        9.28148769612780
H           52.40854026677832       48.08967470631944        9.30116565614344
C           46.94429273185786       49.38243340181791        9.28722523417238
H           46.50638416661459       50.36167031034741        9.41696961729924
C           47.92247671015031       40.66379280121436        8.98537653000646
H           48.56508662806105       40.44354715475875        8.13086916043868
H           47.06923499619131       39.99213898900102        8.94484109972686
H           48.48556308768795       40.44202070307905        9.89092595475955
C           44.94469455074839       41.83784000330075        8.63571090109114
H           44.29350176676105       42.28137354628537        7.88591423405152
H           44.41354315493072       41.84928430530834        9.58970084123921
H           45.11901562761626       40.80017239033302        8.36180255361820
C           52.83716690637142       42.81711112638226        9.12319821154960
H           52.25916773464213       42.06544376782896        8.59103902380622
H           53.05095127847655       42.43684380080812       10.12358874523269
H           53.77778699032862       42.94751440507709        8.59672614366199
C           53.91114530529340       45.91645938457994        9.15050858283201
H           53.99950994549854       46.98307903582144        8.98107805503756
C           55.05915166010067       45.24141047572323        9.24676325305398
H           55.08930673619374       44.18748727099856        9.43078761785384
H           56.00538120362192       45.74318439905725        9.14597588456704
C           51.76144910796422       50.72153529582317        9.46806432176628
H           52.25623568046187       50.65500314696517        8.49690261769280
H           52.45441465395678       50.33627315849863       10.21606556801028
H           51.57756029874591       51.77261547070785        9.68032729363739
C           48.74765129654517       51.82821967505895        9.61035221290480
H           48.66181881145996       52.41247482162984        8.69729740716394
C           48.41166983577780       52.36247076916332       10.77314555332595
H           48.49702778636393       51.77736122664095       11.67290061877631
H           48.05646806462460       53.37156974263014       10.87618750569081
C           43.94017512714114       49.75937374252677        8.75730608246407
H           44.43253422595554       50.42538784938478        8.04776973719471
H           43.93339353357801       50.26028955634147        9.72596155619971
H           42.91173995577420       49.62713417152099        8.43192814234968
C           42.76702628497901       46.75300975713298        8.47057078397392
H           42.56010436238677       46.56368590138235        7.41626463323701
H           42.07450284050098       47.51654399119588        8.81725138872709
H           42.56564091839668       45.83629254169270        9.02096852623818
O           48.26265004315400       46.17783542280394       10.49839507395927
H           48.64000545143303       45.29032564936220       10.67348936821069
H           48.36534475892634       46.96886858263105       11.06258519131515
C           48.11527775401161       45.15513185288810        5.56894197446436
H           48.06157718755387       44.24586430204868        6.15408382764052
H           48.80268661776674       45.05420934495743        4.73962256651789
H           47.12991053935523       45.43236119480561        5.21903218611496
S           48.73792412375651       46.53363090426586        6.60209594712706
H           49.79536646184474       45.85240960041722        7.03318529446702
72
 energy: -105.943580770951 gnorm: 0.074554668179 xtb: 6.7.1 (edcfbbe)
Fe          48.30874630042015       46.33508901478011        8.83273117221320
N           47.65051853189027       44.38534858034856        8.82228578203685
N           50.26769172626936       45.51917031351741        9.12716964680919
N           49.04571087582036       48.16477012792284        9.21780732314432
N           46.47247945399249       47.03180980657466        8.84170207411689
C           46.35328362017307       44.03460308153198        8.71549498930745
C           46.22148501397509       42.58862236686559        8.74794383314874
C           47.48440062404678       42.09551903943387        8.92718973397988
C           48.36824875780976       43.23789166937317        8.98131280380729
C           50.65070301862579       44.21078907697482        9.15192844171219
C           52.08039205110751       44.10333526982509        9.18663438322189
C           52.56937932282983       45.40275692718362        9.20333023326526
C           51.39863913355752       46.25924571961227        9.19002933227972
C           50.35148668293004       48.51331325081812        9.28956954392311
C           50.48073974330945       49.95136509882993        9.44008938759212
C           49.20489676563275       50.44170495177041        9.48384690180553
C           48.32579951582541       49.30622850197105        9.32948794459856
C           46.09661277959497       48.32218586653987        8.98608841250859
C           44.66149712738995       48.45067591268818        8.82392704998012
C           44.18288439254274       47.18298745910241        8.65976490694003
C           45.34323024795785       46.30460652914042        8.68737246076218
C           45.28809901032290       44.91809699283391        8.60289471449223
H           44.31060596296721       44.47683694445320        8.47781342648305
C           49.74423249477569       43.15163906311997        9.13465273953978
H           50.15413213646475       42.15463082410152        9.22963682526007
C           51.43177704806268       47.64496813833777        9.26471931153632
H           52.40755802701464       48.10313586634176        9.31705186874073
C           46.94695571950909       49.38175740325343        9.26076400400324
H           46.50740986262284       50.35858625971204        9.40534955320751
C           47.92215289257892       40.67271350205531        8.98457527033181
H           48.56753662984354       40.44338279952150        8.13524543269896
H           47.06913764614296       40.00115909807803        8.94945662829984
H           48.48161127760729       40.45716966468989        9.89391736162404
C           44.94467158359485       41.84073835618160        8.63681467173103
H           44.29562733173462       42.28259172555807        7.88414056263494
H           44.41070053377371       41.85190989328526        9.58836886585456
H           45.12148355750129       40.80332190625526        8.36480847030805
C           52.82915754063829       42.81992733427683        9.12251411534275
H           52.25015988284554       42.06329146219733        8.59814000977180
H           53.05304772265943       42.44244035727241       10.12170710025320
H           53.76754258117076       42.94723555695207        8.59079204444835
C           53.91048843708497       45.90733876715657        9.14981930953837
H           53.98945521542009       46.97413698220812        8.97780640921802
C           55.05930673225694       45.23573549600172        9.25346726105695
H           55.10673449839310       44.18266476613883        9.44845459308054
H           56.00352466301480       45.73983517965454        9.15061674284061
C           51.75418408446509       50.71615580000536        9.46862395492810
H           52.25339616918142       50.65130795483668        8.50014070227438
H           52.44294695976942       50.33125512106990       10.21981408495164
H           51.56573148527706       51.76523748910673        9.68304420945129
C           48.74981328497256       51.82124741117998        9.61988442203968
H           48.67301679171354       52.39785467293634        8.70303134747878
C           48.41262767423802       52.36291347577742       10.77756092154628
H           48.48930655230861       51.78799053864694       11.68545912486776
H           48.05988198123877       53.37307132266005       10.87481453466458
C           43.94137278273605       49.75041743139406        8.76490054829402
H           44.43223239705465       50.41561293902220        8.05410488509600
H           43.93515597055251       50.25188096790038        9.73240493223783
H           42.91300597542322       49.61658133882304        8.44150629781167
C           42.77312423114318       46.75101272764360        8.46947070041834
H           42.56427915260242       46.55993582731896        7.41609203507448
H           42.08290645825740       47.51638415053889        8.81582474268037
H           42.56741490432796       45.83692872668028        9.02217229255809
O           48.17441886675223       46.13676093813358       10.64401978776565
H           48.68853490493347       45.29943528970520       10.81542859597202
H           48.41400451844790       46.94614417075859       11.18494960368238
C           48.11192598178793       45.15113859156770        5.56171722769720
H           48.05861724331141       44.25319188003095        6.16374837887037
H           48.78936800482915       45.03383756414893        4.72481508315211
H           47.12602097660029       45.43399094179831        5.21834521855910
S           48.75363737228705       46.54180107949507        6.58374794640265
H           49.83514060208618       45.87064874437922        6.97514477207516
72
 energy: -105.958623676674 gnorm: 0.052181326046 xtb: 6.7.1 (edcfbbe)
Fe          48.32881950052047       46.32393705364120        8.88172790982276
N           47.65004623816562       44.39951200051407        8.79537267452069
N           50.26199477285351       45.53633248455914        9.11972343285351
N           49.04393116807886       48.15330474629271        9.19328247451276
N           46.48908700193255       47.02782633449807        8.81075644128140
C           46.35265462010936       44.04240490854187        8.70041582450928
C           46.22359930801281       42.59634335328816        8.74480302137826
C           47.48300010212515       42.10603251627522        8.91279556919917
C           48.36780388666239       43.25158331926549        8.95364905956812
C           50.64118908165810       44.22450235512144        9.13493424682716
C           52.06922925167684       44.10907588146681        9.17471515260183
C           52.56362074061623       45.40196489612225        9.19032780128962
C           51.40201231102254       46.26853936320033        9.17318193786315
C           50.35222386185541       48.50885617935295        9.26904069268040
C           50.47492330737209       49.94426971474583        9.42677779070443
C           49.20422392303429       50.43147260430600        9.47262003304814
C           48.32540416571824       49.29764769719833        9.30199588362187
C           46.10655900451508       48.31781353625163        8.95960231255409
C           44.67003367645148       48.44189208103076        8.81787050864643