78
 energy: -116.058078221186 gnorm: 0.000048623748 xtb: 6.7.1 (edcfbbe)
Fe         -39.74460644396079      -74.08094843505435       -1.13549950798374
N          -39.16147458657830      -75.75281711796515       -2.09432559018511
N          -41.44258410773585      -74.06709132473432       -2.22309951822924
N          -40.35839482899955      -72.46097716004996       -0.14983791186843
N          -38.08877438515032      -74.14359264335641       -0.03074344784173
C          -37.99211818099848      -76.42525798519105       -1.92330173642041
C          -37.91230327241322      -77.55033688000749       -2.82658862273916
C          -39.06272992683750      -77.54133839208455       -3.55322174895961
C          -39.82816397056058      -76.40770987997604       -3.08630069317005
C          -41.80386579924631      -74.94992643670952       -3.19778830637742
C          -43.06241250263317      -74.57628130513766       -3.78647400133148
C          -43.45737858609095      -73.42579506420164       -3.15384373550156
C          -42.42972072347190      -73.13399576917968       -2.17503505135300
C          -41.49925712512145      -71.75284910932305       -0.37019905439057
C          -41.58541353447521      -70.62593887539045        0.52516027006715
C          -40.45788324090678      -70.66519776042313        1.30036362086169
C          -39.71062380843980      -71.82792290840962        0.85853796255414
C          -37.73849810090505      -73.28101433318196        0.95731273248728
C          -36.45340895050648      -73.63881698083038        1.51991715231015
C          -36.03525829633204      -74.73973600844941        0.84215180759926
C          -37.07168782250750      -75.03924184554857       -0.12332361978648
C          -37.01101034983405      -76.10071301718996       -1.00514150700771
H          -36.13302535445099      -76.72740604264514       -0.97323310493691
C          -41.06017596949462      -76.04866429010256       -3.59807666589013
H          -41.46346296659994      -76.65980602691424       -4.39106024336598
C          -42.45836497391755      -72.04791808917165       -1.32215143920691
H          -43.29624971958535      -71.37306560545272       -1.40604401319181
C          -38.48457111541027      -72.19775648690921        1.37945980809098
H          -38.07447641497557      -71.59184944361546        2.17305690584578
C          -39.51060243845093      -78.47504733889181       -4.62544747907778
H          -38.76910317060700      -79.25157865718225       -4.79588253171127
H          -39.66706344087138      -77.93940353334683       -5.56235536062282
H          -40.45070316442068      -78.95403160584816       -4.35013092644486
C          -36.76304380029722      -78.49673636932644       -2.89058204711625
H          -36.62330738734435      -78.99526891164683       -1.93109544070110
H          -35.84239184053144      -77.96491841215648       -3.13145764287288
H          -36.92850479042976      -79.25690790406483       -3.65016957298091
C          -43.78959233125828      -75.35745730651023       -4.82522054607226
H          -43.67037092170129      -76.42706874566903       -4.65829553456371
H          -43.41223949295204      -75.12797850905025       -5.82339297928193
H          -44.85048632549815      -75.11714016504686       -4.79697899201077
C          -44.65602715893829      -72.64143790860263       -3.35030318798668
H          -45.05017935689878      -72.15916396246270       -2.46332463489777
C          -45.28486422194728      -72.46837446171715       -4.50843126053202
H          -44.91461126547726      -72.88223147308034       -5.43010511715501
H          -46.18441598102803      -71.87953375601484       -4.57792157250480
C          -42.73301423215427      -69.68091238493544        0.60657794083038
H          -43.67680582431862      -70.20914021360134        0.47930934167977
H          -42.66568163297693      -68.91804349086057       -0.17095517287726
H          -42.74009452224737      -69.18542774068715        1.57521109002750
C          -40.05227175930340      -69.78331683529269        2.37245221491983
H          -39.51052866931642      -70.25355890901393        3.18491935175324
C          -40.28449532768366      -68.47570235129638        2.42495563478720
H          -40.77566736489754      -67.94859984727448        1.62560814638734
H          -39.96578732243879      -67.87989182314516        3.26423994738728
C          -35.78551288084407      -72.89911619811241        2.62775802442443
H          -36.40972973945875      -72.90536901561165        3.52143411794829
H          -35.60953542849195      -71.86069599831379        2.34562825007009
H          -34.82925269690237      -73.35341335232580        2.87532495703860
C          -34.78364084079371      -75.53207134611220        1.00545992199531
H          -34.15805667460476      -75.10985248775184        1.78799617028151
H          -34.21207179663426      -75.54216692267003        0.07702812548998
H          -35.01526639606491      -76.56374349189922        1.27120696702745
O          -40.85082300695579      -75.46845855396084        0.31879906323267
H          -40.50292369440051      -76.31685826311764        0.02315184474193
H          -41.74547210823544      -75.39219493836342       -0.03042539915957
C          -36.77587887608205      -70.18170785693356       -3.79175175551485
H          -37.31933993867348      -69.45953079023580       -4.40091108242628
H          -35.88991155889657      -70.49510350385964       -4.34386968639368
H          -36.46057062955503      -69.69522153772317       -2.87413163627276
N          -38.17561315513262      -72.15773358915227       -4.42992196666335
H          -38.05466722548812      -72.05086336229726       -5.42365721599029
C          -37.63454235858240      -71.34827833635578       -3.46566538403349
C          -38.89761249039978      -73.11411322191012       -3.80402098872643
H          -39.43460986609643      -73.88874232599741       -4.31111902394824
N          -38.84641907371951      -72.95978304954842       -2.50334251017798
C          -38.06402580421143      -71.86542281803341       -2.27712747552429
H          -37.86477495765516      -71.52572120577977       -1.28173772586390
