78
 energy: -115.942208370326 gnorm: 0.345350424583 xtb: 6.7.1 (edcfbbe)
Fe          -5.71100000000000       57.04800000000000      111.81399999999999
N           -6.57200000000000       56.09300000000000      113.43700000000000
N           -6.71500000000000       58.76700000000000      112.40400000000000
N           -4.92500000000000       58.03800000000000      110.20800000000000
N           -4.69400000000000       55.33100000000000      111.25299999999999
C           -6.31500000000000       54.82800000000000      113.78800000000000
C           -6.78000000000000       54.56900000000000      115.05800000000001
C           -7.40900000000000       55.73400000000000      115.49299999999998
C           -7.18500000000000       56.65200000000000      114.49600000000000
C           -7.37600000000000       58.97400000000000      113.53700000000001
C           -7.92100000000000       60.26499999999999      113.57199999999999
C           -7.46100000000000       60.88700000000000      112.42099999999999
C           -6.69600000000000       59.93300000000000      111.75100000000000
C           -5.14200000000000       59.30600000000000      109.84099999999999
C           -4.40900000000000       59.66300000000000      108.71100000000000
C           -3.66200000000000       58.51299999999999      108.42100000000001
C           -4.04400000000000       57.53999999999999      109.34399999999998
C           -3.95700000000000       55.16099999999999      110.16800000000001
C           -3.68800000000000       53.81500000000000      109.95999999999999
C           -4.28900000000000       53.14100000000000      111.01600000000001
C           -4.89700000000000       54.13200000000000      111.78999999999999
C           -5.61600000000000       53.91200000000000      112.97899999999998
H           -5.63500000000000       52.87900000000000      113.32499999999999
C           -7.56300000000000       57.99499999999999      114.54100000000000
H           -8.05800000000000       58.32700000000000      115.45299999999999
C           -5.99100000000000       60.16200000000000      110.55800000000001
H           -6.12300000000000       61.15200000000000      110.12499999999999
C           -3.58700000000000       56.20400000000000      109.33100000000000
H           -2.85000000000000       55.96100000000000      108.56599999999999
C           -8.19700000000000       55.94100000000000      116.77800000000001
H           -7.62500000000000       56.60500000000000      117.46099999999998
H           -8.36100000000000       54.96300000000000      117.28000000000000
H           -9.17400000000000       56.41700000000000      116.54700000000000
C           -6.65000000000000       53.25100000000000      115.79599999999999
H           -5.64700000000000       52.81500000000000      115.60299999999999
H           -7.42600000000000       52.54199999999999      115.43700000000000
H           -6.76500000000000       53.41899999999999      116.88800000000001
C           -8.87600000000000       60.74600000000000      114.65200000000000
H           -8.54700000000000       60.35600000000000      115.63900000000000
H           -9.90100000000000       60.37300000000000      114.44000000000000
H           -8.87600000000000       61.85600000000000      114.68600000000001
C           -7.71500000000000       62.15000000000000      111.89300000000000
H           -7.03000000000000       62.53999999999999      111.12599999999999
C           -8.81600000000000       63.01400000000000      112.26499999999999
H           -9.54400000000000       62.69499999999999      113.02500000000001
H           -8.93700000000000       64.00000000000000      111.79199999999999
C           -4.32600000000000       61.05800000000000      108.06299999999999
H           -4.45600000000000       61.83800000000000      108.84399999999998
H           -5.13100000000000       61.16900000000000      107.30599999999998
H           -3.33300000000000       61.18999999999999      107.58300000000000
C           -2.72000000000000       58.23099999999999      107.42100000000001
H           -2.15700000000000       57.29600000000000      107.53700000000001
C           -2.37300000000000       58.98199999999999      106.25600000000000
H           -2.87400000000000       59.93699999999999      106.03800000000000
H           -1.60100000000000       58.61400000000000      105.56399999999999
C           -2.97000000000000       53.19300000000000      108.77699999999999
H           -1.89300000000000       53.46500000000000      108.81199999999998
H           -3.40700000000000       53.57399999999999      107.83000000000000
H           -3.06400000000000       52.08700000000000      108.81999999999999
C           -4.24600000000000       51.64000000000000      111.30100000000000
H           -3.29100000000000       51.21800000000000      110.92100000000001
H           -5.09300000000000       51.13600000000000      110.78699999999999
H           -4.30700000000000       51.46400000000000      112.39600000000000
O           -4.32700000000000       57.47499999999999      113.06699999999999
H           -4.59400000000000       57.08400000000000      113.89900000000000
H           -3.58400000000000       57.94000000000000      112.91899999999998
C           -9.10100000000000       55.02100000000000      107.80699999999999
H           -9.39300000000000       55.71900000000000      106.99299999999998
H           -9.99600000000000       54.44700000000000      108.12699999999998
H           -8.32200000000000       54.32800000000000      107.42500000000000
N           -9.13500000000000       56.76000000000000      109.73699999999999
H          -10.05600000000000       57.11400000000000      109.57599999999999
C           -8.54500000000000       55.82300000000000      108.99699999999999
C           -8.31800000000000       57.13499999999999      110.69699999999999
H           -8.56100000000000       57.88699999999999      111.44699999999999
N           -7.19500000000000       56.46700000000000      110.59599999999999
C           -7.29600000000000       55.65999999999999      109.57200000000000
H           -6.47500000000000       55.00800000000000      109.30100000000000
78
 energy: -116.015182714622 gnorm: 0.137474565116 xtb: 6.7.1 (edcfbbe)
Fe          -5.73356311900216       57.03743446921607      111.79783853420625
N           -6.54344747906842       56.10430186593446      113.42638014314144
N           -6.67706003933128       58.75737776040153      112.40796570439667
N           -4.92104064699094       58.02960720337535      110.22859999323978
N           -4.71581382969207       55.34938759644105      111.26666662122909
C           -6.29799419719976       54.82251817486468      113.77716727199758
C           -6.79775608244478       54.55504552477890      115.07173770747393
C           -7.40953928769506       55.71603978023128      115.50589686131478
C           -7.19222322758019       56.66385880063778      114.48153029836702
C           -7.38205414919849       58.95785537359048      113.54160800878739
C           -7.93376513293243       60.26829843191457      113.57727258065917
C           -7.48614677024029       60.89840677404153      112.42510115383561
C           -6.68419570716149       59.93017794516634      111.73866273025214
C           -5.14974262957000       59.31066554587117      109.85493192690573
C           -4.39260925048837       59.66830864439764      108.70805196569920
C           -3.65405346513484       58.52630451994506      108.39547713820956
C           -4.03194115094279       57.53050097011756      109.35104411391748
C           -3.96691626882863       55.17417221498234      110.16435872025180
C           -3.68585062840459       53.79481699042360      109.96195742356703
C           -4.27796140586576       53.12808664407305      111.01282618134364
C           -4.91150479089834       54.13086070618826      111.80498325929632
C           -5.61565824179437       53.90011086574619      112.98161364028559
H           -5.63278445175677       52.87525728095471      113.32883699719133
C           -7.57478468082271       57.99691064997241      114.53733530143337
H           -8.06360292804309       58.32382822762300      115.44668064039048
C           -5.99740886547725       60.16795909274326      110.55332843938203
H           -6.11923702719308       61.15303713330757      110.12345131187887
C           -3.58116850846542       56.20833767428078      109.32790204012770
H           -2.86122907532427       55.95216973814202      108.56181751779192
C           -8.18596409469061       55.93755429960355      116.77465973157052
H           -7.63402647247909       56.59715286835482      117.45682618699885
H           -8.36181147847833       54.98024772847999      117.27559877337451
H           -9.15389588751747       56.40526591087107      116.55188492675174
C           -6.65513046961376       53.25224382102845      115.79863358701355
H           -5.66483828584218       52.81999310153510      115.60988949605209
H           -7.41642769767791       52.54442881786003      115.44892746299921
H           -6.76751618992861       53.40828884318976      116.87589638705714
C           -8.86855079911306       60.74896044563015      114.64959594876072
H           -8.55483933168491       60.36337995867471      115.62662645114639
H           -9.88535677357952       60.38633016161935      114.44551457768756
H           -8.86704942982950       61.84158133069558      114.69367584484829
C           -7.74982903483133       62.19128875296876      111.90877801670888
H           -7.06452220006674       62.55647601605413      111.14261725636406
C           -8.79085143589498       63.00315913112756      112.25812326823817
H           -9.52619534661128       62.69748725845215      112.99292105320978
H           -8.92285237793040       63.97525397080486      111.79657202281783
C           -4.32613677795245       61.04072141082885      108.07281375467242
H           -4.45508444579218       61.82170984656721      108.83247912435264
H           -5.11516936577410       61.16316691030511      107.31860298789297
H           -3.35183663571854       61.18688747743525      107.59507608471209
C           -2.69924969312465       58.25394483443333      107.38063940329380
H           -2.15051967349441       57.32184743961427      107.51048953854291
C           -2.37789307594877       58.97544197719758      106.27487785071636
H           -2.86938167064698       59.91172781654785      106.04022846271722
H           -1.61869133192730       58.61965006622025      105.58649578308719
C           -2.96893153287358       53.19425170870988      108.78647407360616
H           -1.90431133169484       53.46073866621514      108.80788847340551
H           -3.39775227112741       53.56511088388353      107.84664273782600
H           -3.05955996306499       52.10382122202004      108.81376416088352
C           -4.24345022182904       51.64887380622817      111.29548294996181
H           -3.30524132267344       51.22023483643853      110.92637526629323
H           -5.08022930490640       51.14136362162478      110.79781794449576
H           -4.30755602431144       51.46445487340531      112.37379984584642
O           -4.32505594256294       57.47646104755768      113.07668390113533
H           -4.57012406917710       57.09188005768281      113.92017804524544
H           -3.53554965218803       57.96321381786962      112.93333930404158
C           -9.10367961208773       55.03249407469733      107.81203837317602
H           -9.39283477674064       55.71114159100922      107.00112670935587
H           -9.98379582445788       54.45582523112180      108.12023149906808
H           -8.33826075158458       54.34569092069381      107.43833249366746
N           -9.15565456567147       56.74912170780643      109.71973922599577
H          -10.07886523096654       57.10701311125844      109.55762355359853
C           -8.53902125454447       55.79950025592403      108.97950528224865
C           -8.33177483407489       57.13821254042988      110.69608262251765
H           -8.57055698178468       57.87933046467059      111.43634988169582
N           -7.20065339484899       56.48065968134677      110.60561349018806
C           -7.29831927979495       55.65198253128410      109.56427230720911
H           -6.48214884333716       55.00779655265961      109.29616965037786
78
 energy: -116.034345341393 gnorm: 0.043648652664 xtb: 6.7.1 (edcfbbe)
Fe          -5.74097875676156       57.03130299114503      111.79311917130342
N           -6.51808291196490       56.10708434030978      113.41463808904722
N           -6.65230982044175       58.74657150003996      112.40330952526881
N           -4.91558821853419       58.02002699479360      110.24825313642056
N           -4.75518952020238       55.36087548887896      111.26725566446093
C           -6.28212115589301       54.81690067834074      113.76723791473468
C           -6.81302254050979       54.54611549342468      115.07591317141713
C           -7.40805159048689       55.69991391299817      115.50402269020320
C           -7.19319443599698       56.66808316857941      114.46211115996142
C           -7.38452479738954       58.94069826254602      113.53593332515854
C           -7.93904020144172       60.26556092268633      113.57039186177379
C           -7.50583491588110       60.89514003521475      112.42252110421792
C           -6.67656696285005       59.92377189358687      111.72731352352540
C           -5.15045611997157       59.30921292287806      109.87345052116093
C           -4.37461259959635       59.66306281816225      108.71465387228754
C           -3.64843549518402       58.53369602225714      108.38808517263263
C           -4.02447230381140       57.52154342472267      109.36006444453402
C           -3.98904045555271       55.18552646941549      110.16125138232987
C           -3.68931869900581       53.78564115194927      109.96929161652645
C           -4.27037092115965       53.12430352224415      111.01179578130416
C           -4.93054331178495       54.13063358706492      111.81332025839659
C           -5.61519629702529       53.88491517266783      112.98637664482072
H           -5.62661728013684       52.86532859294940      113.33952174863630
C           -7.58471044713290       57.99200208026403      114.52685009068642
H           -8.08374279757703       58.31121408560841      115.42997575679559
C           -5.99894687716668       60.17383811189394      110.54959060876101
H           -6.11483573808979       61.15667106982545      110.11923217428053
C           -3.58335265138557       56.20825687558956      109.32366172626689
H           -2.88069076596746       55.93673570186429      108.55065251052145
C           -8.17293968969249       55.93464409649835      116.76497891678297
H           -7.63220543469582       56.59282189167303      117.44613439639012
H           -8.35831861589037       54.99230051576930      117.27311545380583
H           -9.13543547187882       56.39808707624678      116.54797066356338
C           -6.66490238154712       53.25225999890239      115.79890191130660
H           -5.68060259976810       52.82442418932551      115.61566112052324
H           -7.41420536887573       52.53743229365040      115.45966374866047
H           -6.77801934284983       53.39800662215565      116.86920519553516
C           -8.85166949878419       60.75124902944299      114.64487544340346
H           -8.55074211836827       60.36708381733513      115.61762704626190
H           -9.86800346251601       60.40121886127465      114.45146737132474
H           -8.86666967989004       61.83446031108955      114.69792305552420
C           -7.77719684718807       62.21398622196465      111.91649245103308
H           -7.08171294476357       62.56595056327884      111.16152921094076
C           -8.78195679193626       62.99668249183258      112.24960325745342
H           -9.52772292997068       62.70549427777314      112.96662854993255
H           -8.91169888782657       63.96798487385387      111.80447663701744
C           -4.32447941739485       61.01830972676271      108.08693072404266
H           -4.45919257316820       61.79985657515267      108.83355469491512
H           -5.10437308075053       61.14185187152757      107.33265065424686
H           -3.36160702361194       61.17824377319494      107.60895145164380
C           -2.68375529869447       58.26974528916111      107.35605008241629
H           -2.13993981599004       57.34229252625083      107.49670268465724
C           -2.38625336463818       58.97732263354486      106.28122268990261
H           -2.87347689756704       59.90071996317079      106.02972750028293
H           -1.62827646482425       58.63716077876934      105.59569484112133
C           -2.96741793119683       53.20067175473368      108.80055345620237
H           -1.91014688396743       53.46549995280231      108.81243275663691
H           -3.39260117588453       53.56504889795656      107.86504894062053
H           -3.05188438525242       52.11732647783192      108.81256843291563
C           -4.24117830499063       51.65916723010312      111.29232223607660
H           -3.31462043193303       51.22204239877316      110.92711747602689
H           -5.07384063903252       51.15038903082260      110.80461241018477
H           -4.30851510878135       51.46725149074285      112.36051754138833
O           -4.28796945932931       57.49074196335868      113.09121962995263
H           -4.49968278324677       57.12190713265636      113.95345282919371
H           -3.47955501004352       57.98230755724199      112.96223849589667
C           -9.10335162309092       55.04146955087626      107.81765213221969
H           -9.39411708972090       55.71353599466610      107.01250141441049
H           -9.97845275330710       54.46630195772419      108.11734804598785
H           -8.35072395860883       54.35575906486867      107.44175346450537
N           -9.18178199043398       56.73382314979695      109.70052090561077
H          -10.10787016613900       57.08830698027834      109.53137448224739
C           -8.53040210588739       55.77961532044348      108.97040188000997
C           -8.35798429987099       57.14209168822561      110.68791031432052
H           -8.60199735225935       57.87747463882074      111.41992720194612
N           -7.21199774411794       56.50732249317743      110.61774027126445
C           -7.30098031402404       55.65603614224973      109.56653866171001
H           -6.48572389689768       55.01669157034628      109.30171262054951
78
 energy: -116.041047967643 gnorm: 0.026360365088 xtb: 6.7.1 (edcfbbe)
Fe          -5.73526167725194       57.03145280082891      111.80090360801456
N           -6.50146305008604       56.09995780075172      113.41008141704908
N           -6.64260259438155       58.74061031114687      112.39768850109049
N           -4.90508602438413       58.01264379225765      110.26242106439894
N           -4.78648396998211       55.35985337022272      111.26478180983955
C           -6.27492123421047       54.80758838181696      113.76468952156792
C           -6.82166434202564       54.53615807590231      115.07531907730659
C           -7.40841474717832       55.68949458219085      115.49673634730893
C           -7.19035017458905       56.66215509355609      114.44833250908711
C           -7.38760275888931       58.92919425623467      113.52565515417861
C           -7.94324087607686       60.25857945531320      113.55977661808194
C           -7.51374517457876       60.88749545204380      112.41637407404930
C           -6.67413982819263       59.91786649780057      111.72036311378180
C           -5.13922519899836       59.30355908321408      109.88972273194197
C           -4.35734556981539       59.65383853154850      108.72775360077389
C           -3.63786051215275       58.53128131636670      108.39434794909504
C           -4.01820718273664       57.51361838381692      109.36736474869659
C           -4.01266303244293       55.18628404029118      110.16029799198873
C           -3.69674375838800       53.78325538958767      109.97515462443344
C           -4.27139738492560       53.12191868246940      111.01407648561791
C           -4.94576685667862       54.12611090878114      111.81541646291940
C           -5.61565307484202       53.86869714546357      112.99197544753406
H           -5.61695118595014       52.85148960784502      113.35242806470498
C           -7.59645108666137       57.98024297376887      114.51200902098533
H           -8.12036676150297       58.29026332961995      115.40418829593438
C           -5.99277477609336       60.17437312641728      110.54814592061901
H           -6.10732398336609       61.15529363369737      110.11311741394510
C           -3.59344256397234       56.19886169942639      109.31984450141576
H           -2.90765302209022       55.91237166552647      108.53674924423997
C           -8.16492148650978       55.93531710721109      116.75736073268394
H           -7.62025598599048       56.59603801913475      117.43153668222831
H           -8.35300782591620       54.99879026065148      117.27444614727062
H           -9.12562170895169       56.39879709461826      116.53991546819566
C           -6.67841859384459       53.24379370986807      115.80035114715544
H           -5.69263000642842       52.81940627807457      115.62438016178992
H           -7.42219451672680       52.52278881732839      115.46327176307521
H           -6.79860788699488       53.38777915754562      116.86991040942479
C           -8.83849133471111       60.75239482196276      114.64282334655580
H           -8.53592343829443       60.36145892667508      115.61119472677700
H           -9.86322122185589       60.42155859206648      114.45812251041664
H           -8.83284126593936       61.83501446437950      114.70238428950528
C           -7.78166372275481       62.21839631217404      111.91860419575657
H           -7.07620125173951       62.57435740852406      111.17775086426724
C           -8.79794367531807       63.00788561310809      112.24583933817138
H           -9.56858200819188       62.71346766448367      112.93508415685201
H           -8.91219905762777       63.98549267039423      111.81095877666601
C           -4.32014556491190       61.00368225273037      108.10121949956638
H           -4.46730102331802       61.78337299530821      108.84557745098996
H           -5.09849167753797       61.11306363265610      107.34457753159101
H           -3.35870622859307       61.17291261416451      107.62545519630677
C           -2.67120855029697       58.27768210426436      107.35220227424674
H           -2.11192664463283       57.36172309031207      107.49151424251816
C           -2.39265026569172       58.99597998617203      106.27051647554015
H           -2.89994491038659       59.90456476128183      106.00739952047169
H           -1.63027400742452       58.66970007474061      105.58347386786008
C           -2.96189999043655       53.20924191418750      108.81179505964163
H           -1.90762654264409       53.48184453715417      108.82724701103776
H           -3.38686463198565       53.57287347454147      107.87727311338374
H           -3.03707136536642       52.12553537941695      108.81623270012261
C           -4.24119236560268       51.66000003345729      111.29342311060711
H           -3.31829801969999       51.21968067096566      110.92465813516394
H           -5.07658396952661       51.15465953417836      110.80844483189078
H           -4.30737670665610       51.46583036155675      112.35990648912964
O           -4.22600286823827       57.50643530334734      113.10101339970554
H           -4.40670547005036       57.16539510398134      113.98477669841589
H           -3.41569943357219       58.00525820321224      112.97817083762364
C           -9.10230597993193       55.04237198271524      107.81596134015894
H           -9.39486840860714       55.72264325276037      107.01894260290877
H           -9.97978339361223       54.47060599973585      108.11337476815889
H           -8.35680750983271       54.35543558182637      107.43099416010763
N           -9.20881902292652       56.71976747929665      109.68752330549962
H          -10.13905708646574       57.06057949398034      109.50647248726807
C           -8.52856442567673       55.77033505966729      108.96995206618656
C           -8.39420831290608       57.14823524741939      110.67955184616183
H           -8.65653001163520       57.88413977716830      111.40473723685513
N           -7.23345695017284       56.53528423230895      110.62977060106408
C           -7.30591689317719       55.67100879118674      109.57649007430460
H           -6.48418437824340       55.03791076819828      109.31670202811952
78
 energy: -116.045938243904 gnorm: 0.023952887268 xtb: 6.7.1 (edcfbbe)
Fe          -5.73334131518547       57.03098372588414      111.80560057594330
N           -6.47861807593059       56.09322855073250      113.41102500500244
N           -6.63435269613164       58.73593254622782      112.39247607639400
N           -4.89524708705525       58.00462773808542      110.27222107183215
N           -4.81253118751217       55.35629362843209      111.26225681015306
C           -6.26560166690371       54.79921118601484      113.76556285131043
C           -6.82651381607460       54.52683942270656      115.07421863840898
C           -7.40909864205784       55.68144556551545      115.48796532958902
C           -7.18042923381608       56.65521091506003      114.43726416138986
C           -7.38964942689456       58.91851961915042      113.51382699879062
C           -7.95111338381809       60.24754078195858      113.54546281244073
C           -7.52443150085767       60.87649139811683      112.40534629166341
C           -6.67329131075621       59.91167415196763      111.71398170460577
C           -5.12371837431836       59.29705263527868      109.90627526715653
C           -4.33953095756285       59.64548834163623      108.74330006716497
C           -3.62790851303467       58.52577547878225      108.40159241637039
C           -4.01391468221032       57.50534416182158      109.37105126443220
C           -4.03625856507488       55.18489014425997      110.15891652479921
C           -3.70545058184566       53.78338385079061      109.97905262999214
C           -4.27350330974374       53.12028641489778      111.01762530481280
C           -4.95708376917577       54.12144998504849      111.81618303363074
C           -5.61308837346660       53.85321722023760      112.99871752313187
H           -5.60578002433406       52.83784882548745      113.36452105150590
C           -7.60916529010614       57.96577192433381      114.49451492944989
H           -8.16868577549506       58.26366271927983      115.37037113169316
C           -5.98348278195376       60.17374315061566      110.54742260778156
H           -6.10051748680019       61.15107709516837      110.10524592485885
C           -3.60855242409987       56.18597507769812      109.31068157319564
H           -2.93950635906862       55.88836410248310      108.51715866376493
C           -8.16003004420695       55.94033875428925      116.74902188154176
H           -7.60525131176545       56.60582280500830      117.41170801760467
H           -8.34669128833980       55.00837031612927      117.27772098007340
H           -9.12075996362431       56.40504753701008      116.53193033709756
C           -6.69416918470872       53.23250400289844      115.80069707389715
H           -5.70488540408622       52.80865092309132      115.63771595184966
H           -7.43418522109646       52.50872425784401      115.45765092137189
H           -6.82888279373343       53.37732324504809      116.87045007609650
C           -8.82602441019692       60.75616499655467      114.63873173984562
H           -8.51709610426990       60.35642029777760      115.60293663365998
H           -9.86219563414288       60.45111319859158      114.46671245355579
H           -8.78974688073129       61.84129235201877      114.69332031169691
C           -7.78929222804312       62.21403588913996      111.91752204682535
H           -7.06548038976253       62.59159830902409      111.20610741776851
C           -8.81468615050710       63.00191395374936      112.23653520787403
H           -9.59727600795182       62.70538642610400      112.91062399593501
H           -8.90346875079098       63.99154258216616      111.81773442302931
C           -4.31284381429301       60.99455892094736      108.11651296475577
H           -4.47730814235248       61.77280825708836      108.85940532334786
H           -5.08956419984049       61.08476786857958      107.35444710260313
H           -3.34947863974974       61.17305648655991      107.64556438702417
C           -2.66055003484917       58.28509187901808      107.35376732222839
H           -2.07153171226448       57.38759923293607      107.49416624860982
C           -2.40973972212018       59.01047833773565      106.26351963380721
H           -2.94358656739964       59.90385224246539      105.99634075280187
H           -1.63630548590360       58.70435406413027      105.57674669192552
C           -2.95352978832847       53.22124870099174      108.82114347526772
H           -1.90208024447315       53.50750662459770      108.84946455587193
H           -3.37630344299872       53.58428667295002      107.88456510573758
H           -3.01464371619866       52.13528164880667      108.82167790103728
C           -4.24245394817318       51.65778830810763      111.29750732150640
H           -3.32286402997972       51.21531889908395      110.91985723263140
H           -5.08409412159067       51.15686364709446      110.81593790702652
H           -4.30151290909028       51.46146231862640      112.36477815292709
O           -4.13972026966491       57.50907648132936      113.10808181197859
H           -4.29092996971965       57.22588105816389      114.02082930845050
H           -3.34236703736236       58.03472906070725      113.00210477395284
C           -9.10360099051567       55.04062478701152      107.81041362267327