78
 energy: -116.058077981003 gnorm: 0.000061696469 xtb: 6.7.1 (edcfbbe)
Fe          -5.66838199671133       57.02929203843082      111.78936349382691
N           -6.42346934726220       56.08675195427897      113.40037671299527
N           -6.55147359521877       58.73851352741880      112.39361013675165
N           -4.87610225586618       57.98591302294280      110.23022637668006
N           -4.75615856214225       55.34682194737582      111.23914926039549
C           -6.28331300655273       54.77160238309653      113.71576845589337
C           -7.01102688012206       54.45489519939304      114.92334616801359
C           -7.59964273381611       55.61193063468595      115.33120584951652
C           -7.22639203295710       56.61929075673262      114.36427471976722
C           -7.33618385206293       58.91560923679453      113.49487315619835
C           -7.83125873329971       60.26497805575863      113.55946493020143
C           -7.33931336765544       60.90937224337790      112.45375827728230
C           -6.53550355126117       59.93349197619271      111.74607829032090
C           -5.07373309559586       59.28637067343887      109.88183432252829
C           -4.35507185069564       59.60954902467922      108.67433446532330
C           -3.71199708090660       58.46304540892022      108.29250748023578
C           -4.05260983168758       57.46430429011021      109.28845016977247
C           -3.95340718989960       55.17424333757511      110.15805321951171
C           -3.48738770074960       53.80588982542368      110.07744729899012
C           -4.03353268325123       53.15550459982066      111.13806008854412
C           -4.82378459499264       54.13638161153319      111.85184538725525
C           -5.53751381507927       53.85367494639289      113.00015952395844
H           -5.50829885053945       52.84028382424979      113.37002666956552
C           -7.64683912207315       57.93402623483514      114.42251835799890
H           -8.28963141660693       58.21181905169549      115.24386323044813
C           -5.85834875255067       60.19362155363697      110.57065197660435
H           -5.95012769048900       61.18485195133251      110.15404959286096
C           -3.61996719399164       56.15207726614373      109.24106483580309
H           -2.97679964197012       55.86630481838889      108.42267558840246
C           -8.46401739245995       55.86489751624640      116.51903418575269
H           -8.01877317164954       56.62297404710866      117.16407457443870
H           -8.59596727970997       54.95627808300772      117.10115827953767
H           -9.44794750459274       56.22018204502528      116.21104289266140
C           -7.05870594905203       53.10154153833295      115.54520538328751
H           -6.05667994429095       52.76980264319661      115.81826870896674
H           -7.47625243835320       52.37471087895652      114.84819657672922
H           -7.67311930541163       53.10835528612385      116.44223507735092
C           -8.65315225998535       60.82536090267669      114.66783301359351
H           -8.34047213082762       60.41423337393773      115.62667038725158
H           -9.71004553769529       60.59063804742750      114.52900432741313
H           -8.54460632480840       61.90755012127648      114.70138399872717
C           -7.51771181253021       62.28441729241736      112.04387855836221
H           -6.67533429211928       62.73243258842383      111.52971478664016
C           -8.61187879036563       63.01316006706464      112.23977007538966
H           -9.49595599378489       62.60872162405423      112.70095017356903
H           -8.66934270797441       64.03983213652539      111.91821322094934
C           -4.29133303522971       60.95925828479234      108.04909803099038
H           -4.23202999663606       61.73463209570161      108.81149536813712
H           -5.17802065987737       61.14992900826244      107.44206953541475
H           -3.41412159095067       61.03293409298669      107.40965326571114
C           -2.83708946991152       58.23621800708899      107.16345761665445
H           -2.02696139865033       57.53643956302905      107.33294722560730
C           -2.95866510588001       58.80350110612945      105.96766659451110
H           -3.77009981569503       59.46891779434339      105.72922524813437
H           -2.25971185058146       58.59967665319389      105.17338572383549
C           -2.58302497116130       53.28734311165928      109.01265714170853
H           -1.63662267235959       53.82827155845549      109.01917461448127
H           -3.03651012711963       53.41139115883511      108.02885622845010
H           -2.37420303366221       52.23093598295878      109.16266938849002
C           -3.89081060786242       51.73010590060668      111.54899274408238
H           -3.25365868220076       51.18919999134836      110.85369015757931
H           -4.86401646595345       51.23925956691007      111.57579584392687
H           -3.44943909451109       51.66047381221463      112.54345622403214
O           -3.90898657974547       57.62636997950002      113.13533183864570
H           -4.11696989232645       57.09509710227709      113.91171721218466
H           -4.15863417717701       58.53445272797083      113.33843759040370
C           -9.19196941406544       55.40377032341375      107.78760508553830
H           -9.84335107582529       56.15913431363643      107.34821379631541
H           -9.78052542127645       54.50175828887659      107.95493551490283
H           -8.39848602883413       55.17618107191583      107.08282510633138
N           -9.36745999578575       56.25755442251265      110.13530071331444
H          -10.37316681378266       56.23624087749152      110.17604447585762
C           -8.60155084326083       55.89222662547513      109.05935121914843
C           -8.52907251443498       56.65158276592738      111.11996498981837
H           -8.85158840379714       56.99215031668169      112.08202730678065
N           -7.28008100397931       56.55776106181067      110.73340584097438
C           -7.30872592400055       56.08629754095463      109.45363358053417
H           -6.40388007185804       55.92043530657141      108.90624252123951
