78
 energy: -115.969833668777 gnorm: 0.264617100907 xtb: 6.7.1 (edcfbbe)
Fe         -13.85000000000000      -26.44100000000000      -18.63000000000000
N          -15.23700000000000      -27.82500000000000      -19.24100000000000
N          -12.82300000000000      -26.75900000000000      -20.35900000000000
N          -12.56200000000000      -24.98000000000000      -18.09100000000000
N          -15.06600000000000      -25.95000000000000      -17.01899999999999
C          -16.40100000000000      -28.16100000000000      -18.57100000000000
C          -17.08600000000000      -29.15100000000000      -19.36600000000000
C          -16.36200000000000      -29.39000000000000      -20.47000000000000
C          -15.18900000000000      -28.56200000000000      -20.41600000000000
C          -13.05800000000000      -27.76500000000000      -21.28400000000000
C          -11.89000000000000      -27.88700000000000      -22.12400000000000
C          -10.98900000000000      -26.99700000000000      -21.71400000000000
C          -11.56300000000000      -26.25900000000000      -20.60700000000000
C          -11.47000000000000      -24.58100000000000      -18.82800000000000
C          -10.88300000000000      -23.41800000000000      -18.21000000000000
C          -11.63100000000000      -23.12500000000000      -17.13400000000000
C          -12.68500000000000      -24.10700000000000      -17.03300000000000
C          -14.66500000000000      -25.08200000000000      -15.99300000000000
C          -15.51700000000000      -25.28700000000000      -14.84900000000000
C          -16.51100000000000      -26.36400000000000      -15.24200000000000
C          -16.17100000000000      -26.71400000000000      -16.60400000000000
C          -16.83000000000000      -27.66700000000000      -17.35700000000000
H          -17.76500000000000      -28.06000000000000      -16.95900000000000
C          -14.20200000000000      -28.51899999999999      -21.37400000000000
H          -14.33800000000000      -29.12700000000000      -22.26800000000000
C          -10.97500000000000      -25.21600000000000      -19.93700000000000
H          -10.02100000000000      -24.85800000000000      -20.32400000000000
C          -13.64100000000000      -24.16700000000000      -16.05600000000000
H          -13.58600000000000      -23.42500000000000      -15.25900000000000
C          -16.69400000000000      -30.37300000000000      -21.61000000000000
H          -17.65600000000000      -30.88400000000000      -21.39099999999999
H          -15.89100000000000      -31.13700000000000      -21.69300000000000
H          -16.79000000000000      -29.81800000000000      -22.56800000000000
C          -18.42300000000000      -29.81300000000000      -18.98200000000000
H          -19.02600000000000      -29.10500000000000      -18.37400000000000
H          -18.23000000000000      -30.72800000000000      -18.38300000000000
H          -18.99100000000000      -30.07300000000000      -19.90100000000000
C          -11.71700000000000      -28.89500000000000      -23.27900000000000
H          -12.08300000000000      -28.44200000000000      -24.22500000000000
H          -12.30600000000000      -29.81300000000000      -23.06800000000000
H          -10.64200000000000      -29.15200000000000      -23.39500000000000
C           -9.59200000000000      -26.79100000000000      -22.32500000000000
H           -9.43400000000000      -26.73200000000000      -23.41100000000000
C           -8.55100000000000      -26.68300000000000      -21.49100000000000
H           -8.69900000000000      -26.74100000000000      -20.40300000000000
H           -7.53400000000000      -26.53500000000000      -21.88400000000000
C           -9.64500000000000      -22.68600000000000      -18.77600000000000
H           -9.71700000000000      -22.63800000000000      -19.88400000000000
H           -8.72200000000000      -23.23900000000000      -18.49900000000000
H           -9.60300000000000      -21.65200000000000      -18.37200000000000
C          -11.44700000000000      -22.01000000000000      -16.09000000000000
H          -12.31700000000000      -21.47700000000000      -15.67900000000000
C          -10.22500000000000      -21.66800000000000      -15.66300000000000
H           -9.33300000000000      -22.18100000000000      -16.05300000000000
H          -10.09700000000000      -20.87000000000000      -14.91600000000000
C          -15.41200000000000      -24.55600000000000      -13.50200000000000
H          -15.71800000000000      -23.49600000000000      -13.63100000000000
H          -14.36200000000000      -24.58599999999999      -13.13900000000000
H          -16.08400000000000      -25.03800000000000      -12.76000000000000
C          -17.63000000000000      -26.94300000000000      -14.35600000000000
H          -18.55800000000000      -26.34700000000000      -14.49300000000000
H          -17.32600000000000      -26.89500000000000      -13.28900000000000
H          -17.83200000000000      -27.99600000000000      -14.64700000000000
O          -15.06500000000000      -24.83800000000000      -19.91300000000000
H          -15.79800000000000      -25.31400000000000      -20.30400000000000
H          -14.88500000000000      -23.97300000000000      -20.01500000000000
C          -11.30000000000000      -29.21100000000000      -14.37500000000000
H          -10.21100000000000      -29.02700000000000      -14.25300000000000
H          -11.50100000000000      -30.29400000000000      -14.23100000000000
H          -11.85300000000000      -28.61800000000000      -13.61600000000000
N          -11.19900000000000      -29.35600000000000      -16.88700000000000
H          -10.50400000000000      -30.07500000000000      -16.90300000000000
C          -11.72300000000000      -28.79900000000000      -15.74000000000000
C          -11.75800000000000      -28.79100000000000      -17.94100000000000
H          -11.52600000000000      -29.04400000000000      -18.97500000000000
N          -12.62600000000000      -27.88900000000000      -17.51600000000000
C          -12.61800000000000      -27.86900000000000      -16.14400000000000
H          -13.25200000000000      -27.19300000000000      -15.58400000000000
78
 energy: -116.026439145874 gnorm: 0.108489928299 xtb: 6.7.1 (edcfbbe)
Fe         -13.86678471526736      -26.41766149548797      -18.65206700445377
N          -15.23424105983225      -27.81760162091191      -19.24116737860185
N          -12.79602613298824      -26.78811676777494      -20.34123506286625
N          -12.57412090637105      -24.96942581565945      -18.10279956455416
N          -15.04238477129563      -25.97952736763839      -17.00710072332344
C          -16.39032911404284      -28.15856126032662      -18.57727462391210
C          -17.10153836415859      -29.15348898070868      -19.35922308348117
C          -16.37171256676653      -29.39469798089854      -20.47541388574362
C          -15.20023599064537      -28.55226460588962      -20.40457459906810
C          -13.04218960982718      -27.76164551523326      -21.27923241433543
C          -11.89191111742407      -27.88984428994483      -22.14740733346058
C          -10.97317503865333      -26.98316356018749      -21.73480336470880
C          -11.55558736016387      -26.27539774628854      -20.60810972726350
C          -11.47371755164316      -24.57774845177125      -18.81657315020594
C          -10.87588254531994      -23.40907477895525      -18.20494674789825
C          -11.63092636018936      -23.11186825813030      -17.11262684663449
C          -12.69410974538270      -24.10280251705100      -17.04662403098758
C          -14.69194709027390      -25.11346342265736      -15.99033945953085
C          -15.55333503283408      -25.31291886994196      -14.85485578590846
C          -16.48483677787705      -26.32748535446657      -15.22884064425655
C          -16.14270975259165      -26.69896693100630      -16.58184928527725
C          -16.80778611092665      -27.65509378815012      -17.35311225811290
H          -17.73897264003429      -28.05127694285511      -16.95632730669186
C          -14.20154122950538      -28.51340875267547      -21.36262173159705
H          -14.33301228957596      -29.13103165852714      -22.24619179191397
C          -10.97336645661902      -25.21799443986536      -19.93597885069773
H          -10.02884880368824      -24.85536920126052      -20.32671862308979
C          -13.65654812992190      -24.18133034385311      -16.05856762549566
H          -13.59180952455604      -23.44788733080621      -15.25930973179352
C          -16.69028430202554      -30.36106544988894      -21.59744321933837
H          -17.63545181083382      -30.87490091847434      -21.39562576251888
H          -15.90298530222512      -31.11803734764917      -21.69189925118622
H          -16.78310651775207      -29.82751851083065      -22.55076521006485
C          -18.41423583801673      -29.80211881924640      -18.98006860827462
H          -19.02073016345295      -29.11585562533816      -18.38202047626135
H          -18.23424782826538      -30.71116192991177      -18.39383616831294
H          -18.98040300803540      -30.06879415845765      -19.87889059687126
C          -11.72441144666469      -28.88744897157181      -23.27183002375348
H          -12.08078803412890      -28.45085132282909      -24.21219670754939
H          -12.29468139753922      -29.79972169167992      -23.07169245215862
H          -10.66616829656624      -29.14546272861656      -23.39034881854706
C           -9.60409656301845      -26.78293767986612      -22.29759422413951
H           -9.46619658799438      -26.74070687325596      -23.37804177862575
C           -8.55461740968598      -26.68067524353934      -21.49000644141959
H           -8.68115992029809      -26.74371982244586      -20.41585218817701
H           -7.54935612755873      -26.53779799951156      -21.87583508441439
C           -9.66374021512363      -22.69239788257282      -18.76826547675348
H           -9.72064816103433      -22.64057815000396      -19.86188405711602
H           -8.74378060928654      -23.22806197989170      -18.50179746750104
H           -9.60643057189032      -21.67259502270675      -18.37456990821538
C          -11.43510746261395      -22.02477326016186      -16.10710978999075
H          -12.30949711659610      -21.51175142930781      -15.70579573119261
C          -10.22948923563603      -21.67184027736112      -15.67240405125803
H           -9.34016839732444      -22.17140163743496      -16.03711243459098
H          -10.09912265010235      -20.88669165401163      -14.93250602877742
C          -15.42588702813606      -24.57895878883561      -13.53300681083828
H          -15.71624926360413      -23.52402013030320      -13.63737576457460
H          -14.39175331839438      -24.59580962601590      -13.15926050779381
H          -16.07389799796320      -25.03214725894187      -12.77602913025970
C          -17.59718081246760      -26.91842395807879      -14.37695699879307
H          -18.53193039403029      -26.35189541582628      -14.49582253546048
H          -17.32632049776010      -26.89204194310972      -13.31516831385932
H          -17.81002279269502      -27.96178938020087      -14.64668521529628
O          -15.06188029472737      -24.86870803935748      -19.89885794537879
H          -15.80407977577476      -25.30676090965991      -20.30940086510215
H          -14.88593450088797      -23.95346727916704      -20.01956058387354
C          -11.29485924399288      -29.21340347246289      -14.37629431517771
H          -10.22125197541993      -29.03446097167409      -14.24366683817690
H          -11.49440972556913      -30.28016004499859      -14.22137164509383
H          -11.84256834913138      -28.63268391653877      -13.62916853431961
N          -11.19751147860705      -29.35810058036831      -16.87740042303248
H          -10.49835116597607      -30.08086444829121      -16.89725401503868
C          -11.71948463948702      -28.80018304405768      -15.73796937546182
C          -11.77566704103618      -28.77515648628177      -17.93710151486269
H          -11.54380869103252      -29.02674155798855      -18.95958217009745
N          -12.64499389535295      -27.87066092112699      -17.53380413474568
C          -12.61895509324952      -27.87054022302341      -16.16365598563032
H          -13.24551026265945      -27.20303716820183      -15.60132178425915
78
 energy: -116.042492002706 gnorm: 0.038144011455 xtb: 6.7.1 (edcfbbe)
Fe         -13.87337775483375      -26.41330569370778      -18.65773207640106
N          -15.23549868447008      -27.80066203775986      -19.24498050553269
N          -12.77857472121624      -26.80836205238784      -20.32045671478726
N          -12.59351915247027      -24.95553564107593      -18.12187629517550
N          -15.01975131978125      -26.00292066644827      -17.00105044101577
C          -16.37848790481012      -28.14892244408341      -18.58235296997870
C          -17.10920248511390      -29.14547459855334      -19.35171965359113
C          -16.37647460666679      -29.38800335111089      -20.47568454524917
C          -15.20607783055505      -28.53762665550830      -20.39275888553900
C          -13.02788197015832      -27.76069959856186      -21.26281489218305
C          -11.89732574611482      -27.88679290598344      -22.15725791260606
C          -10.96564625275271      -26.97456965401396      -21.73893762664405
C          -11.55134659479574      -26.29299558215377      -20.59602401492597
C          -11.48568801584966      -24.57355767056112      -18.81491788784978
C          -10.87519943205737      -23.41140053115184      -18.20167913766173
C          -11.63562874396005      -23.11126198814776      -17.10016709280992
C          -12.70943404796832      -24.10056374366639      -17.06614343113846
C          -14.69799152876273      -25.14187459564399      -15.99633017216308
C          -15.57954663624313      -25.33460766468770      -14.86778675295410
C          -16.45947645415000      -26.29802981453012      -15.22328960476410
C          -16.10960487331818      -26.69704505811305      -16.57213156084284
C          -16.77984618327127      -27.64888985076587      -17.34844333562252
H          -17.70505725768093      -28.04628350189111      -16.94820388448166
C          -14.19512725814342      -28.51148053386141      -21.34300823605635
H          -14.32080661278914      -29.13996261036033      -22.21562112055130
C          -10.97560590929087      -25.22020686462671      -19.93336605741460
H          -10.03991368024470      -24.85206857550929      -20.33012278590876
C          -13.66561522362418      -24.19929993975389      -16.06495438885984
H          -13.59461163559638      -23.47956946247898      -15.25867476549588
C          -16.68355328665739      -30.34368733719838      -21.58294097909782
H          -17.61961580936132      -30.86168656580612      -21.39211025217226
H          -15.90145797064912      -31.09510115132329      -21.68185712409025
H          -16.77147387307611      -29.82345643976402      -22.53611760457888
C          -18.40311264131102      -29.78663854778149      -18.97357513769220
H          -19.01537072354719      -29.11504342978834      -18.37999515553646
H          -18.23068271632525      -30.69427592683518      -18.39453402601819
H          -18.96711247600340      -30.06075441819984      -19.86259923377477
C          -11.73537468790423      -28.87357964970814      -23.26481843083247
H          -12.08699890221021      -28.45435649727112      -24.20756372395482
H          -12.29342225206006      -29.78471329191654      -23.06871126686518
H          -10.68570341395946      -29.13394062211733      -23.38472072727309
C           -9.62538769645884      -26.77854894638534      -22.26690496717877
H           -9.51032222783907      -26.75157567597970      -23.34594550648769
C           -8.55768669199903      -26.67592523235123      -21.48544652991118
H           -8.65677500244232      -26.74165006360543      -20.41616047555047
H           -7.56296370417152      -26.53932068950407      -21.87534969840468
C           -9.68377407550338      -22.70129809834073      -18.75546793781634
H           -9.73636249161611      -22.64721091518135      -19.84161386733586
H           -8.76322575828322      -23.22640076141036      -18.49675722635625
H           -9.61995034878185      -21.68905060351157      -18.36450220259005
C          -11.43021820671991      -22.05441470200329      -16.12419979658672
H          -12.31258887295479      -21.55830940633003      -15.73438526217926
C          -10.23439041010759      -21.68101864159392      -15.68229970834816
H           -9.33823402620416      -22.16650917223652      -16.02378781652995
H          -10.10772334484692      -20.89561524666098      -14.95513171178007
C          -15.44426866488257      -24.60153188404699      -13.56556663017390
H          -15.72482380535365      -23.55085767726538      -13.66737033508943
H          -14.41494011458101      -24.62117596355522      -13.20029276208151
H          -16.07941708089634      -25.04064181586372      -12.80016774976777
C          -17.56462223120561      -26.89260428159121      -14.39707956675554
H          -18.49861758921862      -26.33806438126512      -14.51625183856048
H          -17.30923506230769      -26.87551634549683      -13.33817584295024
H          -17.76741112006917      -27.92891452250312      -14.66835990380982
O          -15.05617503332701      -24.89820463259820      -19.87295832981330
H          -15.81083207439258      -25.28302109641426      -20.32171681563137
H          -14.88842346485893      -23.96696723919801      -20.01895806489081
C          -11.29229144641605      -29.21343967571057      -14.37773868989251
H          -10.22668793313115      -29.03892473622728      -14.23949981938494
H          -11.49043894298734      -30.27186226293086      -14.21755953154524
H          -11.83761649167197      -28.64014019499716      -13.63659987980012
N          -11.19878158767134      -29.35697769684855      -16.87598131679200
H          -10.49784212428186      -30.08084675427489      -16.90282282830574
C          -11.71798799407757      -28.79911917508930      -15.73815690135628
C          -11.79291610869059      -28.76101060477914      -17.93477272877468
H          -11.56454613928073      -29.00937750843121      -18.95114779865255
N          -12.65912713584751      -27.85982202098485      -17.54011501521527
C          -12.62023335207797      -27.87160651659579      -16.17474783206845
H          -13.23996437508996      -27.21131769342964      -15.60597670154183
78
 energy: -116.046355436483 gnorm: 0.019616875565 xtb: 6.7.1 (edcfbbe)
Fe         -13.87564910657990      -26.41391324252118      -18.65896585242679
N          -15.23066329805890      -27.79376288429618      -19.24158413847710
N          -12.77039320936799      -26.82389322031952      -20.29997504146701
N          -12.60518652122685      -24.95349468591700      -18.13515130194706
N          -14.99606963784826      -26.02413694549097      -16.99806067247654
C          -16.36980447908594      -28.14370333925070      -18.58164877133580
C          -17.10683415943630      -29.13357939799997      -19.34718434949156
C          -16.37493991309677      -29.37574798878758      -20.47093359313185
C          -15.20298769349457      -28.53050029566923      -20.38526952322216
C          -13.02193212977846      -27.76814796806434      -21.24602575507498
C          -11.90213784291784      -27.88562592710849      -22.15016101190376
C          -10.96655552206940      -26.97901478354143      -21.72477611593401
C          -11.54849346747843      -26.30543739580402      -20.57955711688593
C          -11.49379905527604      -24.57554001967459      -18.82118418234242
C          -10.87864053433895      -23.42355991570028      -18.20287207811143
C          -11.63785975321579      -23.12588374760764      -17.10118444969956
C          -12.71604059038343      -24.10557320815937      -17.07825906775655
C          -14.68224828032126      -25.15168519532984      -16.00460663140719
C          -15.57130910953622      -25.33189609627661      -14.87771493941492
C          -16.45196382217489      -26.30523483568244      -15.23393402862017
C          -16.08857600923155      -26.71280881432634      -16.57706310201915
C          -16.76298078583951      -27.65618225034339      -17.34464743000825
H          -17.67969266735576      -28.05798622292243      -16.93479943329937
C          -14.18775722754028      -28.51775138191924      -21.32750565543155
H          -14.30527008799053      -29.16097879641831      -22.18895941222261
C          -10.97677562027057      -25.22358031468448      -19.93238285454076
H          -10.04677236661922      -24.84983559350207      -20.33576446741861
C          -13.66104577271818      -24.20880200786716      -16.07022898056378
H          -13.58422220196269      -23.50377166834603      -15.25326172841295
C          -16.67450623508526      -30.32875200982611      -21.57722769343853
H          -17.60985798294241      -30.84972994840729      -21.39030347187399
H          -15.88712106685725      -31.07565471782198      -21.67029665923909
H          -16.75631429278973      -29.80809282573460      -22.53101229173371
C          -18.39802614223428      -29.77122617677562      -18.96168543204185
H          -19.01134660921498      -29.10006097369699      -18.36755519129302
H          -18.22287836464532      -30.67756869250735      -18.38076190814873
H          -18.96301372792835      -30.04988091268406      -19.84897792937246
C          -11.74870613054273      -28.86454257151710      -23.26336500160365
H          -12.10590410668067      -28.44681293553882      -24.20530615708185
H          -12.30429392968974      -29.77732604448937      -23.06496430351200
H          -10.69894022399337      -29.12298233918555      -23.38776821606240
C           -9.63223548930485      -26.77934074200294      -22.24885596445222
H           -9.53386650667797      -26.76296930162881      -23.32914522632347
C           -8.55279409698165      -26.66887688976602      -21.48247866314516
H           -8.63014295314927      -26.73229845081713      -20.40977257098957
H           -7.56484979958603      -26.53459733693644      -21.88799353843991
C           -9.69282175918053      -22.70769439300469      -18.74757799424480
H           -9.74851791411369      -22.64831059995814      -19.83323626149435
H           -8.77086188689390      -23.23056561225369      -18.48983724309001
H           -9.63657136792288      -21.69876419364121      -18.34631063217851
C          -11.43298116399043      -22.07486383150213      -16.12952992759330
H          -12.32443598477452      -21.59606810874785      -15.74007686701991
C          -10.24100663284061      -21.68346150397322      -15.68976874027513
H           -9.33583657033482      -22.16666144095941      -16.01445944672221
H          -10.12518057342650      -20.89184350177727      -14.96915830909298
C          -15.45060262110719      -24.60103483085665      -13.58283285376219
H          -15.73458132057720      -23.55466560715817      -13.69682011791800
H          -14.42153424898094      -24.63020953263032      -13.22400740037030
H          -16.09070557351927      -25.04476510442570      -12.82500528933999
C          -17.55567395979103      -26.88674042726757      -14.41412933376649
H          -18.48171433726152      -26.32550872987962      -14.54705101594591
H          -17.29872495689396      -26.85996536826774      -13.35667844423285
H          -17.74341187040660      -27.92192129294797      -14.69032017800081
O          -15.07551905170654      -24.90956059730362      -19.84055375880813
H          -15.81776073449618      -25.26350194560491      -20.34305312502851
H          -14.88326094405712      -23.98616117524365      -20.01945623389647
C          -11.29072139172731      -29.21296587352063      -14.38381884850334
H          -10.22489367322643      -29.03986962863621      -14.24308326170207
H          -11.48819386649544      -30.27154537435849      -14.22175973331558
H          -11.83579152724856      -28.64166421475258      -13.64062602669824
N          -11.20762531618610      -29.34933640726234      -16.88567298382207
H          -10.50617679209156      -30.07237842288834      -16.92055685200962
C          -11.72094218686335      -28.79501654019221      -15.74255135044005
C          -11.81159154357811      -28.74842411429130      -17.93842336393221
H          -11.59120381348616      -28.99183265706591      -18.95709281192014
N          -12.67436294343432      -27.85019082146027      -17.53618141258564
C          -12.62648011467108      -27.86779097598798      -16.17240482304994
H          -13.24191483519816      -27.21197615931290      -15.59483345544504
78
 energy: -116.048495176853 gnorm: 0.033166921890 xtb: 6.7.1 (edcfbbe)
Fe         -13.87370595245181      -26.42400936053032      -18.65233461108314
N          -15.22037218582387      -27.79048026581655      -19.23207834047678
N          -12.76919428132821      -26.83493246889106      -20.27690838219855
N          -12.61699985540751      -24.95734072778032      -18.14813419596004
N          -14.97213557019336      -26.04041613533377      -17.00835968136522
C          -16.35847249600793      -28.14059727837713      -18.57742367030413
C          -17.10166019272959      -29.12078403165737      -19.34072289627991
C          -16.37153549832930      -29.36266564722141      -20.46371318679240
C          -15.19683208762308      -28.52542334651064      -20.37507972297937
C          -13.01863080527214      -27.77561458947526      -21.22625180128834
C          -11.90829887337441      -27.88565803515456      -22.13658493691971
C          -10.96882450383665      -26.98699635289093      -21.70384099746408
C          -11.54789022184396      -26.31897192699514      -20.55882014857665
C          -11.50264158608799      -24.57967120048678      -18.82921162816218
C          -10.88216703431394      -23.44067670778817      -18.20351460268575
C          -11.63920283569603      -23.14798314082480      -17.10075087681352
C          -12.71986847351621      -24.11718304968026      -17.08843079542638
C          -14.66321327993951      -25.16356695716632      -16.01949701513446
C          -15.56001504165176      -25.33173065159841      -14.89632052745121
C          -16.43829938110575      -26.31237415434406      -15.25122795752505
C          -16.06279108318796      -26.72894817889707      -16.58704892580821
C          -16.74262809261189      -27.66938119095560      -17.33584031713844
H          -17.64857870156519      -28.07728807819554      -16.91230886021988
C          -14.17847540197619      -28.52883017939914      -21.30878788739636
H          -14.28676391090301      -29.18794181087359      -22.15788387801119
C          -10.97781421994325      -25.22777632647367      -19.93188878235275
H          -10.05201594462022      -24.85193459974652      -20.34095075270733
C          -13.65135034885774      -24.22425218439392      -16.07245267801288
H          -13.56995733576979      -23.53478770144316      -15.24443034133384
C          -16.66289466473958      -30.31146698056544      -21.57410790395555
H          -17.59876741599610      -30.83523730601533      -21.39454967606266
H          -15.86980949129263      -31.05470435010942      -21.66025488996926
H          -16.73651266934975      -29.78740925219231      -22.52763314309720
C          -18.39310990103764      -29.75166960220072      -18.94554590433873
H          -19.00277004885321      -29.07414318453272      -18.35288575478310
H          -18.21485003593694      -30.65344834350712      -18.35655936589236
H          -18.96201439967649      -30.03672139970416      -19.82939950453252
C          -11.76653158541293      -28.85470573298546      -23.26067479020773
H          -12.13690069433269      -28.43128862559368      -24.19602919036217
H          -12.32023863022417      -29.76983242932745      -23.06131436279504
H          -10.71704714439660      -29.11094066944076      -23.39952861880539
C           -9.63651061604344      -26.78675979296440      -22.23159134924609
H           -9.55311945421377      -26.78255487294437      -23.31322633103048
C           -8.54622864964382      -26.66050295214001      -21.48234194856009
H           -8.59915333414656      -26.70633404034630      -20.40559706497806
H           -7.56740899734997      -26.52166083349343      -21.90939111258398
C           -9.69928655892647      -22.71543344019673      -18.73869571262739
H           -9.75497818462173      -22.64519591916292      -19.82438854232203
H           -8.77385266296165      -23.23410382697180      -18.48321437698215
H           -9.65404195678892      -21.71055981772497      -18.32307072569870
C          -11.43914932404813      -22.10021855905747      -16.12712512433604
H          -12.33966080231244      -21.63665967519204      -15.73985198256141
C          -10.25229606041568      -21.68871768208574      -15.69062589873111
H           -9.33586053518171      -22.15193762818210      -16.01561721018354
H          -10.15131541752767      -20.88570985752684      -14.97998166353975
C          -15.45652991824117      -24.59682191682915      -13.60689611922240
H          -15.74447247592528      -23.55349092995919      -13.72913972819583
H          -14.43103370165870      -24.62628997828791      -13.24119288950419
H          -16.10488320910110      -25.04218934268565      -12.85620144239837
C          -17.54582853914113      -26.88236154126923      -14.43719129574157
H          -18.46752901912813      -26.31879978567910      -14.58550557333782
H          -17.29677709737715      -26.84386214858661      -13.37782962547371
H          -17.72666683379347      -27.91833859617016      -14.70907150735104
O          -15.13012468306770      -24.91110653064758      -19.75413198145475
H          -15.80096455211078      -25.25183867151927      -20.38192245151175
H          -14.86210428501064      -24.01961188755566      -20.05725522245424
C          -11.28748783850603      -29.21397458178682      -14.39426763653850