78
 energy: -116.057577500476 gnorm: 0.000028136139 xtb: 6.7.1 (edcfbbe)
Fe         -13.83873604722551      -26.43663553160977      -18.55642865427621
N          -15.17863058351438      -27.81986519557432      -19.14407385933652
N          -12.73721412544161      -26.82845337029087      -20.19725502534338
N          -12.56033996497819      -25.00204704701992      -18.03714199200871
N          -14.94667112288137      -26.05213258145147      -16.94866144183776
C          -16.29428329338784      -28.21042391517611      -18.47214809571996
C          -17.00029437115282      -29.23573904248008      -19.20607708396767
C          -16.28271675407151      -29.45903013514371      -20.34049317426352
C          -15.14149293905309      -28.57428059921606      -20.27896991469355
C          -13.00855695579344      -27.74398003699723      -21.16978337225550
C          -11.94007955340713      -27.79811380557150      -22.12993298555591
C          -10.98412354095092      -26.91721762358960      -21.69668993774929
C          -11.51941839472020      -26.30386154328479      -20.49876154025702
C          -11.43349747065810      -24.63093265468496      -18.70450949205363
C          -10.79119091347744      -23.51930882793074      -18.04833017005137
C          -11.55296971077607      -23.23107844034155      -16.94789012743997
C          -12.65695305756804      -24.17274797869117      -16.96950882879172
C          -14.69277665442194      -25.12454473697213      -15.99052474225949
C          -15.69585619444427      -25.17581775455951      -14.94787570303338
C          -16.56354723433308      -26.15920748462186      -15.30345162800295
C          -16.07960778591381      -26.69222344728767      -16.55957863729310
C          -16.71587970052263      -27.69946492684045      -17.25881647871302
H          -17.61653613247073      -28.11269918857871      -16.83136814842224
C          -14.14256062184417      -28.53843172683381      -21.23261846032139
H          -14.23604394328674      -29.20284244972520      -22.07816466744122
C          -10.92879616006199      -25.24527591951606      -19.83617904353003
H          -10.00648800624962      -24.86270972651837      -20.24404549206504
C          -13.63550113156441      -24.23539243107825      -15.99465467400949
H          -13.56930223519937      -23.53872506330251      -15.17285095135951
C          -16.55198557750322      -30.40782573539514      -21.45822233663840
H          -17.48253178601103      -30.94515301235595      -21.29314239588874
H          -15.74640593350746      -31.13762124387128      -21.54666303020189
H          -16.62807018724586      -29.87380521209843      -22.40574751999686
C          -18.26693863325774      -29.87452868459990      -18.74985420078894
H          -19.05120326672704      -29.12691716548261      -18.62899677591078
H          -18.12163329691701      -30.36903739610617      -17.78919318791562
H          -18.60817345260064      -30.61577312425980      -19.46842934638138
C          -11.89988583691076      -28.69915546993875      -23.31600242318886
H          -12.78356562677573      -28.55606038274376      -23.93859358361436
H          -11.87327018376872      -29.74470154877247      -23.00591415698555
H          -11.01556643900900      -28.50137131967141      -23.91642192250042
C           -9.69866572665553      -26.66000748548986      -22.31195189629515
H           -9.69176215356529      -26.67735998708251      -23.39677843702388
C           -8.55789599576968      -26.45452145132357      -21.66345007112650
H           -8.49953157552840      -26.48038734073239      -20.58851757402272
H           -7.63491188376013      -26.27510016176026      -22.18965789384807
C           -9.57846171001846      -22.81463148696741      -18.54747374809303
H           -9.59088008314624      -22.74918883599290      -19.63431952881852
H           -8.67076079324500      -23.34365553170079      -18.25190048573353
H           -9.53737331556898      -21.80752784706806      -18.13742800231936
C          -11.37213261836001      -22.19722126923749      -15.95318585409443
H          -12.28415239085981      -21.77962693293148      -15.54271223256059
C          -10.20219483612654      -21.74242553461043      -15.51591611611834
H           -9.26585093890388      -22.15153919061460      -15.85310659291247
H          -10.14225972614562      -20.95668304570736      -14.78107308218260
C          -15.71077933830755      -24.28739297002282      -13.75158667508634
H          -15.80037424566338      -23.24345965592375      -14.05277106824666
H          -14.78863561118138      -24.39625479632066      -13.18019663130698
H          -16.54780116527996      -24.52821657913876      -13.10079760921978
C          -17.78633259645581      -26.64090454032060      -14.60072459655050
H          -18.66901801171876      -26.49428619026245      -15.22370910404759
H          -17.93365023743661      -26.10236588992171      -13.66783030040551
H          -17.70496252817563      -27.70432666092538      -14.37449736736256
O          -15.02458877216753      -24.96119445039032      -19.85206426702000
H          -15.77263639970725      -25.52286368125113      -20.08289506148320
H          -14.44821795246676      -24.92664532532547      -20.62319773948071
C          -10.85100384155008      -29.20013049261405      -14.75016937327582
H           -9.81923373025307      -29.44752205620203      -14.99963849075188
H          -11.30278416826514      -30.06782113321819      -14.26957019369181
H          -10.85011729630505      -28.37346163557775      -14.04678834833027
N          -11.78307975088568      -29.66697335424202      -17.02712988594660
H          -11.42655287174516      -30.60624533024363      -17.09200948380169
C          -11.61013286204227      -28.81601447658770      -15.96704461554916
C          -12.51138416629001      -29.01490160577012      -17.96111064054220
H          -12.80019758945531      -29.43894297839580      -18.90042935558375
N          -12.80976848660801      -27.80414891428904      -17.55714771787861
C          -12.25635878513610      -27.66546784152041      -16.31809846114407
H          -12.35926102564574      -26.75344986013062      -15.76715629609855
