87
 energy: -128.361586677486 gnorm: 0.000074523655 xtb: 6.7.1 (edcfbbe)
Fe          33.32535012208159       20.22207581230571       34.29801399541137
N           33.11461174103141       18.42146380635899       35.15866458516968
N           34.00605722569325       19.33988236304158       32.62110299454844
N           33.55170665168675       22.04612591596312       33.45370540348998
N           32.67865187079015       21.10166361879623       35.98614583761086
C           32.84114751244597       18.16428467230148       36.46841602452755
C           32.76677409234855       16.75432392599983       36.69839370822647
C           32.97840812927566       16.14768286517050       35.48316995589486
C           33.21557317734509       17.19907309309076       34.54103637308959
C           34.00951324182805       17.99968000173824       32.33217518483546
C           34.57838163268482       17.75781139839344       31.06066947101496
C           34.96124029246960       19.00356194027616       30.55383378887542
C           34.58283650329702       19.96777278671242       31.55287813154697
C           34.16616066773715       22.31444911913643       32.26149919211226
C           34.13848128520267       23.69892385731993       31.97978509139857
C           33.45410948192905       24.30816275407230       33.03944678435838
C           33.13318293406608       23.24923846386578       33.95399769801929
C           32.37456644313441       22.41716163729128       36.16226923656776
C           31.95456751495367       22.66067981475519       37.50469241334221
C           32.03692142244852       21.45258127730996       38.16419200976007
C           32.47222959250391       20.49476146230528       37.20192153404555
C           32.58147750219072       19.13171034121799       37.43839239621160
H           32.36505297241176       18.78396400628053       38.43644877164083
C           33.58450560298566       16.99895829503835       33.22146214327034
H           33.63159426264891       15.97829558507096       32.87485185497137
C           34.68009816763898       21.33847521744675       31.39190302700749
H           35.10873680594773       21.69671013910591       30.46960026235005
C           32.53704223427610       23.41872389591111       35.19727842166633
H           32.25931334023727       24.41919156830736       35.49010284289839
C           32.99595038236819       14.69400937307301       35.15144097191849
H           32.72592791567003       14.09654366520016       36.01863674067610
H           33.98816260226641       14.38462182490264       34.81888926068595
H           32.28957965700714       14.47302746744739       34.35060970228921
C           32.49132753975453       16.12622480110015       38.02235002086035
H           31.49682283147725       16.39824731553516       38.37901205370494
H           33.21724935259332       16.46001680649911       38.76432679508567
H           32.54535623332859       15.04235944357394       37.95536780088290
C           34.80887953025991       16.41972790491027       30.44635670629455
H           33.98274545283237       16.14036042112776       29.78887256541319
H           34.90400520518398       15.65046984058128       31.21040677708308
H           35.72376759225492       16.43341213188512       29.85658688827678
C           35.61676767623307       19.32239610841882       29.31991697632505
H           36.16257009387729       20.25938894346724       29.31586404688105
C           35.61003908127315       18.59938591738544       28.19550303920251
H           35.04899134597326       17.68847743528481       28.09440299084201
H           36.15108235494223       18.92420924913014       27.32223995564033
C           34.78364420401175       24.36270660215962       30.81206594657782
H           34.08547177289673       24.46454929311625       29.97836185715662
H           35.63873614757733       23.78574825273765       30.46441909392834
H           35.13008261011616       25.35637607847789       31.09110146795515
C           33.13006459860052       25.68940943390212       33.24378060228763
H           32.92719303960366       25.97159412641062       34.27100637543737
C           33.03089579131268       26.63958382997002       32.30876580228124
H           33.15894771547798       26.43909255976720       31.26104267339002
H           32.78739230888856       27.65544495831312       32.57275308550761
C           31.53821452609301       23.99020654906110       38.03750914884288
H           30.72439472106580       24.40716626925884       37.44305195323218
H           32.36914813288786       24.69735356836886       38.01030930188119
H           31.19820067649746       23.90440791533531       39.06660101414470
C           31.72569320693212       21.14411873376465       39.58959944665450
H           31.48686654981881       22.05154031801201       40.13899017589295
H           32.57665338086192       20.66453783904386       40.07400121750361
H           30.87340083790302       20.46669159996367       39.66089860946577
C           28.45423778000664       18.69282008704972       31.93494854288766
H           28.17785113343525       19.17555396767608       30.99774182994562
H           27.56690460579281       18.63861295133794       32.56547855255180
H           28.79149146946737       17.68370995521103       31.72034446277270
N           29.39648338073706       20.74981121816119       33.01029676761809
H           28.57404061526847       21.31729769371007       32.88405497404474
C           29.53843391461361       19.44491832313393       32.61429149748651
C           30.55193188683826       21.13368835245052       33.58796678839087
H           30.73070291393310       22.10927478134315       33.99343464009753
N           31.42001597757497       20.15078631596072       33.58371114392140
C           30.80498358667511       19.09262958651152       32.98172879065761
H           31.31174241853289       18.15815141788778       32.85508782277294
C           38.66690631235152       19.22557670674653       35.64209720268883
H           38.94464086636638       19.22098920818413       36.69597216472886
H           39.43170970251036       19.77145633927096       35.09002929179542
H           38.64332688911537       18.20146053476521       35.28335584681440
N           37.06632963176374       21.14424989821130       35.81455887415148
H           37.72145404350297       21.78529414123173       36.23201469678759
C           37.33415253343894       19.84986940431579       35.45100738134281
C           35.77876737102853       21.40117083107765       35.50837262968555
H           35.29039664335789       22.33857327924923       35.68135007893601
N           35.21333529162478       20.34651035938802       34.97252420431002
C           36.16611699504585       19.37225883918596       34.92980660301239
H           35.94752654589151       18.40353959616957       34.52973501453689
