71
 energy: -108.853609089165 gnorm: 0.194805746252 xtb: 6.7.1 (edcfbbe)
Fe          19.56600000000000       12.09000000000000        9.74500000000000
N           17.91300000000000       11.98800000000000        8.62200000000000
N           20.32900000000000       10.51100000000000        8.79900000000000
N           21.15800000000000       12.08200000000000       10.98200000000000
N           18.77900000000000       13.60200000000000       10.74800000000000
C           16.81300000000000       12.85300000000000        8.63300000000000
C           15.82600000000000       12.45700000000000        7.63200000000000
C           16.30700000000000       11.32400000000000        7.01900000000000
C           17.60900000000000       11.05500000000000        7.62100000000000
C           19.74500000000000        9.77900000000000        7.76600000000000
C           20.62300000000000        8.71800000000000        7.31700000000000
C           21.76900000000000        8.79700000000000        8.06400000000000
C           21.57500000000000        9.91100000000000        8.97900000000000
C           22.29200000000000       11.29600000000000       10.91200000000000
C           23.16800000000000       11.54300000000000       12.03700000000000
C           22.54200000000000       12.46400000000000       12.85500000000000
C           21.30500000000000       12.79800000000000       12.16900000000000
C           19.25100000000000       14.18600000000000       11.93000000000000
C           18.39900000000000       15.26400000000000       12.35400000000000
C           17.39000000000000       15.37300000000000       11.45800000000000
C           17.60400000000000       14.32600000000000       10.46500000000000
C           16.68600000000000       13.95400000000000        9.47200000000000
H           15.80100000000000       14.57900000000000        9.34800000000000
C           18.47700000000000       10.03800000000000        7.21300000000000
H           18.14400000000000        9.39300000000000        6.40000000000000
C           22.48800000000000       10.28000000000000        9.97200000000000
H           23.42900000000000        9.73100000000000       10.01700000000000
C           20.39900000000000       13.77000000000000       12.62400000000000
H           20.60200000000000       14.23600000000000       13.58800000000000
C           15.55900000000000       10.39600000000000        6.04800000000000
H           14.52600000000000       10.77500000000000        5.89500000000000
H           15.50800000000000        9.37100000000000        6.47300000000000
H           16.08400000000000       10.37500000000000        5.06900000000000
C           14.47900000000000       13.13300000000000        7.36700000000000
H           14.55300000000000       14.21500000000000        7.61000000000000
H           13.69600000000000       12.67300000000000        8.00700000000000
H           14.20800000000000       13.02200000000000        6.29500000000000
C           20.28000000000000        7.68700000000000        6.23700000000000
H           20.74900000000000        7.98700000000000        5.27500000000000
H           19.17800000000000        7.63800000000000        6.10100000000000
H           20.67100000000000        6.69000000000000        6.53200000000000
C           22.90400000000000        7.97600000000000        8.01100000000000
H           23.50400000000000        7.85900000000000        8.92500000000000
C           23.34100000000000        7.29700000000000        6.91400000000000
H           22.79400000000000        7.36300000000000        5.96200000000000
H           24.24600000000000        6.67400000000000        6.96700000000000
C           24.54900000000000       10.91700000000000       12.19400000000000
H           25.28200000000000       11.47500000000000       11.57300000000000
H           24.52200000000000        9.85900000000000       11.85600000000000
H           24.86500000000000       10.96800000000000       13.25800000000000
C           22.90200000000000       12.99800000000000       14.11200000000000
H           22.09800000000000       13.31000000000000       14.79300000000000
C           24.17800000000000       13.16600000000000       14.56900000000000
H           25.03700000000000       12.87700000000000       13.94500000000000
H           24.36200000000000       13.59200000000000       15.56600000000000
C           18.52400000000000       16.05000000000000       13.65400000000000
H           19.59700000000000       16.24000000000000       13.87100000000000
H           18.08600000000000       15.46500000000000       14.49000000000000
H           17.99900000000000       17.02400000000000       13.55600000000000
C           16.22400000000000       16.35500000000000       11.60400000000000
H           16.61600000000000       17.39400000000000       11.63500000000000
H           15.67500000000000       16.14900000000000       12.54800000000000
H           15.53800000000000       16.25500000000000       10.73600000000000
O           18.81200000000000       10.94600000000000       10.87000000000000
O           19.28600000000000       10.01600000000000       11.57600000000000
C           19.83300000000000       13.96900000000000        6.88600000000000
H           20.45000000000000       14.19500000000000        5.99000000000000
H           19.35500000000000       14.91400000000000        7.22000000000000
H           19.04200000000000       13.24900000000000        6.58500000000000
S           20.84600000000000       13.26700000000000        8.22800000000000
H           21.06300000000000       12.11200000000000        7.61700000000000
71
 energy: -108.895873603294 gnorm: 0.087294242593 xtb: 6.7.1 (edcfbbe)
Fe          19.54394234997114       12.02753925044553        9.80800388802421
N           17.90585645577382       11.99693533017498        8.59810517428326
N           20.33533990007791       10.48943393077967        8.78154633992406
N           21.17254734650997       12.09026835909097       10.99542961962911
N           18.77651937382594       13.62747251395303       10.75421712202096
C           16.82784929183908       12.85726752198313        8.62220690144355
C           15.83000690406522       12.44805605042191        7.64549045732305
C           16.30626379118420       11.31549324145591        7.04402996442270
C           17.61286757736742       11.05951603636397        7.62727873044362
C           19.73667522797958        9.77776619541267        7.76393154745704
C           20.60834544470034        8.72300665876152        7.31226882059774
C           21.75771359610430        8.80152396751041        8.06573138711853
C           21.56358438961068        9.90501278919333        8.99003819044075
C           22.28364298530522       11.29331898483139       10.91437927739615
C           23.17140383732252       11.54711760877316       12.02446942684084
C           22.53963763766681       12.46173613950369       12.83988872890717
C           21.29533585914965       12.79574642783080       12.16414018817779
C           19.25508800006444       14.18036716966646       11.92386084907320
C           18.39663934306269       15.24920724180039       12.36390385777625
C           17.38350007285295       15.35585397240378       11.45956092821264
C           17.60545748983575       14.31534170085611       10.47026189597045
C           16.70837950201511       13.95370148898676        9.46668584882517
H           15.81809882807961       14.56517880223333        9.35704562843435
C           18.47593590809818       10.04608446628609        7.22657929667218
H           18.14166148905637        9.40654890493528        6.41778554803780
C           22.47698143700077       10.29299522978136        9.96467465367195
H           23.40885210778372        9.74109439278745       10.01357045277049
C           20.39554716888257       13.76042068844055       12.60528989099134
H           20.60069583085245       14.23143579878505       13.56020548188233
C           15.58059222762719       10.41681073210528        6.06458778547297
H           14.55813436556902       10.77362438915941        5.90408675890125
H           15.52059267940350        9.39930079431683        6.46579272823285
H           16.08477889755818       10.37733107564847        5.09190088057426
C           14.50683397454567       13.12673626404762        7.37756150582085
H           14.55577311583588       14.19607015170264        7.60559978472487
H           13.71800038676185       12.68242126395179        7.99584085313353
H           14.22168003821563       13.01880237144751        6.32538360485164
C           20.27686802722176        7.70592753913581        6.24996893854402
H           20.73285489970195        7.98687668992095        5.29245578320624
H           19.19596088911516        7.63352777791037        6.10547516221886
H           20.66157224472786        6.72011248079992        6.53383511266564
C           22.91473655070676        7.96724124577427        8.00647176590326
H           23.50544806240130        7.86617870409381        8.91569625355844
C           23.33783768080080        7.29602882540475        6.92666823903132
H           22.82056295598153        7.36618200576852        5.97898543935700
H           24.22856632700213        6.68245701193908        6.96626374172281
C           24.52855828463298       10.91909569408665       12.19075311691148
H           25.26534333028642       11.46233523842845       11.58527971477494
H           24.52091588752393        9.87533465270154       11.86415789050673
H           24.84779502363644       10.95509647541576       13.23615908215910
C           22.91619888417650       12.99853166400947       14.11419028080200
H           22.10988057245776       13.30906071183159       14.77793264204316
C           24.16801892162075       13.16084548649540       14.56560249856799
H           25.02487736944363       12.90354199558545       13.95701973121859
H           24.35779965115489       13.57906353524111       15.54649015006853
C           18.53487376556181       16.03997151063160       13.63798696818601
H           19.58553573603709       16.23865700689454       13.86914697567026
H           18.09780895008899       15.47750238922167       14.47086102232323
H           18.01103278067653       16.99722397507457       13.55518971941610
C           16.23798560763150       16.33363011683107       11.58442936279908
H           16.61338035645528       17.36367091516744       11.62606085908335
H           15.68930293464756       16.14556770654321       12.51492240670410
H           15.54429765089895       16.25478307909549       10.74459062321447
O           18.73210328485197       10.92995187475534       10.89099751279197
O           19.28551827486189       10.01678452558144       11.57350964460876
C           19.81843973155784       13.97978004707153        6.85786441562022
H           20.45096403535976       14.19711587481236        5.99238752836511
H           19.35839734741808       14.90248465193559        7.21785383270287
H           19.04181755648163       13.25880465516193        6.58927701573968
S           20.83031257355213       13.31029076956122        8.20954829740362
H           21.08367901977105       12.15080526128988        7.60163427363006
71
 energy: -108.909642509964 gnorm: 0.024957892355 xtb: 6.7.1 (edcfbbe)
Fe          19.51359646041141       11.98160863949614        9.85321684325821
N           17.89080355028220       11.99846823653947        8.58356961716923
N           20.33032068454033       10.46519498060633        8.78060570308044
N           21.16044271579026       12.07274133499483       11.01694178546151
N           18.76538268203784       13.63625968278568       10.77206397481972
C           16.83677552485779       12.85642200842648        8.61920941143158
C           15.83492438244721       12.44623218045258        7.65334768184112
C           16.30680522738601       11.31216410967100        7.06061035987736
C           17.61108845032091       11.05900080608011        7.63868630231548
C           19.72716825568463        9.77185766650405        7.77181675128501
C           20.59718625158753        8.72379871214898        7.31107268561420
C           21.74471338528573        8.80250444421040        8.06982497706147
C           21.54539703698904        9.89620700806188        9.00048425905731
C           22.26487374207592       11.28465453557899       10.91760514758818
C           23.16794358904951       11.54720317724926       12.01498433755689
C           22.53514323126766       12.45917341723120       12.82363879574238
C           21.28232552490311       12.78643337335949       12.15857673997680
C           19.25233374301974       14.17068948150638       11.92344939700686
C           18.39434623621637       15.23945949030973       12.37183148605259
C           17.37877300427583       15.33861654128919       11.46317939338712
C           17.60803745477886       14.30004106279388       10.48004292203387
C           16.72746282860806       13.95081855433799        9.46624897339947
H           15.83647581813943       14.55508671348733        9.36521504436548
C           18.47122784029727       10.04793313587689        7.24413988569859
H           18.13430782618803        9.41277020925584        6.43814158113658
C           22.46130578269076       10.30209343808655        9.95804504827745
H           23.39022962446769        9.75398326542537       10.00571100281192
C           20.39282045966066       13.75332493605303       12.59011028345302
H           20.60589656428133       14.23541393277338       13.53323471750233
C           15.60137922052236       10.43227134348193        6.08197601900434
H           14.58750162320011       10.78528854591801        5.91627485485573
H           15.54036991760233        9.41662272422036        6.46931167593239
H           16.10833262629739       10.39323630565357        5.11942466992257
C           14.53007395564891       13.12269939086073        7.38933065060188
H           14.57594915084230       14.18400707896016        7.61160664384403
H           13.74058264443543       12.68398302242304        7.99895688351550
H           14.24453807271496       13.01088451077206        6.34579356125678
C           20.27224039948590        7.72143507781620        6.26024858944532
H           20.71881360492947        7.99714430941031        5.30492257509715
H           19.20064331165268        7.63525127925689        6.11680555570399
H           20.66077120172891        6.74508910628289        6.54215011007210
C           22.92105249247876        7.96406019632177        8.00577694297542
H           23.49627249678865        7.87811700056926        8.91832376925089
C           23.34160771939524        7.30284478158206        6.93386870553121
H           22.84201655287566        7.36394187622814        5.98698413796823
H           24.21878317791219        6.68436754737390        6.96868037524885
C           24.50683365941550       10.91846757701258       12.18782183080367
H           25.24864269737582       11.45418462161335       11.59333543528648
H           24.50392792343261        9.88247583344597       11.86377405092329
H           24.81862548461112       10.94685319597410       13.22664098428955
C           22.92711000587607       13.00463640179003       14.10663939469158
H           22.11164603957628       13.29970029179937       14.75640171679849
C           24.16559067632449       13.16852352936819       14.55358176963257
H           25.02716624997332       12.92653536910909       13.96231934389686
H           24.35735307762737       13.56494099109044       15.53421308092768
C           18.54403080375366       16.03135216626296       13.62536095697035
H           19.58528125130499       16.23075425295745       13.85590676085913
H           18.10953282959391       15.48160620339862       14.46008128573386
H           18.02060643674518       16.97937886828592       13.54346635582272
C           16.24753480247707       16.30873945876679       11.56510150165510
H           16.62415582119332       17.33099878022831       11.60714561477154
H           15.69500708594144       16.13237384198757       12.48776518433378
H           15.55739674403059       16.23624741071833       10.73409757785955
O           18.66674540629818       10.93305057586907       10.89472523152345
O           19.31050452913418       10.03768722706287       11.54466568935244
C           19.80266114454182       13.99449329777642        6.84036085252611
H           20.43487255609279       14.20297634566821        5.98672659561595
H           19.34903573142169       14.90623357087176        7.20452626593365
H           19.03745388248380       13.26905347122522        6.59469531456919
S           20.85620562279009       13.36723628009056        8.18622490767576
H           21.13304349193233       12.20110126590305        7.58938146905850
71
 energy: -108.913555317641 gnorm: 0.021103418533 xtb: 6.7.1 (edcfbbe)
Fe          19.49607241804986       11.96074442457620        9.87399116602666
N           17.89319504867025       11.99703210001908        8.58832244214643
N           20.31989096107853       10.45550722406539        8.78686185394496
N           21.14442639787373       12.05606201048592       11.02925988230533
N           18.76200713480375       13.62371027926060       10.78510306030058
C           16.84531514607210       12.85516268225095        8.62426431197845
C           15.84139449088450       12.44614881919002        7.66353640632196
C           16.31006441275552       11.31024714128414        7.07496086515448
C           17.61071102756704       11.05401132141324        7.65354414215117
C           19.71851814036220        9.76358009904608        7.78114318574354
C           20.59127069182072        8.72048349868888        7.31373120966843
C           21.73726797862544        8.80025469759628        8.07184259402937
C           21.53253234609092        9.88921693657813        9.00482207613964
C           22.24937114552541       11.27399383206752       10.92091501647421
C           23.16126362465107       11.54472336002984       12.01017146556732
C           22.53587844529130       12.46058701181900       12.81547219266511
C           21.27591392423242       12.77794936727047       12.16146991173275
C           19.24850797640527       14.15822638850505       11.93164027946085
C           18.39198880885011       15.22951416710130       12.37735285158118
C           17.37713484837152       15.32189430768407       11.46885209999689
C           17.61022432657863       14.28373360849951       10.48978181763665
C           16.73600421622870       13.94695978387923        9.47032920472286
H           15.84653913753137       14.55116715227903        9.37068983398005
C           18.46248891888140       10.03869823246285        7.25876512596535
H           18.11780711077557        9.40346576868261        6.45685988843943
C           22.44891488488733       10.29850110325914        9.95858985565037
H           23.38367011206667        9.76148706339995        9.99628136088870
C           20.39324739438067       13.74974264893484       12.59270322651300
H           20.62051395212442       14.25036659239766       13.52211534527507
C           15.61833725790384       10.43821656674312        6.08692542945275
H           14.60649432529967       10.79342347566731        5.91344380176302
H           15.55829434682994        9.41983608716550        6.46835958380156
H           16.14301417743482       10.40961353784514        5.13283924673509
C           14.54240126234257       13.12526266099206        7.40083507506582
H           14.59601938034740       14.18705470071016        7.62047323092052
H           13.75368572535436       12.68995003017167        8.01453373740060
H           14.25761302866731       13.00801235285193        6.35739288008836
C           20.26465136436717        7.72375499990489        6.26228615622438
H           20.70106075624256        8.00848977401929        5.30438054308028
H           19.19118993720408        7.62909073880491        6.12851690588325
H           20.66602982568474        6.75138150582847        6.54131268295537
C           22.91799903796751        7.96292753252645        8.01214823953430
H           23.48564753398002        7.88835970099802        8.93028815411856
C           23.34465270815876        7.30045136411437        6.94252351655696
H           22.86219098832836        7.36954573360162        5.98550257090484
H           24.22729537848344        6.68748099639232        6.97954833595575
C           24.49143350568743       10.90639492192682       12.18670048629235
H           25.24218656063156       11.44089822330034       11.60136718722823
H           24.48097031468098        9.87159974913105       11.85641722953813
H           24.78957762802200       10.92833154046264       13.23054960127741
C           22.93243271611739       13.00577553772542       14.09864477009562
H           22.11019745087422       13.29137937272050       14.74314101561880
C           24.17139915424737       13.17295147663289       14.54595718589110
H           25.04020534078120       12.96647009753650       13.94694811999393
H           24.35997662539220       13.56555205873162       15.52976783076641
C           18.55289018556851       16.02905232546254       13.62114127609949
H           19.59762796535670       16.22706185372783       13.84084226432451
H           18.12425285761855       15.48616907567043       14.46452975438499
H           18.02920048742177       16.97687595517429       13.53303969762173
C           16.24728127106023       16.29028603881239       11.54676890775543
H           16.62989144769639       17.31062453609957       11.58211335788841
H           15.68237745779011       16.12150046140989       12.46389425675966
H           15.56846696193741       16.20957453995752       10.70613415745463
O           18.63165034475161       10.93264027158884       10.89087415517250
O           19.29168473856927       10.03652329156215       11.52073997116062
C           19.78944646963657       14.01714209121603        6.82463036968629
H           20.40377882244847       14.22247672644199        5.95637280774185
H           19.32381288586076       14.92520264220883        7.18515006082849
H           19.03269048615828       13.27006794159178        6.60907178730418
S           20.88249306876987       13.43412128836910        8.16784727091975
H           21.20536319688823       12.27630460147475        7.57367371529292
71
 energy: -108.916534080667 gnorm: 0.016157900151 xtb: 6.7.1 (edcfbbe)
Fe          19.47136190969814       11.93966490691338        9.89557969472252
N           17.90038156634386       11.99165331820724        8.60230808509992
N           20.30745105811672       10.45419536998806        8.79179170952701
N           21.12060016238689       12.03640356580725       11.04339970782944
N           18.75807075973217       13.59919969623970       10.80212430381922
C           16.85347606733238       12.85089586613200        8.63442003342437
C           15.84986519512437       12.44642418592148        7.67476377402697
C           16.31429708259538       11.30730694514710        7.09093085979098
C           17.61120322803004       11.04670392194874        7.67099360791983
C           19.70987598512922        9.75635409172092        7.78911793667803
C           20.58589910496449        8.71692986030351        7.31706845810412
C           21.73139816264959        8.80070943588337        8.07178242427191
C           21.52051543859686        9.88710675821825        9.00554884296391
C           22.22996798158367       11.26155479033522       10.92651912288246
C           23.15166776515792       11.54052402486419       12.00612143811250
C           22.53756165326770       12.46464935971256       12.80782124542544
C           21.26974951264417       12.77063928268806       12.16738387387126
C           19.24461622098438       14.14401339686463       11.94432505724411
C           18.38909041517435       15.21847141106956       12.38419837843540
C           17.37571813025687       15.30329752919742       11.47657258391387
C           17.61033031834963       14.26196768859126       10.50378680185058
C           16.74033977505381       13.93972506262124        9.47900020803509
H           15.85497845510884       14.54763203683568        9.37642985714342
C           18.45097241547920       10.02409820875963        7.27383405542499
H           18.09395799644468        9.38497917337110        6.48050983402883
C           22.43588379476880       10.29447314361572        9.95994061922731
H           23.37768685757319        9.76896251321659        9.98705058506647
C           20.39649159843746       13.75003827102285       12.60004918359012
H           20.64003579216837       14.26987211667464       13.51435573727655
C           15.63820256077103       10.44163240293972        6.08738361983535
H           14.62860769193759       10.79784476694987        5.89921414571139
H           15.57656455508236        9.41867564987847        6.45871910351832
H           16.18561851984376       10.42749194387844        5.14371283315222
C           14.55459096610854       13.13205767840021        7.41399361568650
H           14.61903329470236       14.19567854757234        7.62858447130814
H           13.76663153572891       12.70478063013296        8.03609387148711
H           14.26587193189527       13.00969054337900        6.37137326450104
C           20.25629083601125        7.72212773627710        6.26352300461857
H           20.67411840542660        8.02125677703256        5.30013794813054
H           19.18002248634085        7.61504199946292        6.14634755712686
H           20.67669767025669        6.75327308808809        6.53135663895067
C           22.91624367122600        7.97026266592200        8.01852659913808
H           23.46823887738968        7.89428735961562        8.94668003848938
C           23.35686211718198        7.31084224775986        6.95103904713488
H           22.87708135601773        7.36750705218906        5.99067656074944
H           24.23569466322378        6.68905667519485        7.00046802129158
C           24.47454428436769       10.88953311273015       12.18941370259278
H           25.23916473349788       11.41989562656601       11.61684067720783
H           24.45415294539876        9.85573868157340       11.85127215661854
H           24.75694569266538       10.90511708728272       13.23983487356261
C           22.94070912185366       13.01345867993588       14.08510121407329
H           22.11494573256045       13.27250309790113       14.73716351354807
C           24.18230522641095       13.19542286840348       14.52376140799602
H           25.05219409064940       12.99093957828178       13.92639408808835
H           24.36889402659529       13.56704106495313       15.51890556614997
C           18.56417047399407       16.02976948803212       13.61836252227253
H           19.61456690235578       16.22806586717560       13.82011177716680
H           18.14734575363021       15.49643494587982       14.47543021026732
H           18.04049310886478       16.97838715021789       13.52408945170622
C           16.24436018033961       16.27157410645609       11.52444606570011
H           16.62843995261832       17.29220290806333       11.55036226781137
H           15.65899608829680       16.11357327157856       12.43175842454097
H           15.58370907768246       16.17629771564201       10.66798454413311
O           18.59993231683974       10.92216929030972       10.88831374462505
O           19.26093426630964       10.01567258954694       11.49427208907311
C           19.77455192477785       14.04412119776160        6.80886999367365
H           20.35552684775814       14.24649875826180        5.91398730590242
H           19.29217153492030       14.94940974996847        7.16048456052826
H           19.03029045839872       13.26915457088380        6.63476455334528
S           20.92498001196872       13.52224427021892        8.14048951926202
H           21.29585970494803       12.37582062583116        7.55302740961687
71
 energy: -108.917855572261 gnorm: 0.011804440509 xtb: 6.7.1 (edcfbbe)
Fe          19.45270638971667       11.92679730607232        9.90905419382688
N           17.90600647611540       11.98262763245936        8.61854167979394
N           20.29950002422491       10.45928746333013        8.79136591504368
N           21.10431616991926       12.02610209996950       11.05260347823318
N           18.75382546506142       13.57543405604408       10.81686378679877
C           16.85665999489100       12.84347432728975        8.64500830885341
C           15.85561488968395       12.44553222098045        7.68150628673376
C           16.31733236993971       11.30463341006175        7.09937423515553
C           17.61032554315094       11.03859148971306        7.68399028271196
C           19.70358322315593        9.75149455584757        7.79272570279150
C           20.58067099028324        8.71295299760408        7.32037072933604
C           21.72686665141408        8.80120897899038        8.07149831021669
C           21.51522440290681        9.89150210152244        9.00106181205071
C           22.21648798361520       11.25301426795872       10.93163250599584
C           23.14299625941121       11.53179745651740       12.00569564453734
C           22.53786438878341       12.46260628193500       12.80626348983959
C           21.26758503523916       12.76764541199428       12.17314123364072
C           19.24165102958295       14.13312446055788       11.95634642195894
C           18.38839475802169       15.21243540018324       12.38897338801102
C           17.37498244440314       15.29204409745790       11.48249764836057
C           17.60774999976501       14.24434842702497       10.51674177285919
C           16.73884106975836       13.93007414094475        9.48960793936312
H           15.85742349265539       14.54229169549420        9.38201570653675
C           18.44065771623650       10.00977871903592        7.28430149980457