71
 energy: -108.922324103035 gnorm: 0.000040283096 xtb: 6.7.1 (edcfbbe)
Fe          19.37828608775908       11.90891042267889        9.96748082307798
N           17.82839119560225       11.96490850507635        8.68019422111876
N           20.26140532809286       10.52208168093556        8.78335365367543
N           21.05600797559042       12.05283402399905       11.08072921743377
N           18.62455930104935       13.48690080198701       10.95460050352932
C           16.74392164035628       12.77897866643371        8.76127355025402
C           15.78970841390776       12.45526132854542        7.72497961052938
C           16.31860089316084       11.41335608261475        7.02698394366496
C           17.59192688685044       11.11464491209201        7.64248967806393
C           19.69214224496801        9.84515441289501        7.74717437810390
C           20.58215114629729        8.82310429769371        7.26119630550707
C           21.70641483314646        8.88647517385800        8.04266035013514
C           21.47000796469377        9.94166824477433        9.00574911299712
C           22.15578286317685       11.25772974355943       10.97102486704439
C           23.09793180158264       11.55084053474140       12.02187362486175
C           22.53323494852759       12.54135922778237       12.78043764851977
C           21.24649606673437       12.82653258132541       12.17800588469964
C           19.15034141040359       14.09325431899405       12.05234981589627
C           18.26446158775319       15.13324579153752       12.52713626157275
C           17.19090487449737       15.13408334816679       11.69141860525754
C           17.43236416549315       14.09377925759091       10.71673261247749
C           16.55655239394555       13.77923550530334        9.69613818323536
H           15.64233265073613       14.34876568076330        9.63467563045838
C           18.44618409337551       10.11989560666288        7.20666947466561
H           18.11997673816075        9.51423357099071        6.37543737288364
C           22.36426105241293       10.29883395462556        9.99657538403714
H           23.29574902325022        9.75575997503365       10.03561461324954
C           20.36615101117430       13.79009949188376       12.63496236602863
H           20.65267755299353       14.35492994832107       13.50838984227404
C           15.75848651403453       10.67568801070657        5.86110186851420
H           14.79458127745638       11.08569099340457        5.57176465124196
H           15.62335657422898        9.62285618026218        6.10754815694916
H           16.43105642813106       10.74033849686075        5.00561731480497
C           14.49677539281036       13.16631574694929        7.52474726415422
H           14.66552066025477       14.23028676644283        7.35925210562327
H           13.86253869488034       13.05622783802931        8.40401689162396
H           13.96448129196961       12.76545926341312        6.66620559468543
C           20.26399811882001        7.86267686159480        6.17079888352762
H           20.41515627582290        8.31974023563335        5.19133674423717
H           19.22682835224401        7.53896476005755        6.23686014544617
H           20.90758985133041        6.98918447879203        6.24615774694129
C           22.90062071309245        8.06967935370976        7.98868814473844
H           23.35517189931566        7.84177125853007        8.94477861074715
C           23.45558509613852        7.60097624957474        6.87668646021643
H           23.06821666159316        7.83421984538366        5.89991036427062
H           24.33805421093886        6.98434045923344        6.90519805114476
C           24.38318518178827       10.83478274480453       12.24039139443907
H           25.15355772423170       11.19875510794014       11.55869824646602
H           24.25819889408022        9.76657141323499       12.07249012549240
H           24.72490778112214       10.98856567876015       13.26133218083294
C           23.04557163453246       13.18932777265039       13.96944775335694
H           22.30484689340313       13.45049828799192       14.71530960550109
C           24.32253238701575       13.47961771670079       14.19133708056465
H           25.08944055048465       13.28287059628822       13.46240305652620
H           24.64146701086171       13.95282370431589       15.10473013914348
C           18.54192345511909       15.99274774113442       13.71045288299759
H           19.47088341597231       16.54540349429976       13.57150059272969
H           18.64038782080208       15.38312047056131       14.60832976929498
H           17.73732470870681       16.70625819856321       13.86707192285901
C           15.97807676103996       15.99782238767045       11.71226067872758
H           16.02671942091629       16.71086700057291       12.53083482815565
H           15.08090973783243       15.39197096705241       11.83714891735564
H           15.88694308414438       16.55216402856230       10.77833636225861
O           18.59253240877732       10.81504135816104       10.95713490229276
O           19.26959718846555        9.82686098589191       11.39635498843773
C           20.15368433493767       13.32256474418803        6.62279482461014
H           20.85140409437959       13.67877119508215        5.87082121116485
H           19.17249541917044       13.75484696913993        6.45587479771373
H           20.08623940013956       12.24027936938734        6.61739127142110
S           20.69966698875991       13.89682888513425        8.26846618985755
H           21.81055954456781       13.16036529248072        8.31310974367694
