72
 energy: -105.980475166386 gnorm: 0.000088941246 xtb: 6.7.1 (edcfbbe)
Fe           0.45409869827685       32.76424276605088       -7.73590257895841
N           -0.30193912964003       30.98535147376781       -8.20943065674675
N           -1.37407865913958       33.59205521428117       -7.93766651451777
N            1.22108236299478       34.58750004675735       -7.34017499747430
N            2.27303635532570       31.97217341230596       -7.59869623908246
C            0.36974357091174       29.80903115418959       -8.27035655564494
C           -0.51818354862472       28.72990351415018       -8.64763738227093
C           -1.74353884590880       29.28928496323354       -8.82553005626863
C           -1.58823753919343       30.70073119237923       -8.54495355367496
C           -2.52496205695474       32.95519555379486       -8.29551155086249
C           -3.63536470372309       33.86943185087075       -8.29943000477932
C           -3.13363957500181       35.08880368399666       -7.92440032220068
C           -1.71362162943975       34.89182088216512       -7.71968166437316
C            0.52882301595973       35.75375670745671       -7.19564498092901
C            1.41687038113809       36.83661063109359       -6.86434183968725
C            2.67571725644741       36.29820018251385       -6.80721866212662
C            2.52409419041865       34.88965270356388       -7.10555214448453
C            3.43249565082760       32.62247843303935       -7.32285452433855
C            4.54173379656347       31.69304693891650       -7.27322074590574
C            4.01822913008588       30.46367260074618       -7.51702838198402
C            2.59866024574212       30.66099641295594       -7.72159904734419
C            1.71877088453083       29.64184693463018       -8.02473707584822
H            2.11858065402721       28.64248161441264       -8.09804076689442
C           -2.62814689506848       31.60662596115111       -8.59230400146138
H           -3.60226255274892       31.23124629255999       -8.86430346697861
C           -0.83897392009999       35.89620350011369       -7.35087929083493
H           -1.25526480216350       36.87626459421880       -7.17891576837658
C            3.56360907993287       33.97869657015236       -7.10002349391196
H            4.55125985510745       34.35191250518992       -6.87932892329261
C           -3.02825599105643       28.64827250329339       -9.22325780544790
H           -2.89347746752235       27.58186110431691       -9.38506171191060
H           -3.40632646078554       29.08956366631527      -10.14553828634280
H           -3.78296434496477       28.78492773463966       -8.44809434727006
C           -0.09539900197959       27.30984328190778       -8.80042844122384
H            0.32891792662061       26.93343782173719       -7.86944814565713
H            0.66259614600152       27.21944646612872       -9.57852313581444
H           -0.94038614270134       26.68150105368467       -9.07075621603012
C           -5.02539952885962       33.52567279062312       -8.70513016443178
H           -5.56917140996442       33.06094633641649       -7.88082833834484
H           -5.02101702308898       32.82821372541801       -9.54138730828992
H           -5.55939313090485       34.42531809538023       -9.00405786339900
C           -3.81969811787077       36.35419375746883       -7.78192132490591
H           -3.24213606478910       37.23340821547063       -8.04293518797942
C           -5.06940166500690       36.50726681036620       -7.35730838995990
H           -5.67332675582314       35.67507389339439       -7.04015777101363
H           -5.52449474201019       37.48110535126005       -7.28747353606256
C            1.01053252591626       38.25931471506215       -6.70288220491967
H            0.61706392565905       38.43993812726373       -5.70126807121394
H            0.23648302250860       38.52486121504527       -7.42150669768064
H            1.86761125683133       38.91133482492071       -6.85798591266238
C            3.93879448835271       36.94972841218794       -6.53732180838136
H            4.79477857127468       36.54785032136740       -7.06699424925872
C            4.11568302890733       37.96924932000600       -5.70399029778872
H            3.31115055936398       38.37507802664089       -5.11598989960041
H            5.08517849043864       38.41609550583721       -5.55943442417102
C            5.95230521564718       32.08379581574214       -6.99690364530793
H            6.03268329963175       32.55844837853195       -6.01887004298274
H            6.30853858733419       32.79041043143238       -7.74682675935642
H            6.60369611896909       31.21365246987223       -7.01029802446910
C            4.69967552809121       29.14087922946499       -7.58361825456515
H            5.76383391074558       29.24402433582198       -7.38706205213269
H            4.57412928301732       28.69529878318335       -8.57057424826423
H            4.27897434602939       28.45659640222409       -6.84676024546068
O            0.80062203291422       33.25897476715893       -9.89583984243933
H            1.51426925521381       33.90334317014236       -9.82588875936263
H           -0.00436463536816       33.74777188091365      -10.10243037138621
C           -1.39303303551149       31.46561990307043       -5.19043169223735
H           -1.73260956482058       31.56776133434931       -4.16430524250285
H           -1.10698335810290       30.43830085335136       -5.39038611788292
H           -2.15832585301282       31.77698020223721       -5.89296407344239
S            0.10777764563517       32.48063097910834       -5.42794366773851
H           -0.50272214155866       33.64978969662129       -5.20585022945639
