87
 energy: -124.445006192389 gnorm: 0.309547321029 xtb: 6.7.1 (edcfbbe)
Fe          20.73000000000000      -19.14600000000000       13.89100000000000
N           22.68000000000000      -18.99800000000000       14.37700000000000
N           20.84300000000000      -21.16000000000000       13.98000000000000
N           18.80500000000000      -19.26000000000000       13.37500000000000
N           20.64699999999999      -17.14300000000000       13.66200000000000
C           23.41600000000000      -17.84800000000000       14.58500000000000
C           24.80100000000000      -18.18500000000000       14.79900000000000
C           24.90200000000000      -19.51500000000000       14.71700000000000
C           23.58700000000000      -20.03700000000000       14.46400000000000
C           22.00200000000000      -21.91000000000000       14.06500000000000
C           21.70700000000000      -23.31200000000000       13.87500000000000
C           20.39100000000000      -23.40700000000000       13.66800000000000
C           19.82600000000000      -22.07900000000000       13.73500000000000
C           18.04600000000000      -20.41800000000000       13.31400000000000
C           16.71500000000000      -20.06400000000000       12.89900000000000
C           16.66300000000000      -18.74200000000000       12.74600000000000
C           17.98200000000000      -18.21000000000000       13.03100000000000
C           19.52700000000000      -16.38300000000000       13.39200000000000
C           19.78400000000000      -15.01500000000000       13.77000000000000
C           21.02000000000000      -14.94100000000000       14.25800000000000
C           21.58500000000000      -16.26600000000000       14.19400000000000
C           22.86800000000000      -16.59100000000000       14.58700000000000
H           23.50300000000000      -15.77400000000000       14.93000000000000
C           23.25400000000000      -21.37000000000000       14.31000000000000
H           24.07500000000000      -22.08200000000000       14.39100000000000
C           18.50700000000000      -21.69900000000000       13.58100000000000
H           17.75500000000000      -22.48200000000000       13.67900000000000
C           18.34400000000000      -16.87900000000000       12.90400000000000
H           17.66200000000000      -16.19800000000000       12.39600000000000
C           25.92700000000000      -17.15800000000000       15.08300000000000
H           25.43900000000000      -16.67200000000000       15.95500000000000
H           25.75900000000000      -16.53200000000000       14.18100000000000
H           27.01599999999999      -17.24900000000000       15.28500000000000
C           26.16100000000000      -20.40400000000000       14.94400000000000
H           26.06200000000000      -20.96300000000000       13.98900000000000
H           25.76800000000000      -21.03200000000000       15.77200000000000
H           27.23400000000000      -20.17599999999999       15.11800000000000
C           21.80800000000000      -13.72300000000000       14.79000000000000
H           21.83600000000000      -13.25500000000000       13.78300000000000
H           22.71000000000000      -13.41000000000000       15.35800000000000
H           20.89100000000000      -13.38700000000000       15.31900000000000
C           18.77600000000000      -13.82600000000000       13.61400000000000
H           18.42500000000000      -13.31200000000000       14.52100000000000
C           18.98000000000000      -13.08600000000000       12.47700000000000
H           19.32999999999999      -13.56800000000000       11.55200000000000
H           18.79600000000000      -12.00200000000000       12.47600000000000
C           15.45600000000000      -17.88200000000000       12.29000000000000
H           15.95500000000000      -17.39500000000000       11.42500000000000
H           15.47300000000000      -17.18500000000000       13.15500000000000
H           14.40600000000000      -18.11900000000000       12.01400000000000
C           15.53600000000000      -21.08500000000000       12.72400000000000
H           15.29900000000000      -21.69200000000000       13.60300000000000
C           15.27300000000000      -21.46600000000000       11.44300000000000
H           15.53600000000000      -20.81000000000000       10.60000000000000
H           14.79500000000000      -22.43500000000000       11.23600000000000
C           19.57300000000000      -24.68700000000000       13.40700000000000
H           20.30800000000000      -25.04600000000000       12.65500000000000
H           18.55800000000000      -25.02900000000000       13.11100000000000
H           19.84000000000000      -25.10600000000000       14.40100000000000
C           22.79600000000000      -24.40600000000000       13.93100000000000
H           22.53800000000000      -24.79700000000000       12.92400000000000
H           22.17800000000000      -24.93000000000000       14.69100000000000
H           23.87400000000000      -24.59300000000000       14.12400000000000
C           18.56000000000000      -18.22600000000000       18.77400000000000
H           19.19300000000000      -17.54600000000000       19.38300000000000
H           18.22700000000000      -19.07400000000000       19.41000000000000
H           17.67800000000000      -17.66100000000000       18.40300000000000
N           20.48999999999999      -19.46200000000000       17.77100000000000
H           20.88800000000000      -19.71200000000000       18.65300000000000
C           19.34200000000000      -18.73600000000000       17.63200000000000
C           20.98500000000000      -19.77800000000000       16.59900000000000
H           21.89300000000000      -20.35900000000000       16.44300000000000
N           20.19800000000000      -19.27400000000000       15.68500000000000
C           19.18400000000000      -18.62000000000000       16.30300000000000
H           18.41900000000000      -18.11600000000000       15.72500000000000
C           21.13100000000000      -21.85400000000000       10.42500000000000
H           20.70400000000000      -22.46800000000000        9.60300000000000
H           20.82900000000000      -22.30200000000000       11.39600000000000
H           22.23800000000000      -21.86500000000000       10.33700000000000
C           20.63000000000000      -20.45900000000000       10.33400000000000
H           19.52200000000000      -20.45600000000000       10.41600000000000
H           20.90700000000000      -20.02800000000000        9.34800000000000
S           21.37600000000000      -19.47900000000000       11.69400000000000
C           21.54600000000000      -17.88700000000000       10.87700000000000
H           20.55600000000000      -17.41400000000000       10.70400000000000
H           22.04300000000000      -18.01300000000000        9.89100000000000
H           22.15100000000000      -17.19700000000000       11.50300000000000
87
 energy: -124.571771286718 gnorm: 0.170665623755 xtb: 6.7.1 (edcfbbe)
Fe          20.72654848737797      -19.16689707043230       13.85007617040140
N           22.69236305159738      -19.00051351965815       14.36831794832990
N           20.84680523448014      -21.15643087968459       13.96481327694349
N           18.79337137041294      -19.26553385621697       13.36891521038470
N           20.63616867278647      -17.15100739924615       13.70099834499636
C           23.42151227012362      -17.85773470102725       14.58285834086608
C           24.81613142946128      -18.18425658656646       14.80922185648037
C           24.91841067064571      -19.52068909856925       14.72972605017360
C           23.59133693725534      -20.03353189590976       14.46186424295897
C           21.99942591610874      -21.88657181736773       14.06659130259324
C           21.71875004876136      -23.28019407334116       13.87780897682724
C           20.37686573787037      -23.38347341871530       13.67059679788290
C           19.83144304858315      -22.05578805681140       13.74329786026235
C           18.03830254943868      -20.41280308344884       13.32711510865469
C           16.68998454852788      -20.08263964951481       12.91977875707462
C           16.64406218088174      -18.75056685073640       12.73081076991488
C           17.97420166950083      -18.22744401556163       13.00858422009906
C           19.53604494751156      -16.38978212264731       13.40054446398817
C           19.77643703898048      -15.01447353715703       13.76827070405000
C           21.03577367074489      -14.95947612599777       14.27128835277548
C           21.57866641968999      -16.28436119377309       14.20167582468742
C           22.86893795869366      -16.59571256122821       14.58559825590989
H           23.49782608833392      -15.77553150891928       14.92085307234701
C           23.25778043382407      -21.36640519902036       14.31187911698326
H           24.07023687892267      -22.08231162661879       14.39019153545493
C           18.50455301725544      -21.69232275142117       13.58473379771151
H           17.76047735859514      -22.48163632596681       13.65626287629310
C           18.34402969440185      -16.89201421225097       12.90293742673201
H           17.65687955921000      -16.19967144999264       12.42324025906037
C           25.88619574985625      -17.13452748790002       15.07870425255030
H           25.45925139517441      -16.63447979889841       15.95609700894357
H           25.77862579708494      -16.49760599855337       14.19316210554578
H           26.96199445478728      -17.29830714080072       15.26874118272842
C           26.12614292354991      -20.43135010390478       14.93019676973810
H           26.08848827480836      -21.00100542989604       13.99533582201459
H           25.79250577213537      -21.05750549177739       15.76689887824525
H           27.17383350136231      -20.13331258185410       15.11043310362749
C           21.75653808835803      -13.70524547567254       14.76511875192919
H           21.83877569833513      -13.19914846549504       13.79470111977158
H           22.68007072859171      -13.49045169946963       15.33602656808053
H           20.90130047536404      -13.31425587765498       15.32740044398348
C           18.85526089083180      -13.81065054759837       13.61112337755825
H           18.43543218209100      -13.33426368432677       14.50615191341834
C           18.98007086081726      -13.08952092349779       12.48542803881618
H           19.34083298096082      -13.55457804044829       11.57096565650586
H           18.75885562402885      -12.02349583127131       12.46210801611477
C           15.49123086164748      -17.85542187210543       12.29569862283825
H           15.92982931818068      -17.36346658723853       11.41942896261187
H           15.45072621763228      -17.15316129390011       13.13725401063819
H           14.46190786875511      -18.16032555042916       12.03831277961500
C           15.59489717488941      -21.10662802475775       12.70562615386682
H           15.30308430065970      -21.68214574235452       13.58505584536520
C           15.27833821807066      -21.46555148114170       11.45694624265640
H           15.54488430747398      -20.82989320702137       10.61531626649047
H           14.77152802467999      -22.40575016008292       11.24137900415789
C           19.62706871334510      -24.69399335724822       13.42041585385034
H           20.29893226731308      -25.10504900696013       12.65567513365435
H           18.59151002385214      -24.94888702315172       13.12542298864516
H           19.83215712087243      -25.16331334855013       14.39223628648989
C           22.73697098166565      -24.42588483103583       13.92183878967533
H           22.55062681713454      -24.84988970776735       12.92657911546193
H           22.19982321151967      -25.00000458132228       14.68751675341261
H           23.82293599756438      -24.51616548079166       14.12131271599567
C           18.55869111694222      -18.22424428006269       18.78154702392207
H           19.18105380347196      -17.55064282777182       19.38520381453182
H           18.22452995672224      -19.05982273446946       19.41032949600130
H           17.68873328900918      -17.66974334756042       18.41227389538926
N           20.48786467663704      -19.46449646913845       17.79465897461948
H           20.88884601881336      -19.71754384670233       18.67668740974874
C           19.34292353740655      -18.73422607833753       17.63904816794049
C           20.98491806985851      -19.77207681656918       16.59677734593471
H           21.88063460780385      -20.35103760097428       16.43967716186774
N           20.21614690880225      -19.24768909957216       15.66940521887268
C           19.18810766420689      -18.61569659351001       16.29500526113338
H           18.42424526988907      -18.11840108087484       15.72560240941436
C           21.13175755417194      -21.86336434990319       10.42344218512273
H           20.70948474968850      -22.46931352951588        9.61167637112568
H           20.83771196894388      -22.30388101453272       11.38272400218322
H           22.22578102213568      -21.87235920314929       10.34124568625767
C           20.61960244001681      -20.45500802720660       10.33253805419977
H           19.52447835565877      -20.44489500558474       10.42095599851842
H           20.90329779908195      -20.01906665273821        9.36362836067610
S           21.41437107528533      -19.47232471983524       11.67141412157427
C           21.54519866288300      -17.87170083394141       10.85979049414078
H           20.55926537629358      -17.41750014809462       10.70674450253054
H           22.04359511113609      -18.00716603439309        9.89372191276482
H           22.14380725177019      -17.21078928288165       11.49744267569585
87
 energy: -124.644515667803 gnorm: 0.071935333772 xtb: 6.7.1 (edcfbbe)
Fe          20.72260146945666      -19.18184021303382       13.82473578638824
N           22.70894991132278      -19.00376117446768       14.35275766472518
N           20.84921771372196      -21.15274601807991       13.94611918042642
N           18.78824920292774      -19.27373267250146       13.35400910400184
N           20.62836855184455      -17.15518803927313       13.72958930894807
C           23.42565031825876      -17.86806812182670       14.57789384299625
C           24.82981921650032      -18.18295027929366       14.81741532616743
C           24.93463089698738      -19.52608652460749       14.74003944425344
C           23.59613503668965      -20.03023736915220       14.45590983163764
C           21.99680687687190      -21.87061198052719       14.06019071403785
C           21.72717993185141      -23.26321391584258       13.88246572303377
C           20.36578837193120      -23.37351384092602       13.67748591127861
C           19.83858323224318      -22.03970240676298       13.74460151309725
C           18.03345382175854      -20.40645828632527       13.33675292728789
C           16.66791345757139      -20.09386128216780       12.93347902035450
C           16.63237546242534      -18.75528304733193       12.70962954908565
C           17.97204637164474      -18.24497138651682       12.98801271721199
C           19.54187687277488      -16.39743032864284       13.41499208351857
C           19.77125942456488      -15.01274076619901       13.76369752905579
C           21.04727756005899      -14.97058919750522       14.28111507503369
C           21.56835020015162      -16.30008201762507       14.21844021926931
C           22.86996455715239      -16.60250862848863       14.58882107723973
H           23.49406599369087      -15.77861477444895       14.90982316916846
C           23.26395525794502      -21.36438904510804       14.30984267165715
H           24.06579375055642      -22.08456588522218       14.39079972978843
C           18.50233662769746      -21.68782503255452       13.58201393343912
H           17.76720912534488      -22.48229091474384       13.62884796194495
C           18.34469144405272      -16.90641476529211       12.91124775740347
H           17.65322292312728      -16.20230188585171       12.45988623898722
C           25.84581129502877      -17.11502693221403       15.07543447781686
H           25.47792389832400      -16.59315261001600       15.95738981180809
H           25.79544300848151      -16.46215884759155       14.20552759725255
H           26.90594713417107      -17.35909658354266       15.25228445218539
C           26.09196783300534      -20.45508055820873       14.91948852438664
H           26.11438119553934      -21.03934133501161       14.00229220283804
H           25.81721905337707      -21.09000540190786       15.76197609733060
H           27.11118165448739      -20.07949254870839       15.10225818936742
C           21.70187822131493      -13.69237263225945       14.73659903271635
H           21.83711824677158      -13.14339584240897       13.80411936119278
H           22.64580440930064      -13.59107519693068       15.31101577703451
H           20.90798845539036      -13.24462009825221       15.33104206266852
C           18.92556143281264      -13.80799025479454       13.60716085905324
H           18.46419478295756      -13.36357674046380       14.49625146046007
C           18.98457000988875      -13.09481419470658       12.49106325767280
H           19.36587251564219      -13.53690040519864       11.58260752651726
H           18.70633142447531      -12.04866364811804       12.44696138545429
C           15.52668000025800      -17.83460508579458       12.29933161360445
H           15.90527131750965      -17.32782667952025       11.41305488326358
H           15.43162196206910      -17.12353833860051       13.11966694290601
H           14.52029191659277      -18.21369167760276       12.06307353959838
C           15.64452260311349      -21.11588015607503       12.69845337939235
H           15.31949807580840      -21.68270744291475       13.56984082017802
C           15.28196762920008      -21.46208645872693       11.47101618388399
H           15.56058852842067      -20.85201884653868       10.62342436441749
H           14.74042300003155      -22.37313144012645       11.25137377469354
C           19.68140941018150      -24.69717945812235       13.43746344340690
H           20.29413746599384      -25.15505938859878       12.66039781971059
H           18.62470253810615      -24.84750509685519       13.14162200878502
H           19.82916206624377      -25.21828647704275       14.38536056636818
C           22.67372437726947      -24.44139412243839       13.91329089206908
H           22.55562290932525      -24.89798919401317       12.92997853861686
H           22.21533773969856      -25.06574589092592       14.68126141889661
H           23.76470429279203      -24.41829870007382       14.12026651695713
C           18.55540672903881      -18.22274272672331       18.78753139054643
H           19.17103936337887      -17.55374560191781       19.38859555249428
H           18.22052744038790      -19.04941691627079       19.41296153252857
H           17.69367770999591      -17.67484674528775       18.41956472988935
N           20.48443242315323      -19.46898714615472       17.81494427639927
H           20.88951223806724      -19.72475564467083       18.69609978705891
C           19.34348376080654      -18.73390056374110       17.64368664394823
C           20.98543350737628      -19.76188907577438       16.59847770453645
H           21.87175592072220      -20.34017962968011       16.43826621989287
N           20.23181120057278      -19.22694166113751       15.66491627468520
C           19.19610844496604      -18.60750885673145       16.29280713983009
H           18.43052773684002      -18.11524054972408       15.73028248549126
C           21.13067215805533      -21.87220673192992       10.42183914537118
H           20.71158353431538      -22.47109179533041        9.61615158180386
H           20.84311105324993      -22.30740767533943       11.37378842442524
H           22.21574748121065      -21.87682633752548       10.34374469238602
C           20.61433698480309      -20.45041791156542       10.33302012376519
H           19.52987299284566      -20.43122576224731       10.43456796069802
H           20.90035102215599      -20.01040168635853        9.37655913642064
S           21.44710494701243      -19.46772934971274       11.65916358683091
C           21.54452840185111      -17.85828440098434       10.84380488009142
H           20.55973738584597      -17.42182104121371       10.70834276281476
H           22.04399581687136      -17.99511432527345        9.89037152543215
H           22.13760776176944      -17.21962978008211       11.49254864871815
87
 energy: -124.677063481726 gnorm: 0.051450718577 xtb: 6.7.1 (edcfbbe)
Fe          20.72328667825053      -19.19002310271368       13.81131516019893
N           22.71495090381862      -19.00827259641903       14.33582032596695
N           20.85168055834308      -21.15042018662582       13.92740447140812
N           18.79349259281973      -19.28068786965182       13.34281203256406
N           20.62175886630149      -17.16214594521798       13.75818116720491
C           23.42177128529636      -17.87536011579552       14.57192208974640
C           24.82605357782268      -18.18394525619286       14.82095460989215
C           24.93363799225510      -19.53086432052681       14.74313358521896
C           23.59532035015072      -20.03121591856828       14.44580750758017
C           21.99783562282704      -21.86746310280588       14.05016739043038
C           21.72414658635272      -23.26315293872722       13.88907108335867
C           20.36295720571396      -23.37367505689690       13.68924249753730
C           19.84036398972255      -22.03544687137268       13.74111777908744
C           18.03600106135384      -20.40339494124934       13.34210493128809
C           16.66770494837472      -20.09017228186169       12.93904299849261
C           16.64041091818525      -18.75208874049732       12.69573293853800
C           17.98107442004092      -18.25454946968245       12.97489337658042
C           19.54212103524655      -16.40820106637896       13.42929248639331
C           19.77414627926988      -15.02139306511313       13.75784978238092
C           21.04718222413932      -14.97366594601134       14.28337014417764
C           21.56161038086554      -16.30801058045011       14.23949765772013
C           22.86935486295447      -16.60974394264004       14.59358251343710
H           23.49435655444297      -15.78312525748846       14.89825141142485
C           23.26768420696036      -21.36549286909052       14.30255285450414
H           24.06289110427298      -22.08907410042518       14.39246705225064
C           18.50225207357559      -21.68691392815416       13.57483967226577
H           17.77325331681442      -22.48638028070689       13.59177012006425
C           18.34740926463917      -16.91685655818769       12.92295514712565
H           17.64400064321217      -16.20196776583445       12.50939884084538
C           25.81966342360136      -17.10545844446566       15.07460199621909
H           25.49720697426880      -16.55265037115087       15.95946459210299
H           25.81094215748996      -16.42883259865843       14.21800856561103
H           26.86028416887535      -17.42291404695294       15.23942167215753
C           26.07317876313922      -20.46947249087754       14.91393842213835
H           26.14279958694832      -21.07581808961999       14.00928093054079
H           25.84502707779863      -21.12490124144538       15.75792328639918
H           27.06128936607150      -20.02127279807886       15.09580915368958
C           21.66833629074443      -13.68794037312676       14.71745932349425
H           21.83489035418617      -13.09231883968831       13.81546113129636
H           22.61773979286462      -13.68626081716422       15.28891350816547
H           20.91807481521654      -13.18071505512269       15.33023240060094
C           18.96868236160670      -13.80908123705187       13.60274045825836
H           18.50262604429710      -13.38685174474994       14.49383837908279
C           18.98395507078952      -13.09717553295757       12.48378738189967
H           19.40720963427548      -13.51533062207935       11.58178258040857
H           18.62703765950259      -12.07296229777901       12.42597702883523
C           15.54919456922548      -17.82342722634778       12.29786318998454
H           15.87762168877698      -17.29028354146759       11.40303299771008
H           15.41323864243265      -17.09692693595013       13.10218450918435
H           14.56892359740271      -18.27441568464616       12.08285728293383
C           15.67479639405434      -21.12966937766948       12.69827930337383
H           15.34212134525337      -21.70169079608859       13.55993408078703
C           15.28201818866040      -21.46195818649296       11.47577176595715
H           15.58498323791394      -20.87287444908915       10.62237059892597
H           14.68599382300486      -22.34021814077498       11.26310929614183
C           19.71116798085974      -24.69468519511768       13.45398482721302
H           20.28384878589690      -25.19795427284739       12.66950734501837
H           18.64613071307150      -24.74557908405967       13.15877939231752
H           19.82392228333479      -25.27158915936536       14.37835364307489
C           22.63230438376182      -24.44734873922118       13.91042095424604
H           22.55897001410481      -24.94037510388273       12.93729461328126
H           22.23052610740893      -25.12550200498529       14.67149164572353
H           23.71378346715623      -24.32326744609920       14.12150960179085
C           18.55158278949644      -18.22189970536068       18.79248288040581
H           19.16230221500975      -17.55266704191547       19.39740964045374
H           18.21303036847262      -19.04488216193970       19.41958263626737
H           17.69066825734193      -17.67518543547795       18.42413580957044
N           20.48221883719349      -19.47109818537832       17.82702396963642
H           20.88604184258866      -19.73311485752697       18.70917720290683
C           19.34486602799004      -18.73149354203246       17.64819843152080
C           20.98978776462871      -19.74832946951330       16.60456754719065
H           21.87178015864508      -20.32988314202539       16.44046719112584
N           20.24635567384570      -19.20908086574987       15.66855558291515
C           19.20790434420933      -18.59336403097815       16.29670175404347
H           18.43916187524992      -18.10317255895237       15.73651956449946
C           21.12732854060700      -21.87602396672864       10.41964875686202
H           20.70744572793538      -22.47360204233026        9.61465890388311
H           20.84445552358133      -22.31474680229250       11.37036564036260
H           22.21125977444127      -21.88277095230581       10.34220235484788
C           20.61742170235318      -20.44690561525640       10.33859810165329
H           19.53591948137801      -20.41129916374945       10.46164239655405
H           20.89587137948940      -20.00031823603054        9.38524913609412
S           21.48411306030204      -19.46380722737596       11.64695862703225
C           21.54743998448558      -17.84700956052420       10.82955448856226
H           20.55372944878485      -17.42780137248784       10.70915729230208
H           22.04606057029703      -17.97279108722788        9.87488209555473
H           22.13505638365442      -17.21532695647805       11.48732250950787
87
 energy: -124.690839449228 gnorm: 0.040114670424 xtb: 6.7.1 (edcfbbe)
Fe          20.72975613311559      -19.19272339945374       13.80483487488667
N           22.71264853145332      -19.01472349700082       14.31894529619548
N           20.85537025027394      -21.15174634021843       13.90837500684991
N           18.80783658608163      -19.28850817468211       13.33090590585982
N           20.61908721441820      -17.16826159834468       13.78598062618242
C           23.41352327849999      -17.88248016157398       14.56611583292382
C           24.81394786166832      -18.18741105923359       14.82146875766886
C           24.92452952089902      -19.53753016799790       14.74101573869303
C           23.59131866914504      -20.03586734391812       14.43209194246385
C           22.00027811226890      -21.87244667157080       14.03947048736014
C           21.71715425150686      -23.27194516931438       13.89725798971831
C           20.36213935845998      -23.37985376333947       13.70366704649411
C           19.84088037118993      -22.03817505143754       13.73311729560746
C           18.04547900277593      -20.40531964411621       13.33441687403266
C           16.67993334703898      -20.08764901266606       12.93138303150352
C           16.65828086634963      -18.75019787726935       12.68077749829972
C           17.99554921712297      -18.26224365655592       12.96712319237835
C           19.54179851968608      -16.41736788039048       13.44453661311952
C           19.78136326488691      -15.02872484608591       13.74655770230153
C           21.04412046019339      -14.96954824708303       14.28141609362523
C           21.55847754817865      -16.30906645921201       14.26028915126272
C           22.86721812046986      -16.61612010319638       14.59961569741393
H           23.49878370361300      -15.78986718540157       14.88839262739848
C           23.26872991073783      -21.37066226338838       14.29098358619870
H           24.06140086420683      -22.09508822636872       14.39223008092264
C           18.50653711056522      -21.69079606324886       13.55718593970326
H           17.78058492407612      -22.49296612023797       13.54259156466663
C           18.34940774928166      -16.92336372057995       12.94308619347415
H           17.62954614033106      -16.20095888246115       12.57263487735169
C           25.80656803779594      -17.10903566420022       15.07607689192782
H           25.51598963736599      -16.53669738531358       15.96139259166402