87
 energy: -124.720027882404 gnorm: 0.000038222786 xtb: 6.7.1 (edcfbbe)
Fe          20.86248244736744      -19.14183379916053       13.76271180776873
N           22.77957344027936      -19.02132533053837       14.31301678691538
N           20.99133765512766      -21.14100612426569       13.75964485997114
N           18.92460735717984      -19.27157348401618       13.24997261336338
N           20.71710025970055      -17.14387138816073       13.80842297429941
C           23.47994937230403      -17.89038062892348       14.58710589345333
C           24.84603820717960      -18.20835548094990       14.94439720655814
C           24.95299619520465      -19.56097762133470       14.87322934015092
C           23.64811344003607      -20.05008269896520       14.48280483615925
C           22.09570266607945      -21.88931714617653       14.01821289093633
C           21.79204547593545      -23.30004182607692       13.92040928120974
C           20.47199124283400      -23.38457980851366       13.60363018869441
C           19.98984965197164      -22.02468318059525       13.50994095114863
C           18.19469559146101      -20.40478936266617       13.09434373572121
C           16.81675036561340      -20.08756275902681       12.77394748149407
C           16.73415126310718      -18.71992727643839       12.77607026293284
C           18.05581632077570      -18.23604130003833       13.08040773031104
C           19.62938578466084      -16.39471603858036       13.48910617061830
C           19.92928881549683      -14.98184529379120       13.61413186738887
C           21.21939488785413      -14.91138900505676       14.06610661295395
C           21.69303458963403      -16.26717612823159       14.16056796375309
C           22.98225148241811      -16.60534326705517       14.53383885923910
H           23.65191692880819      -15.79843393754171       14.78931979920916
C           23.34437535673472      -21.39089022554268       14.34079345273045
H           24.13734562475126      -22.10376372695366       14.50858490973255
C           18.68501587642374      -21.69377218638797       13.19845531077658
H           17.99642650011028      -22.50629919854707       13.02463812537881
C           18.37883622157723      -16.89318765291542       13.17907468880550
H           17.58802897581949      -16.17642722818927       13.02247555709574
C           25.87912632051055      -17.19562696359402       15.30168649024638
H           25.56068838266917      -16.61035856064819       16.16476677378611
H           26.04470192240466      -16.50971207357284       14.47074841741704
H           26.82460104831514      -17.67523242598923       15.54308380666450
C           26.13484950431290      -20.43165181857650       15.13142900265048
H           26.37891188456797      -21.01639890912355       14.24446620828546
H           25.93233471144800      -21.12542697864578       15.94824459860180
H           27.00384977084430      -19.83499433589414       15.39761091069470
C           22.03392718751615      -13.69777336688899       14.35281087362387
H           22.86718760665801      -13.62064708936555       13.65333569181221
H           22.44454371479998      -13.74064803439425       15.36187861194170
H           21.42836438426284      -12.79956878199988       14.26012288926736
C           19.05125871024620      -13.87100633169564       13.30880469817100
H           19.12471834888554      -13.02318709364167       13.98182768734540
C           18.22357154809317      -13.80075965691961       12.27231742686863
H           18.15197408575817      -14.58970938057263       11.54266481423904
H           17.60357180779738      -12.93589115771855       12.10347106073722
C           15.53151717722413      -17.86443937533022       12.57961477012952
H           15.48606202295341      -17.48272113037404       11.55798802707181
H           15.54959832263985      -17.01095783296299       13.25584846715180
H           14.62875671242968      -18.44143458200024       12.77006833329913
C           15.77751207210027      -21.06572788908348       12.54214085322730
H           15.86850717931493      -21.98786066143265       13.10465941405287
C           14.75449431979138      -20.92106573651412       11.70597370759441
H           14.63863054965510      -20.04862025864601       11.08688413430928
H           14.00677039448219      -21.68852871348292       11.59272754398123
C           19.63041426831574      -24.59324933050511       13.37757097792825
H           19.20955134276514      -24.58429690945683       12.37179606684557
H           18.80448497833111      -24.62458321901927       14.08878181208308
H           20.21730363664732      -25.50102612729340       13.49471277839795
C           22.78551460969275      -24.39054303613940       14.13321676144665
H           23.61402985100368      -24.29612415281465       13.43076650477968
H           22.32582336646297      -25.36544014150481       13.99072908414583
H           23.19368010017043      -24.34851847187763       15.14362164398219
C           18.40924270250909      -18.37589638976977       18.71463157198173
H           18.99140578298859      -17.90552348701322       19.50702806293353
H           17.86126556179688      -19.21371888208295       19.14578788657545
H           17.69522624845508      -17.65363460290567       18.33152405940433
N           20.29557110775452      -19.74808106446017       17.80248336764856
H           20.53256156527213      -20.18853411850262       18.67624135406347
C           19.29201670103584      -18.83437433170538       17.61234408322625
C           20.90100596298950      -19.94575869849465       16.61007731621379
H           21.72502822055749      -20.61150127300428       16.45728663586104
N           20.34221847390741      -19.21378222889486       15.67778168569677
C           19.34034611128769      -18.51667444707414       16.28531495004476
H           18.72500418157970      -17.83781548261396       15.73246895195387
C           21.85412832919492      -21.59235183355790       10.44652558126409
H           21.41022889560552      -22.43360147474110        9.91782936831156
H           22.14198181833453      -21.91970272513092       11.44106061812342
H           22.74844696162234      -21.27460460375734        9.91572134872019
C           20.85928456220162      -20.45143736346406       10.53479061453985
H           19.95235957941135      -20.75675288883135       11.05369560937652
H           20.61002416145095      -20.08034320494922        9.54073588801903
S           21.59163729582886      -19.03868957535339       11.45851870674179
C           20.64215395005679      -17.70554682359432       10.66399437292218
H           19.58091240220105      -17.86271568865418       10.82836677639168
H           20.87598974294662      -17.68881388765098        9.60262752326087
H           20.95162584147798      -16.77482129153065       11.12643066518592
