78
 energy: -115.970562478334 gnorm: 0.279202286960 xtb: 6.7.1 (edcfbbe)
Fe         -39.60900000000000      -73.89200000000000       -1.19900000000000
N          -39.05099999999999      -75.60500000000000       -2.06700000000000
N          -41.31800000000000      -73.90100000000000       -2.31100000000000
N          -40.25899999999999      -72.27799999999999       -0.13100000000000
N          -37.96200000000000      -73.98900000000000       -0.01900000000000
C          -37.85600000000000      -76.35400000000000       -1.86800000000000
C          -37.83300000000000      -77.58600000000000       -2.64600000000000
C          -39.05900000000000      -77.60399999999998       -3.38500000000000
C          -39.75800000000000      -76.35800000000000       -3.05200000000000
C          -41.69500000000000      -74.77600000000000       -3.27300000000000
C          -42.93999999999999      -74.44099999999999       -3.93900000000000
C          -43.31199999999999      -73.22000000000000       -3.31600000000000
C          -42.28400000000000      -72.95999999999999       -2.33400000000000
C          -41.41500000000000      -71.54800000000000       -0.40600000000000
C          -41.59000000000000      -70.47900000000000        0.60900000000000
C          -40.46800000000000      -70.56000000000000        1.46100000000000
C          -39.63600000000000      -71.69199999999999        0.95800000000000
C          -37.55100000000000      -73.09099999999998        0.90600000000000
C          -36.18500000000000      -73.29500000000000        1.44600000000000
C          -35.73700000000000      -74.42900000000000        0.70800000000000
C          -36.86900000000000      -74.74899999999998       -0.16200000000000
C          -36.84399999999999      -75.89800000000000       -1.02500000000000
H          -35.92400000000000      -76.48200000000000       -1.02000000000000
C          -40.99700000000000      -75.96299999999999       -3.64100000000000
H          -41.43100000000000      -76.60099999999998       -4.41100000000000
C          -42.34500000000000      -71.86000000000000       -1.46000000000000
H          -43.18100000000000      -71.17400000000001       -1.59400000000000
C          -38.35500000000000      -72.08000000000000        1.40400000000000
H          -37.94900000000000      -71.51500000000000        2.24300000000000
C          -39.52600000000000      -78.60199999999999       -4.35200000000000
H          -38.85700000000000      -79.48800000000000       -4.32300000000000
H          -39.50699999999999      -78.16999999999999       -5.37600000000000
H          -40.55799999999999      -78.92099999999999       -4.09300000000000
C          -36.75600000000000      -78.62400000000000       -2.62000000000000
H          -36.28100000000000      -78.63999999999999       -1.61600000000000
H          -35.98299999999999      -78.38199999999999       -3.38100000000000
H          -37.19300000000000      -79.62400000000000       -2.82800000000000
C          -43.62100000000000      -75.20399999999999       -5.02700000000000
H          -43.54500000000000      -76.29300000000001       -4.82000000000000
H          -43.13200000000000      -74.98699999999999       -6.00000000000000
H          -44.69400000000000      -74.92000000000000       -5.07000000000000
C          -44.47299999999999      -72.38200000000001       -3.57000000000000
H          -44.87899999999999      -71.74599999999998       -2.77000000000000
C          -45.06999999999999      -72.35500000000000       -4.74700000000000
H          -44.69800000000000      -72.97499999999999       -5.57600000000000
H          -45.94700000000000      -71.71199999999999       -4.91400000000000
C          -42.78800000000000      -69.57999999999998        0.66300000000000
H          -43.70399999999999      -70.17000000000000        0.44500000000000
H          -42.68800000000000      -68.77600000000000       -0.09700000000000
H          -42.87800000000000      -69.13500000000001        1.67700000000000
C          -40.08900000000000      -69.77200000000001        2.65500000000000
H          -39.44499999999999      -70.25000000000000        3.40700000000000
C          -40.44200000000000      -68.57499999999999        2.90100000000000
H          -41.08700000000000      -68.02700000000000        2.19800000000000
H          -40.10700000000000      -68.07200000000000        3.82000000000000
C          -35.50999999999999      -72.48200000000000        2.47200000000000
H          -36.09900000000000      -72.50900000000000        3.41300000000000
H          -35.43200000000000      -71.42899999999999        2.12500000000000
H          -34.49700000000000      -72.89300000000000        2.67000000000000
C          -34.40100000000000      -75.13600000000000        0.83000000000000
H          -34.52100000000000      -76.05100000000000        1.44900000000000
H          -33.66400000000000      -74.46400000000000        1.31900000000000
H          -34.03799999999999      -75.42900000000000       -0.17800000000000
O          -40.55200000000000      -75.15599999999999        0.14200000000000
H          -40.36500000000000      -76.04600000000001       -0.15800000000000
H          -41.03400000000000      -74.93200000000000        0.85400000000000
C          -36.30200000000000      -70.06600000000000       -3.78300000000000
H          -36.76900000000000      -69.07699999999998       -3.97600000000000
H          -35.71000000000000      -70.36499999999998       -4.67400000000000
H          -35.63799999999999      -69.98399999999999       -2.89600000000000
N          -38.34599999999999      -71.38900000000000       -4.44100000000000
H          -38.42599999999999      -70.97300000000000       -5.34700000000000
C          -37.36900000000000      -71.07899999999999       -3.52300000000000
C          -39.14500000000000      -72.30999999999999       -3.93500000000000
H          -40.00300000000000      -72.73600000000000       -4.45300000000000
N          -38.72100000000000      -72.60800000000000       -2.72100000000000
C          -37.61300000000000      -71.85100000000000       -2.43900000000000
H          -37.10000000000000      -71.93399999999998       -1.48900000000000
78
 energy: -116.026823655206 gnorm: 0.102627104069 xtb: 6.7.1 (edcfbbe)
Fe         -39.60170468557902      -73.89449497241149       -1.21226820077694
N          -39.04043429691492      -75.61573340644094       -2.09618495567120
N          -41.31612307240915      -73.90173226301087       -2.31791420422386
N          -40.25641875881139      -72.27015644224053       -0.14969572529202
N          -37.92978907322214      -73.96682951639923       -0.04128713110125
C          -37.86720341334316      -76.33760539316810       -1.87013730082551
C          -37.85777824214033      -77.56201449472654       -2.64422857346001
C          -39.04218236525069      -77.57374409659843       -3.37014409280227
C          -39.75336481276115      -76.35075862854622       -3.04043508080757
C          -41.68285894464751      -74.79371792180405       -3.27360877489500
C          -42.92375637695928      -74.42021974695659       -3.92095552284536
C          -43.30134220684245      -73.22254652158642       -3.30715098920865
C          -42.28120576083248      -72.94873731189412       -2.31107672155583
C          -41.41254229591667      -71.56498141240012       -0.39529523564609
C          -41.56841245613239      -70.50222470958813        0.60280297330333
C          -40.46732070138746      -70.58496631227639        1.44560580819371
C          -39.64694500204686      -71.69344571920814        0.93659357212989
C          -37.56509610910065      -73.07581288724059        0.91839160825262
C          -36.20739583246381      -73.31588041265776        1.41661354809924
C          -35.75787916602596      -74.41988128815960        0.70228366045915
C          -36.86149359084409      -74.78215296922437       -0.17550935931808
C          -36.84761351016764      -75.90466348800339       -1.02826950176976
H          -35.93425527422101      -76.48882238232069       -1.02067479107951
C          -40.97358458964585      -75.96029824857196       -3.61495561086838
H          -41.40401669503414      -76.59203958588364       -4.38583862674769
C          -42.32397346625746      -71.85808907412058       -1.43524851668408
H          -43.15760279076968      -71.17632733543009       -1.57030023174752
C          -38.38092435797996      -72.06514619741672        1.40721440936345
H          -37.97179015279028      -71.49785105852044        2.23634135360256
C          -39.51733330033219      -78.59238068402047       -4.33997651753431
H          -38.86822271047489      -79.47566442181021       -4.32688549657092
H          -39.51248636972432      -78.18376962631085       -5.36014138288040
H          -40.54038201922988      -78.91522732851546       -4.10378632528097
C          -36.77759259352724      -78.60336293245754       -2.61823997459555
H          -36.29206206335845      -78.63871712526095       -1.63514739707420
H          -36.00146149548952      -78.38684141824588       -3.36641877682219
H          -37.18479403085024      -79.60043207281342       -2.82801509339068
C          -43.60900226764659      -75.19450026581856       -5.00407467035856
H          -43.54258104461734      -76.27465358731274       -4.82166989841322
H          -43.14493350779108      -74.99186687059444       -5.98041987806031
H          -44.67125599609839      -74.93148261312847       -5.06246869902430
C          -44.46487620391461      -72.39497504580240       -3.57085258732833
H          -44.85477658702524      -71.76326777865800       -2.77206052376343
C          -45.07403519747034      -72.35453201169399       -4.75187901971616
H          -44.71009405423258      -72.94260598425271       -5.58341107829967
H          -45.93991092114990      -71.72328918802070       -4.91881304196685
C          -42.76496361931810      -69.59754533363697        0.66408103861335
H          -43.68294695240124      -70.16000688873712        0.44853276820450
H          -42.68749707247846      -68.79149308796897       -0.07935164737184
H          -42.87261323891683      -69.14611322523878        1.65723720230574
C          -40.09712346158697      -69.80473101183267        2.63389591032238
H          -39.44918351490109      -70.28407136757373        3.37012359904918
C          -40.45664612725716      -68.56182952242187        2.89496414694035
H          -41.08015207217888      -68.00397457404327        2.20837202511039
H          -40.12430256467000      -68.06297491484396        3.80093824496618
C          -35.52260817863002      -72.49851435455042        2.45484077237376
H          -36.08724433508969      -72.50846657852640        3.39752878344349
H          -35.43189361286434      -71.45075751883935        2.13364458184354
H          -34.51757440872297      -72.88487857760138        2.66288384001191
C          -34.43017677210443      -75.12371507406984        0.82500456712921
H          -34.52385924661377      -76.03282129367848        1.43576352855305
H          -33.68728879900367      -74.47516854380063        1.30472421418365
H          -34.04639141702317      -75.41949819145226       -0.15897213597427
O          -40.54784995237527      -75.16641742328065        0.13818495269895
H          -40.37861788703225      -76.06734023318646       -0.13878396753696
H          -41.06024086035626      -74.94300092425081        0.89319220573561
C          -36.30447089755203      -70.06311636438660       -3.78728003823852
H          -36.75528858176086      -69.08221104018573       -3.97705431081638
H          -35.71044288955893      -70.35236365839552       -4.66183785968935
H          -35.64885569592551      -69.98581321202158       -2.91555820855316
N          -38.33626772458353      -71.38018490763224       -4.44399105250147
H          -38.42122153978835      -70.96411088934380       -5.35519640352991
C          -37.36470136451516      -71.07275738511980       -3.52642069888083
C          -39.13743345567557      -72.31538653797692       -3.91636965651344
H          -39.98709164070048      -72.73688114550906       -4.42869100809506
N          -38.72546287584784      -72.62315517206362       -2.70544001085177
C          -37.62310586741695      -71.85753847359663       -2.44397147052339
H          -37.11167500971965      -71.93571982271139       -1.50240133740629
78
 energy: -116.042922227302 gnorm: 0.028206347290 xtb: 6.7.1 (edcfbbe)
Fe         -39.59774504031390      -73.89006676384935       -1.22530292209375
N          -39.02729276882778      -75.61650669849956       -2.11524318277622
N          -41.30946008196423      -73.89876516851183       -2.31598822630479
N          -40.25422525096418      -72.27096728628634       -0.16368065876565
N          -37.91317595969353      -73.94742152773748       -0.06312823012992
C          -37.87520856487833      -76.31516032412416       -1.87719738581129
C          -37.87246102202381      -77.54161887067387       -2.64547960187766
C          -39.02845154536991      -77.55158778486589       -3.36271993760707
C          -39.73675183333482      -76.33380903483348       -3.03406124540301
C          -41.66617895407541      -74.80081431793171       -3.26952645241449
C          -42.90465133025114      -74.40567124871643       -3.90376826626325
C          -43.28471914114773      -73.22624612169896       -3.30197653987138
C          -42.27309068856940      -72.94104526694910       -2.29156178755403
C          -41.40373406930782      -71.57768739456030       -0.39390287324814
C          -41.55720700876119      -70.52451279455376        0.59259680700373
C          -40.46492581282496      -70.60142872572696        1.42422355325740
C          -39.65258931645729      -71.69816264357684        0.91375061632057
C          -37.57494933286786      -73.06004904723972        0.91153420659806
C          -36.23076723527462      -73.33098728604517        1.39519947147761
C          -35.78128494013303      -74.41217150911575        0.69888003578607
C          -36.86047269245638      -74.79530143590077       -0.19679396765376
C          -36.85038412213033      -75.90102242719495       -1.03519754130071
H          -35.95098943415335      -76.50125023742105       -1.01602745814150
C          -40.94666671803100      -75.94849666736395       -3.59241081851479
H          -41.37400959833813      -76.58510696032755       -4.35594439789460
C          -42.30539781706688      -71.85914189527688       -1.41710436198622
H          -43.13994804693980      -71.18191391365362       -1.54176022061348
C          -38.39694706963541      -72.05180751075216        1.39667959183746
H          -37.99453606780114      -71.48310245612026        2.22342295485246
C          -39.51164016280119      -78.58268995623305       -4.33133364703616
H          -38.86968279488842      -79.46041652071663       -4.31999134797446
H          -39.51324417189613      -78.18286265892162       -5.34679599224380
H          -40.52843085268661      -78.90064942369365       -4.09841050898097
C          -36.79420026090126      -78.58284838499218       -2.61682907406395
H          -36.31152364818533      -78.62315240332397       -1.64190936835364
H          -36.02296014052923      -78.37208499833896       -3.36092857493759
H          -37.19647916678169      -79.57224564202247       -2.83078023501265
C          -43.59482117815483      -75.18696212071822       -4.97863204688498
H          -43.52220340775857      -76.25932433800044       -4.80057813807255
H          -43.14638302327392      -74.98632587975651       -5.95587444674044
H          -44.65113459383683      -74.93306720226647       -5.03442467809984
C          -44.44723531478356      -72.40642675018765       -3.57607048528262
H          -44.82367662935638      -71.78860887318778       -2.76867911735079
C          -45.06921823152708      -72.34870941544327       -4.75383646984757
H          -44.71722179768068      -72.90756836612115       -5.59961244513576
H          -45.93539829917424      -71.72997757416620       -4.91005896925483
C          -42.74723604219938      -69.61743429953255        0.66346694592694
H          -43.66262242798862      -70.16878939470543        0.44812068421324
H          -42.67006835866322      -68.81022922686313       -0.06869605792913
H          -42.84923545199793      -69.17033902784708        1.64968503071125
C          -40.10602273338601      -69.82423964446723        2.60017542173435
H          -39.46444571180346      -70.31543121985428        3.32438780841094
C          -40.46591284553299      -68.56901707336739        2.87386700196845
H          -41.07447561427183      -67.99335033029658        2.20322742416895
H          -40.14115878415942      -68.07954083012461        3.77750171338659
C          -35.53591227290705      -72.51515967531644        2.43960056312729
H          -36.09258764386288      -72.52167499377391        3.37829099411033
H          -35.44098929736849      -71.47391756334854        2.12380461572478
H          -34.53724247894303      -72.89552603860639        2.64452192337785
C          -34.46087116686704      -75.11100219935433        0.81943454143827
H          -34.54910922763413      -76.01670846071679        1.42380120317798
H          -33.72054672414833      -74.47014228861838        1.29571297415785
H          -34.07239303462745      -75.40209974284907       -0.15567128107199
O          -40.54709784551127      -75.17848885394334        0.15329966204097
H          -40.41262811262963      -76.09735926409350       -0.09010051892182
H          -41.07723775010466      -74.96831131626949        0.92055496588675
C          -36.30632801114749      -70.06116271452096       -3.78849330648159
H          -36.74759084497308      -69.08417477241937       -3.97858645521891
H          -35.71104869479471      -70.34385208417623       -4.65520009587985
H          -35.65388333600416      -69.98621917952769       -2.92575783312830
N          -38.33197305525979      -71.37868232181822       -4.44191253959034
H          -38.42391761671900      -70.96439927506263       -5.35591327782380
C          -37.36250160588119      -71.07002283577627       -3.52538613231247
C          -39.12950889662205      -72.32422177637109       -3.89699230294285
H          -39.97434598008644      -72.74441212857154       -4.40305403046562
N          -38.72360529270367      -72.63465881942368       -2.68961953707953
C          -37.62694194019769      -71.86197276104078       -2.44444771946475
H          -37.11288606319430      -71.93271605974465       -1.50938800088713
78
 energy: -116.047601016848 gnorm: 0.024190021652 xtb: 6.7.1 (edcfbbe)
Fe         -39.60071266814762      -73.89047354504274       -1.22622344775011
N          -39.00895931256355      -75.59702015554785       -2.13210717172843
N          -41.29738660490711      -73.89054777457072       -2.31239092037537
N          -40.24632416513118      -72.27427427291933       -0.18272282386711
N          -37.91198749690174      -73.93172560095593       -0.08633154761892
C          -37.87119013745976      -76.29756988630901       -1.88586139971213
C          -37.86945736814118      -77.52818860477450       -2.64824168850105
C          -39.02190762037487      -77.53735253053799       -3.36809143624899
C          -39.72324410631910      -76.31719662962250       -3.03575331342510
C          -41.65079693987986      -74.79518825619462       -3.26519010888310
C          -42.88646583637195      -74.40003671472907       -3.89708975953772
C          -43.26966491044666      -73.22462933500421       -3.30361953568601
C          -42.26313928430383      -72.93641221706591       -2.28886254287073
C          -41.39958040051322      -71.58928170510173       -0.40046564244755
C          -41.55369338620729      -70.53719476632995        0.57733737543787
C          -40.46107988379310      -70.60962554631188        1.40276651744447
C          -39.64842443556382      -71.70085562366360        0.89016979245676
C          -37.58032536303438      -73.04972836225632        0.89345644427411
C          -36.24564665556753      -73.33082803139118        1.38372701302655
C          -35.79504087399604      -74.40758375580604        0.68987515866254
C          -36.86381999001009      -74.78819625865070       -0.21604855950223
C          -36.84771994135875      -75.89622363425747       -1.04090155444300
H          -35.96129044061776      -76.51484084341990       -1.00755840989663
C          -40.93368701952675      -75.93836896067096       -3.58414357226919
H          -41.35727404675836      -76.58347595174151       -4.34041291857678
C          -42.30435728337608      -71.86299363194821       -1.41414848751473
H          -43.14151159065083      -71.18803043307226       -1.52260310231082
C          -38.39877834329100      -72.04346267429079        1.37975490775877
H          -38.00557669076262      -71.46893061825349        2.20586218350866
C          -39.51110134031793      -78.57177545625687       -4.32971880222081
H          -38.86834508372188      -79.44761068886868       -4.31330661751315
H          -39.51565980088666      -78.17497794183760       -5.34501013880132
H          -40.52596552308366      -78.88398730466886       -4.08743325243841
C          -36.79742730421806      -78.56844888969309       -2.61542909581731
H          -36.32271334009663      -78.60946244613196       -1.63842738478925
H          -36.02850935448324      -78.35336341468120       -3.35839882909194
H          -37.20814763257466      -79.55173099272501       -2.83516783839779
C          -43.58120737844034      -75.18835070666991       -4.95815341983066
H          -43.49155007697247      -76.25691391772305       -4.77217542774483
H          -43.14612131414475      -74.98273189975042       -5.93907011906179
H          -44.63894193486889      -74.94013514070467       -4.99477332226538
C          -44.43334173259395      -72.41154572047637       -3.57777276747702
H          -44.80245460855566      -71.80983819953727       -2.75619714048435
C          -45.06262377831206      -72.33602525878069       -4.75035388715615
H          -44.70971359071036      -72.86024840410100       -5.62136297043004
H          -45.93522560113799      -71.72175160244913       -4.88858738414481
C          -42.73852836477009      -69.63337544511687        0.65983220610206
H          -43.65320960904236      -70.18261645948976        0.44329955765564
H          -42.65585145204929      -68.82109538833583       -0.06435451146682
H          -42.82700010855245      -69.19930932391922        1.65199606935245
C          -40.11399392251455      -69.83601174776641        2.57449736362138
H          -39.47711584348792      -70.34131311008942        3.29140593046410
C          -40.47410474096376      -68.58140699934779        2.85235779886372
H          -41.06451343999415      -67.98633374520963        2.17957597887972
H          -40.15719399444772      -68.09822567650917        3.76111848228798
C          -35.54880502182843      -72.52424864758689        2.43179982909408
H          -36.10745057166034      -72.53740558494120        3.36714941585877
H          -35.45351714133430      -71.48527275855588        2.11444902428996
H          -34.55297058851762      -72.91257430974008        2.62831959756649
C          -34.48139679795417      -75.10608427882191        0.81154295930829
H          -34.57786599650318      -76.01222060722962        1.41163387071351
H          -33.74666971946107      -74.46364316084090        1.29167686273463
H          -34.09660716164225      -75.38905648133176       -0.16603614921348
O          -40.54617204083345      -75.19588303115349        0.19135881813668
H          -40.45934664997456      -76.12919409932540       -0.03071633132671
H          -41.09819254431114      -74.99198066493206        0.94896449824781
C          -36.30897924437114      -70.06124524150572       -3.78756751084439
H          -36.74891070527345      -69.08387812746057       -3.97946009936035
H          -35.71305479526173      -70.34258590393027       -4.65450626521949
H          -35.65417635331155      -69.98440505086121       -2.92681655868377
N          -38.33363585053190      -71.38741177380352       -4.43199117021609
H          -38.43228852572199      -70.97698144086780       -5.34724619825794
C          -37.36258076316142      -71.07199753253165       -3.51866937702892
C          -39.12472725007198      -72.33645283194186       -3.87708583659853
H          -39.96890582418034      -72.76220146349911       -4.37762898589023
N          -38.71649252693448      -72.64070020445459       -2.67025695593469
C          -37.62206186104838      -71.86234125358320       -2.43508573106948
H          -37.10158839919318      -71.92441334982051       -1.50339963380596
78
 energy: -116.050372012148 gnorm: 0.019649635548 xtb: 6.7.1 (edcfbbe)
Fe         -39.59631801589268      -73.88541876635097       -1.22795858300571
N          -39.00015256702870      -75.57985382326594       -2.13357001356073
N          -41.28204597990600      -73.88333278987795       -2.30414766030140
N          -40.24161115318469      -72.28566521407178       -0.19981619363010
N          -37.91703363751645      -73.91927038981146       -0.10859761892380
C          -37.86608178801590      -76.28133485909002       -1.89313097058683
C          -37.86365311253907      -77.51470942567933       -2.65100482146700
C          -39.01701863495501      -77.52301553694976       -3.37264097653442
C          -39.71081922652829      -76.29934924736273       -3.03921025387972
C          -41.63544444540204      -74.78730291902151       -3.25878192063053
C          -42.86687087651192      -74.39605781871246       -3.89379020255182
C          -43.25310821172989      -73.22068372754933       -3.30676536612967
C          -42.25184817341682      -72.93394285452173       -2.28972824414439
C          -41.39557311387138      -71.60046740407968       -0.41118842322539
C          -41.55163921323700      -70.54953429962856        0.56097964475752
C          -40.45373203983941      -70.61443060334206        1.37894216753343
C          -39.64229068603679      -71.70440816580788        0.86583686665890
C          -37.58500167782906      -73.04269258662909        0.87314106566365
C          -36.25775303179483      -73.32682274414097        1.37267180193168
C          -35.80668221520502      -74.40360480464628        0.67841304875988
C          -36.87004063091703      -74.77754608415648       -0.23215622582213
C          -36.84359138573677      -75.89064418539374       -1.04629201420989
H          -35.96820221485879      -76.52271566659884       -1.00063352978615
C          -40.92270912424772      -75.92741488682529       -3.58305138597743
H          -41.34354248390954      -76.58163246974352       -4.33172755195581
C          -42.30740668249769      -71.86603234366453       -1.41731101134281
H          -43.14728025327282      -71.19325777830527       -1.50845628488028
C          -38.39510923332146      -72.03485003301316        1.35987573108902
H          -38.00989725787552      -71.45146156990901        2.18290737814837
C          -39.51169592878703      -78.55745179127571       -4.32737691816806
H          -38.86859682108729      -79.43345293189499       -4.30825135779032
H          -39.52068656476511      -78.16469199559526       -5.34414871338937
H          -40.52546497696257      -78.86582936087683       -4.07539707503756
C          -36.79617953796856      -78.55375440591411       -2.61592897793542
H          -36.32997400229724      -78.60018350585992       -1.63524000511342
H          -36.02357431696158      -78.33443440721378       -3.35348294793841
H          -37.21168819830474      -79.53331988474753       -2.84371984442432
C          -43.56870131269186      -75.18968564107539       -4.94066834388451
H          -43.46322615530279      -76.25592810184817       -4.74852109227001
H          -43.15174853539146      -74.98206442401899       -5.92826364137354
H          -44.62819744309748      -74.94395331400447       -4.95508525191346
C          -44.41697649434845      -72.41140520997396       -3.57897943561725
H          -44.78996097337796      -71.83608768965409       -2.73931917139818
C          -45.04780053654677      -72.31504339292215       -4.74734956892022
H          -44.70739276015436      -72.82307933957071       -5.63346062331364
H          -45.93096569728122      -71.70835624192232       -4.86435903884999
C          -42.73302447308910      -69.64958577639557        0.65688600165248
H          -43.64939622461674      -70.19405386551765        0.43665758850956
H          -42.64790670978574      -68.82729498246864       -0.05560566268996
H          -42.80988836081482      -69.23219387632778        1.65772526418617
C          -40.11519177595009      -69.84170716349439        2.54812626410655
H          -39.49607784064506      -70.36394873052708        3.26895532415925
C          -40.47447219483513      -68.58935117980114        2.82311085176862
H          -41.05326638958445      -67.98315880621047        2.14810996666440
H          -40.17895921165305      -68.11452318040656        3.74466650810272
C          -35.56269769622978      -72.53120599772011        2.42586383370549
H          -36.12344112694818      -72.55321312297902        3.35919413185368
H          -35.46675026763714      -71.49151485024289        2.11279629526846
H          -34.56885824951084      -72.92760848091444        2.61584345100843
C          -34.49852187965870      -75.10486927567096        0.80050600770767
H          -34.60295557860577      -76.01410171941124        1.39402449820524
H          -33.76622211487426      -74.46503499847263        1.28752106662922
H          -34.11541445359624      -75.37994693080083       -0.17984603569715
O          -40.52470229518345      -75.21667360791265        0.24797191007431
H          -40.52566655212832      -76.16042759645521        0.02670035201274
H          -41.13713929722032      -75.02172823565395        0.96662686121800
C          -36.31256108948380      -70.06211855825950       -3.78703153632339