78
 energy: -116.058077696479 gnorm: 0.000195154709 xtb: 6.7.1 (edcfbbe)
Fe         -39.60815320500833      -73.90712321982511       -1.12885106052122
N          -39.00968961368099      -75.57773985134303       -2.07979710234796
N          -41.30475078539842      -73.91184412632470       -2.21906988014390
N          -40.23730985265343      -72.28796145562372       -0.15085405242455
N          -37.95388208911767      -73.95107334891749       -0.02135881977371
C          -37.83511171827529      -76.23970223612037       -1.90406778393337
C          -37.74441094822508      -77.36780911060188       -2.80256082507144
C          -38.89358735299323      -77.37132571339654       -3.53120305209527
C          -39.66929582726967      -76.24229058418292       -3.07008762197041
C          -41.65725722737685      -74.80195237937198       -3.19033538556284
C          -42.91791862003527      -74.44132904636298       -3.78255279712416
C          -43.32307673356179      -73.29101586876803       -3.15603950489882
C          -42.29948439300539      -72.98649329971612       -2.17685607389284
C          -41.38352174217983      -71.59005861584376       -0.37627158646621
C          -41.48036568354296      -70.46004876077349        0.51402273080679
C          -40.35382396219602      -70.48671565106552        1.29123533356773
C          -39.59640038854858      -71.64521453709516        0.85577016188510
C          -37.61267683860154      -73.08174854364972        0.96395392278677
C          -36.32560642546895      -73.42652501232543        1.53024349237394
C          -35.89691357458461      -74.52638263216596        0.85740682250080
C          -36.92917819128544      -74.83847177208108       -0.10860466078321
C          -36.85817735289397      -75.90308498294721       -0.98581857973763
H          -35.97511338541891      -76.52237496128787       -0.94976730577779
C          -40.90365226384797      -75.89596854138705       -3.58497885514729
H          -41.30059643385823      -76.51379576166929       -4.37598263921780
C          -42.33844519879256      -71.89701935866583       -1.32870501711518
H          -43.18150174667707      -71.22921896582076       -1.41711265804395
C          -38.36831130682256      -72.00293183634750        1.38037548740375
H          -37.96459972898518      -71.39042110589527        2.17217123194889
C          -39.33152823466310      -78.31270636142422       -4.60082427326719
H          -38.58395311143246      -79.08457690059738       -4.76579314226956
H          -39.48892395343910      -77.78204138964890       -5.54041997866688
H          -40.26900587550650      -78.79728922187442       -4.32641998016870
C          -36.58736909444898      -78.30507332914848       -2.86044776497631
H          -36.44576354113850      -78.79872489824142       -1.89871505673084
H          -35.67051431343131      -77.76677229695375       -3.10136794404560
H          -36.74499952720891      -79.06949921255439       -3.61742413998600
C          -43.63746502380691      -75.23353979755393       -4.81825735448126
H          -43.50913197455140      -76.30128480650272       -4.64623183699376
H          -43.26137620588719      -75.00548699112674       -5.81722703082063
H          -44.70042776662616      -75.00228325739648       -4.79190664062663
C          -44.52731919207010      -72.51689345918518       -3.35865050092850
H          -44.92658548045864      -72.03266911510475       -2.47503190938374
C          -45.15547166909906      -72.35497886857183       -4.51877319103413
H          -44.78060920826485      -72.77125668786067       -5.43748377267636
H          -46.05926821310142      -71.77326818232746       -4.59305867737056
C          -42.63580832148821      -69.52413271311846        0.58965412711651
H          -43.57503351555943      -70.06056276796642        0.46289187907959
H          -42.57338490318123      -68.76382827711457       -0.19078913070372
H          -42.64861837774352      -69.02486578125480        1.55628735877704
C          -39.95709967920508      -69.59674613227210        2.35995909820276
H          -39.41265418231226      -70.05884308266918        3.17528829570325
C          -40.20001011268072      -68.29083537763748        2.40613917790122
H          -40.69408379446027      -67.77137895525617        1.60357882392819
H          -39.88718945252378      -67.68857512611869        3.24302849876880
C          -35.66614932189929      -72.67705745690419        2.63657255234081
H          -36.29234895431894      -72.68477566265551        3.52884520910627
H          -35.49784308924015      -71.63838705934317        2.35070311258776
H          -34.70686158364259      -73.12269753129236        2.88811851082901
C          -34.63870512073932      -75.30715955718294        1.02563322211001
H          -34.86171429520726      -76.33978194275998        1.29499516042356
H          -34.01800620377104      -74.87647908341138        1.80744820782764
H          -34.06568225205631      -75.31579898395816        0.09808073410303
O          -40.70755296307901      -75.29594798802404        0.32922138278059
H          -40.36956374923908      -76.14448581650643        0.02309110234109
H          -41.60586884089023      -75.21081579809159       -0.00797697676618
C          -36.66903753927330      -69.99318288400617       -3.79613034258361
H          -37.21856458503049      -69.27686782267315       -4.40679632653413
H          -35.78075931721983      -70.30071989375658       -4.34784167885341
H          -36.35737078097564      -69.50194610594843       -2.87977528154714
N          -38.05138523988056      -71.98323616565020       -4.42880451574797
H          -37.93033621875112      -71.87893552021841       -5.42280105722089
C          -37.51813854838402      -71.16584724497368       -3.46688810225036
C          -38.76609714554007      -72.94334525283477       -3.80023418307893
H          -39.29604773938764      -73.72423223830423       -4.30515053340848
N          -38.71763295593068      -72.78390975655941       -2.50006865553204
C          -37.94462367539352      -71.68227713678831       -2.27696183025472
H          -37.74930256555888      -71.33735882908633       -1.28258856625770
