87
 energy: -128.467992595546 gnorm: 0.000086738620 xtb: 6.7.1 (edcfbbe)
Fe          17.51877870980647       55.28226150476361       35.65846188907273
N           17.19587513241473       57.25159752847686       35.49848237471087
N           15.64031143490696       54.92169742563933       35.05590936057871
N           17.84237798972101       53.30951616784460       35.84369728100783
N           19.40218044968417       55.64198980045680       36.23779191235013
C           18.06355542583420       58.24963455357693       35.80272289219781
C           17.45447229168416       59.54361181159823       35.58005216344650
C           16.19767280949663       59.29945540417168       35.12343065341513
C           16.05489737735621       57.85954782366193       35.08057364282109
C           14.71760929245658       55.84180214761583       34.66707225825389
C           13.48736880429788       55.20227280670599       34.27771746043119
C           13.68076516420876       53.85677784624913       34.45225101924781
C           15.04237001306248       53.70980643483751       34.93213937171232
C           16.93273801857479       52.31493611625026       35.65473805739241
C           17.52282295385064       51.02615045106933       35.90653345437696
C           18.83138060407882       51.26102060781585       36.24243982328197
C           18.99916745987401       52.70098693177167       36.20574915461282
C           20.36149428633365       54.71995557246611       36.51053750027737
C           21.60516182021116       55.36674361955063       36.86922330437653
C           21.36732339807956       56.70460097216696       36.81693993474834
C           19.98523493747690       56.85526619089195       36.41708208958472
C           19.36576628003062       58.07814879960622       36.23587756719718
H           19.94830972296965       58.96628175960571       36.43011864321235
C           14.90292578130154       57.21498575947005       34.67541580669264
H           14.07406439953283       57.83142804934222       34.36098344192681
C           15.62503392205791       52.49412913064740       35.23492075351511
H           15.01812078126885       51.60883835359477       35.11809723269948
C           20.18852841364047       53.34864249461564       36.48996682713943
H           21.04644854225376       52.73814762818533       36.72872525367485
C           15.13068422070544       60.26372146866056       34.73075751369032
H           15.47348124890020       61.28913116733733       34.84669827684075
H           14.24265712036044       60.12732404669141       35.34878387165882
H           14.84326539393150       60.11438559698036       33.68957023909527
C           18.13561746275984       60.84741384929121       35.82210779828659
H           19.01818448838987       60.94364782163196       35.18872846536777
H           18.45626556124129       60.92484680913779       36.86126143111518
H           17.46876378155072       61.67890898355155       35.60682094074963
C           12.29207360782771       55.90184167337306       33.72961038668920
H           12.59076973924155       56.73698656277561       33.09769223335898
H           11.66576724925693       56.29369362295785       34.53311286617159
H           11.69506023513874       55.21205086267472       33.13607392233897
C           12.77326704983498       52.76163374166905       34.19544416612993
H           13.23589560550480       51.83562621228869       33.87254959320894
C           11.45112922457063       52.80186495417053       34.33097962974425
H           10.93811723281500       53.67484834105677       34.69444817441462
H           10.83568213140200       51.94624913932560       34.10641726639798
C           16.79650374865890       49.72617418806441       35.86857462323134
H           16.74335449240842       49.33612642093632       34.85033184115436
H           15.77873527440373       49.84291604825004       36.23805972855410
H           17.30993585031420       48.99358179463118       36.48842246326674
C           19.86583028841047       50.31900191967018       36.60452931999937
H           20.59888869023242       50.68004206835987       37.31717316156833
C           19.98843732176336       49.08126979089062       36.13428415323064
H           19.32312753546343       48.68158878118960       35.38927399032647
H           20.78179559943640       48.43023976297386       36.46289944494748
C           22.86043085190935       54.64331487989494       37.22094783691126
H           23.16730276346086       53.98971412033980       36.40415938775928
H           22.71446412237601       54.02701949139404       38.10899504505630
H           23.66796841349174       55.34354814386954       37.42101361777189
C           22.29214290557993       57.84038073178591       37.09508975048858
H           23.27476863246816       57.47755715095311       37.38707416679681
H           21.90310732050743       58.46315204011789       37.90114079380638
H           22.40739622981078       58.46739624018474       36.21039567193919
C           19.93718083374756       56.28072681850457       30.71699664740452
H           19.29642564722371       56.53264902537523       29.87185001066646
H           20.69602955210775       55.57842495899838       30.37175578459258
H           20.43049984440905       57.18436747722956       31.06112712150664
N           18.40675569407482       54.54813929381982       31.68056362578762
H           18.33129953969015       54.00004680655618       30.83949272765003
C           19.14215202315744       55.69564966462586       31.82646886302314
C           17.80992594522537       54.29164967124256       32.86660000078301
H           17.17014664945622       53.45269689130063       33.04727938604276
N           18.12166590853892       55.20511693093424       33.75229673686258
C           18.94953105775713       56.08518351274657       33.12072491416119
H           19.34822211057545       56.93329420202251       33.63735441914451
C           14.73481075798883       56.21764259812119       40.41736707396552
H           15.21452991993603       56.82280556753215       41.18674250460290
H           14.26106420404755       55.36363163112992       40.90164223748077
H           13.96667893955380       56.81352345142680       39.93444024655877
N           16.81492094765939       55.00401092931082       39.72989776530366
H           17.05098830867020       54.67677248270317       40.65222471580598
C           15.72438745897886       55.76844642043307       39.40534347889686
C           17.50464908885251       54.77122018519439       38.59022823387427
H           18.40717196652879       54.19779406926634       38.54129488154020
N           16.91842375662170       55.34043152338482       37.56633460840740
C           15.81022882529135       55.96486431175483       38.05703026408577
H           15.15368340935455       56.50947945663808       37.41087085579601
