78
 energy: -116.058077608573 gnorm: 0.000031082559 xtb: 6.7.1 (edcfbbe)
Fe          -5.24093307808344       -5.79361907579713        8.40062387282813
N           -5.19352510198714       -7.55373988297681        7.46888185976980
N           -4.73392504275045       -4.86467615451899        6.71119828861744
N           -5.23172428983541       -4.03070002425463        9.37752070361762
N           -5.70014873524199       -6.72739916898715       10.12500142355948
C           -5.42244768920418       -8.77908336891110        8.00908515065550
C           -5.29300678585697       -9.81473480026239        7.00625290211510
C           -4.98453072558119       -9.18166189578148        5.84404609944823
C           -4.92763364217222       -7.76880528656687        6.15419664366627
C           -4.54333776479406       -5.43852846145654        5.49442372534025
C           -4.19619950472585       -4.44779081891014        4.50644895224363
C           -4.17161477534415       -3.24517884715950        5.15981728749941
C           -4.52371515889257       -3.53447174802235        6.53821584346135
C           -4.96047684388446       -2.80635973732742        8.84378950598647
C           -5.07868588278200       -1.77533601180043        9.84097953291549
C           -5.43951675908718       -2.40415724595701       11.00428739629564
C           -5.53980886990328       -3.81356096326895       10.68300233260254
C           -5.94490862966920       -6.14643066717822       11.33147345076597
C           -6.29326668202187       -7.14433361519424       12.31702626971667
C           -6.25835643738144       -8.34422243377042       11.67579524085381
C           -5.89015600607045       -8.06270675050053       10.30745857418011
C           -5.75148547974514       -9.02945787971716        9.32864367405906
H           -5.91734395513338      -10.05653884324312        9.61625453595575
C           -4.63473166121562       -6.79248802460489        5.22467835728724
H           -4.44075410583704       -7.11334717908911        4.21263551231768
C           -4.61201883286078       -2.57135279364665        7.52445268336504
H           -4.39505292035589       -1.55144535052263        7.24594419489320
C           -5.86594889380673       -4.79355355133588       11.60239617447791
H           -6.07718690043648       -4.47937006288446       12.61283823072956
C           -4.73477859110627       -9.75663296492563        4.49220738664177
H           -4.83706270025701      -10.83901716952259        4.50642934471067
H           -3.72802996819598       -9.51158833001484        4.15372340822489
H           -5.44262679464272       -9.35426018534427        3.76706581303356
C           -5.47311652961969      -11.27038052947812        7.27200943042082
H           -6.47841162520020      -11.47364655287435        7.64273644812259
H           -4.76081483607637      -11.61320892965297        8.02269820562834
H           -5.31970683771923      -11.85045824993421        6.36544438910440
C           -3.98298973081955       -4.71948108746820        3.05835997576958
H           -4.68156078306987       -5.47474830047568        2.70131314314168
H           -2.97040906782302       -5.08302332616204        2.87642872447541
H           -4.12955279145108       -3.80834096555958        2.48172905536070
C           -3.89495700425725       -1.92534175758142        4.63761664006702
H           -4.44322127264884       -1.11260260929444        5.10053387016880
C           -3.03475758084348       -1.64571001278283        3.66368512077473
H           -2.42729478544797       -2.40370039517792        3.20124582150835
H           -2.88832910600537       -0.63718866622392        3.31378792234040
C           -4.90615956712348       -0.31750360272183        9.59252944704584
H           -5.31493432970802       -0.04032476435600        8.62194397050964
H           -3.85013444408685       -0.04230259654025        9.60385885984665
H           -5.41878565670483        0.25542937014192       10.36254074871630
C           -5.70548908588594       -1.83465021654597       12.30672849471252
H           -6.47424355733856       -2.33207154591870       12.88690793367983
C           -5.08481550675941       -0.78189211805015       12.82911848453664
H           -5.34370809751858       -0.40135458016620       13.80329386158616
H           -4.28184604404427       -0.27870522530278       12.31927362602711
C           -6.61574331575770       -6.84383998053080       13.74060593991016
H           -7.47935688045621       -6.18152371264050       13.80610900056931
H           -5.77493869268525       -6.35073251046786       14.22918084643812
H           -6.84183385631812       -7.75607816846998       14.28727128408504
C           -6.52974474391833       -9.70916478424387       12.20959100715669
H           -6.78177547775559       -9.66822074062230       13.26637079178690
H           -5.65459659048471      -10.34836005089785       12.09031697422612
H           -7.36056825086358      -10.17273937142541       11.67676931118599
O           -3.04691882013053       -5.99429786964827        9.03594360486096
H           -2.88165804414192       -5.10795730429382        9.37541572276059
H           -3.15365388650151       -6.57415800312816        9.79786831927126
C          -10.25979034053872       -3.81781752372847        6.99346077024188
H          -11.00843400750058       -3.73419243920698        7.78116626332312
H          -10.74406691699279       -4.22178022626517        6.10446185396213
H           -9.88362947263696       -2.82581785444967        6.76419181933996
N           -9.31550970701283       -5.99697407656543        7.78793792155861
H          -10.19383905807340       -6.48883629597616        7.80181368810221
C           -9.13647566079710       -4.68807127681079        7.42396012028301
C           -8.10528581387057       -6.49856460577777        8.12273298221798
H           -7.94119811972876       -7.50469453710293        8.44938161529109
N           -7.17172690899682       -5.58738992870110        7.99293791281903
C           -7.79766184677982       -4.45606749101270        7.55833528252761
H           -7.24741613905176       -3.55696529243888        7.37359842268257
