77
 energy: -118.923929767491 gnorm: 0.250668079544 xtb: 6.7.1 (edcfbbe)
Fe          -5.89600000000000        5.78500000000000       -8.50100000000000
N           -5.68300000000000        7.54900000000000       -7.57300000000000
N           -5.19600000000000        4.87400000000000       -6.81000000000000
N           -5.75200000000000        4.03600000000000       -9.52700000000000
N           -6.28200000000000        6.82200000000000      -10.22000000000000
C           -5.97700000000000        8.79900000000000       -8.08900000000000
C           -5.87700000000000        9.82800000000000       -7.06700000000000
C           -5.52100000000000        9.18200000000000       -5.87900000000000
C           -5.41400000000000        7.75400000000000       -6.20600000000000
C           -4.98300000000000        5.41800000000000       -5.58600000000000
C           -4.59800000000000        4.41000000000000       -4.61400000000000
C           -4.60100000000000        3.20200000000000       -5.31800000000000
C           -4.95700000000000        3.47300000000000       -6.65700000000000
C           -5.38000000000000        2.81300000000000       -9.02800000000000
C           -5.33600000000000        1.82000000000000      -10.08300000000000
C           -5.73000000000000        2.50900000000000      -11.24600000000000
C           -5.97000000000000        3.86400000000000      -10.86700000000000
C           -6.47400000000000        6.20600000000000      -11.49300000000000
C           -6.80800000000000        7.18500000000000      -12.46200000000000
C           -6.76800000000000        8.42100000000000      -11.82100000000000
C           -6.41900000000000        8.14400000000000      -10.40900000000000
C           -6.30500000000000        9.08700000000000       -9.40000000000000
H           -6.48700000000000       10.13000000000000       -9.65900000000000
C           -5.07500000000000        6.77000000000000       -5.26900000000000
H           -4.87400000000000        7.07800000000000       -4.24300000000000
C           -5.00000000000000        2.54800000000000       -7.71100000000000
H           -4.70900000000000        1.52400000000000       -7.47900000000000
C           -6.33900000000000        4.85300000000000      -11.76000000000000
H           -6.54500000000000        4.53500000000000      -12.78200000000000
C           -5.33700000000000        9.73800000000000       -4.50000000000000
H           -5.53100000000000       10.83200000000000       -4.51200000000000
H           -4.29400000000000        9.56100000000000       -4.16000000000000
H           -6.05200000000000        9.25300000000000       -3.80100000000000
C           -6.14600000000000       11.29800000000000       -7.20900000000000
H           -7.21500000000000       11.50300000000000       -6.98600000000000
H           -5.92600000000000       11.62100000000000       -8.24900000000000
H           -5.51400000000000       11.86600000000000       -6.49400000000000
C           -4.36300000000000        4.68400000000000       -3.21700000000000
H           -5.12000000000000        5.40900000000000       -2.84900000000000
H           -3.35100000000000        5.12200000000000       -3.08600000000000
H           -4.44900000000000        3.74400000000000       -2.63100000000000
C           -4.25400000000000        1.91700000000000       -4.81000000000000
H           -4.82600000000000        1.04200000000000       -5.15200000000000
C           -3.26700000000000        1.68600000000000       -3.93200000000000
H           -2.65500000000000        2.51600000000000       -3.54900000000000
H           -3.05700000000000        0.66400000000000       -3.58400000000000
C           -4.99200000000000        0.47500000000000       -9.89900000000000
H           -5.28300000000000        0.15400000000000       -8.87600000000000
H           -3.89500000000000        0.34900000000000      -10.01800000000000
H           -5.52900000000000       -0.15500000000000      -10.64000000000000
C           -5.87200000000000        2.04500000000000      -12.57800000000000
H           -6.41300000000000        2.68800000000000      -13.28700000000000
C           -5.40900000000000        0.88200000000000      -13.08100000000000
H           -4.85600000000000        0.17800000000000      -12.44200000000000
H           -5.57900000000000        0.62300000000000      -14.13700000000000
C           -7.09100000000000        6.87900000000000      -13.86300000000000
H           -7.96100000000000        6.19100000000000      -13.92400000000000
H           -6.20900000000000        6.38600000000000      -14.32500000000000
H           -7.33300000000000        7.81500000000000      -14.41000000000000
C           -6.96300000000000        9.76900000000000      -12.30800000000000
H           -7.18000000000000        9.74200000000000      -13.39700000000000
H           -6.04100000000000       10.36600000000000      -12.13900000000000
H           -7.82100000000000       10.23800000000000      -11.78100000000000
C          -11.30500000000000        4.30400000000000       -7.53400000000000
H          -12.03100000000000        4.89300000000000       -8.13500000000000
H          -11.67600000000000        4.23200000000000       -6.48900000000000
H          -11.21200000000000        3.28900000000000       -7.97500000000000
N           -9.78900000000000        6.27200000000000       -7.07100000000000
H          -10.50400000000000        6.83300000000000       -6.65400000000000
C           -9.97100000000000        4.98700000000000       -7.55100000000000
C           -8.51200000000000        6.62500000000000       -7.26000000000000
H           -8.08700000000000        7.57700000000000       -6.94500000000000
N           -7.87100000000000        5.63200000000000       -7.88500000000000
C           -8.78400000000000        4.61100000000000       -8.10100000000000
H           -8.49900000000000        3.71000000000000       -8.62900000000000
O           -3.85700000000000        5.55100000000000      -10.20400000000000
O           -4.16600000000000        5.97600000000000       -9.10000000000000
77
 energy: -118.972821833113 gnorm: 0.116412066729 xtb: 6.7.1 (edcfbbe)
Fe          -5.81147527411332        5.80073199563513       -8.52367524547399
N           -5.70113722689962        7.56410210938313       -7.55373536877179
N           -5.21929727796047        4.85275626359617       -6.81442793908514
N           -5.80220446009021        4.02884243236926       -9.51370593481530
N           -6.32299119971249        6.79858524529430      -10.22247597900997
C           -5.97336417761991        8.80013469655632       -8.07794776410592
C           -5.87476125471445        9.81794873538266       -7.05012501927849
C           -5.52918311438480        9.17209638201971       -5.88804301439117
C           -5.41791206390374        7.75938065242446       -6.21582837938256
C           -4.99340777793781        5.41228150639547       -5.60267189687195
C           -4.60681105892868        4.40920154106981       -4.63563300904458
C           -4.59710274866139        3.20898005801044       -5.32026043012496
C           -4.97018164699720        3.48817996444537       -6.67025001111502
C           -5.38772995626564        2.82648467568429       -9.02659655447002
C           -5.34898856934366        1.84498306526262      -10.08482332693583
C           -5.73258433481649        2.50773391065346      -11.24138903529101
C           -5.99340317275078        3.86631559672161      -10.85115941892518
C           -6.49222918736840        6.20488630749321      -11.46730011942583
C           -6.80068405306023        7.19939250310171      -12.44374309616281
C           -6.76089628324950        8.41127388326122      -11.80481074382534
C           -6.44200745309565        8.12545060584625      -10.40568042745365
C           -6.30846845420915        9.07507147792040       -9.39708315283790
H           -6.48047935861373       10.11361014929964       -9.65974423661254
C           -5.08595109970406        6.77066514000148       -5.29797782788109
H           -4.87863349773172        7.07695097078723       -4.27719133582035
C           -5.01368269291832        2.56729402342486       -7.71069255297263
H           -4.71432162605870        1.54999114503364       -7.47502996088167
C           -6.35871558418676        4.85989270574231      -11.74186731897760
H           -6.53264149798219        4.55558917429264      -12.76850052494261
C           -5.33906382441072        9.73489844372953       -4.51608156554323
H           -5.52720313457813       10.81367307417339       -4.50922308073077
H           -4.31535870226702        9.56141626964665       -4.16322527236449
H           -6.03432697069530        9.26287287528478       -3.81088529586099
C           -6.14290934855346       11.28259944249127       -7.20827059421889
H           -7.19701264731724       11.50374791663917       -6.99268164510179
H           -5.92620445253111       11.61975062402372       -8.22694007962437
H           -5.52592407643904       11.85849842657130       -6.51131195300798
C           -4.36538365073031        4.68187253459893       -3.21264738089630
H           -5.10487704064644        5.39880610849063       -2.83536335367223
H           -3.36679210834210        5.11481054895936       -3.06868866768635
H           -4.44069617162557        3.75922561989396       -2.62669332754778
C           -4.25106542364964        1.91074264911692       -4.80176195853202
H           -4.81893313166221        1.05168164783286       -5.16103316071469
C           -3.27507495114898        1.68428019963948       -3.92398743836977
H           -2.65556236147435        2.49346444321324       -3.55591917038737
H           -3.05487824967794        0.68078814757505       -3.58085058030677
C           -4.99189939949804        0.45415381407284       -9.89389670336802
H           -5.26874158487470        0.12690610361222       -8.88545918222259
H           -3.90800816364160        0.32044867552287      -10.01583170263746
H           -5.51606873867660       -0.17629339699185      -10.61937213340064
C           -5.87195158931643        2.02870379116079      -12.58319321480223
H           -6.40524730312857        2.67541516948857      -13.27897765946938
C           -5.41080000921152        0.87773643114525      -13.08183879338548
H           -4.84749853820237        0.18425275929533      -12.47419150876570
H           -5.57511859048455        0.61821048284213      -14.12024943470481
C           -7.09034119605097        6.88907267699199      -13.86142822170243
H           -7.94684032251909        6.20564010213359      -13.93489452384594
H           -6.22675646117222        6.39950035738667      -14.32822232107820
H           -7.32712266030519        7.80073530760672      -14.41768350963782
C           -6.96378222751584        9.77401720106759      -12.31526285439926
H           -7.17767252841022        9.75910848960470      -13.38920810938281
H           -6.06153465543978       10.37427894940685      -12.14691120462525
H           -7.80569851667666       10.25082921322793      -11.79744641341778
C          -11.29933313378533        4.31123246860718       -7.53764997009645
H          -12.02831626337447        4.88045061037588       -8.12631681491386
H          -11.67318750493570        4.23015351115618       -6.51007157500465
H          -11.21258092227142        3.30931415877599       -7.96509020008985
N           -9.78983474805275        6.26065672289639       -7.06947526993443
H          -10.50657081774662        6.82551525298948       -6.64594254336408
C           -9.97354501321794        4.99401362171102       -7.56935617607504
C           -8.50730375412093        6.61060118714594       -7.27295588067264
H           -8.08914066604775        7.55180573949318       -6.95818447971057
N           -7.85429660395437        5.64400158735363       -7.89744055102998
C           -8.76762912634953        4.62995721749671       -8.09526561667718
H           -8.48568745316880        3.72981597178048       -8.61058350661491
O           -3.81642328571102        5.57967721349367      -10.20874360932322
O           -4.11255587311046        5.99015272016073       -9.05892216619471
77
 energy: -118.988102335117 gnorm: 0.035068102350 xtb: 6.7.1 (edcfbbe)
Fe          -5.73211882331770        5.81056570233206       -8.54728080944346
N           -5.69544750489024        7.57879218119750       -7.55018672547815
N           -5.23027313317206        4.83799343485913       -6.82321656020129
N           -5.82050157833950        4.02829223435754       -9.50680353571410
N           -6.34366444797275        6.77768514797462      -10.22044004162396
C           -5.97011630607286        8.80254560814478       -8.07288577201147
C           -5.87328520837738        9.81396183235524       -7.03933150414337
C           -5.53453567053827        9.16488232195280       -5.89481717652304
C           -5.42173851279020        7.76297427043582       -6.23151985633287
C           -5.00419567060609        5.41114986059000       -5.61706901688219
C           -4.61497314082047        4.41288633214669       -4.65233631565837
C           -4.59354543299624        3.21853141127853       -5.32169483007371
C           -4.98492791299496        3.50749777552402       -6.68285855187798
C           -5.39742370431043        2.83402891251411       -9.02345109449382
C           -5.35868103333734        1.85695960084536      -10.08233888565453
C           -5.73750830128287        2.50155486952697      -11.23229895152127
C           -6.01599734296542        3.86738553553175      -10.83634628709094
C           -6.51615551400604        6.20373570801713      -11.43673119271781
C           -6.80011709238038        7.21258370026958      -12.42753585412698
C           -6.76063326405532        8.40717942697439      -11.78438596838289
C           -6.45836982915730        8.11267207213215      -10.39678088327916
C           -6.31462275957930        9.06410112586200       -9.39316748365346
H           -6.47418084119110       10.09801542276370       -9.66259875268491
C           -5.10152020198763        6.76930397690132       -5.32649936641787
H           -4.88470803240901        7.07398708651444       -4.31178954201416
C           -5.03388273105810        2.58061120755767       -7.70725664460257
H           -4.72285324776490        1.57195904907983       -7.46785109946258
C           -6.38604598899987        4.86260780488960      -11.72325274057213
H           -6.52267437853219        4.57366629761627      -12.75625802842875
C           -5.34086143984078        9.72971478056863       -4.52654952026007
H           -5.52553996783357       10.79951301764921       -4.51794957154284
H           -4.32616067113767        9.55500330194602       -4.17347977437353
H           -6.02596585121716        9.26287517266816       -3.81973482914471
C           -6.14022501812028       11.27350468869001       -7.20839958113863
H           -7.18747101573752       11.49767936519611       -6.99923218527425
H           -5.92042939583968       11.60746427336376       -8.21712807650549
H           -5.53037374952966       11.85140881116942       -6.51963530332136
C           -4.36715134173976        4.68187174153310       -3.20965605431678
H           -5.09792405003182        5.39144971019691       -2.82701964689612
H           -3.37533074645817        5.10877267093179       -3.06166755797731
H           -4.43659439342223        3.76445691385899       -2.63245479367451
C           -4.24574994600868        1.90811864404956       -4.80394261080419
H           -4.81987744293114        1.06763413166081       -5.17665153321417
C           -3.27472745156280        1.68260539777510       -3.92721292583450
H           -2.65692974984344        2.47770117991957       -3.55417421650206
H           -3.05890106423166        0.69227335917271       -3.57104701081849
C           -4.99165118833656        0.43385420908544       -9.88656208003631
H           -5.25804723701894        0.10633466165914       -8.88610748550074
H           -3.91742088718045        0.30000561495100      -10.01615664506321
H           -5.51185519574671       -0.19237430826785      -10.60320035871248
C           -5.87289244887470        2.01452422851921      -12.58390639491875
H           -6.40895490942251        2.66611178021340      -13.26240978896207
C           -5.40368263669350        0.87483875172748      -13.08285709278964
H           -4.83208113192892        0.18163005039437      -12.50044845622714
H           -5.57285987351064        0.61184819307587      -14.11031143445428
C           -7.08777180245918        6.90013692014092      -13.85868943735984
H           -7.93698310644925        6.22082680689900      -13.93482553040918
H           -6.23083241657944        6.41535338124688      -14.32334703147496
H           -7.31930804319367        7.80034196083693      -14.41707951137240
C           -6.96484674967431        9.78114456780704      -12.31717503973925
H           -7.17494433210675        9.76233858959341      -13.38153167226484
H           -6.07221716832845       10.38112922470898      -12.15240474639452
H           -7.79793659849708       10.26289265196387      -11.80729824142805
C          -11.29268105223797        4.31338673820785       -7.54423837958183
H          -12.02554468374329        4.87260636372070       -8.12322722342464
H          -11.65981630650511        4.23177818191628       -6.52298243146121
H          -11.20701553184483        3.31825605949563       -7.96336316654700
N           -9.79194591316499        6.25295785058279       -7.07012869978561
H          -10.50639410308937        6.81902940680004       -6.63866398743652
C           -9.97516692333359        4.99786889969451       -7.58711919575366
C           -8.50744872243565        6.60127790448334       -7.28376060901037
H           -8.09323829053105        7.53588495693350       -6.97040914499333
N           -7.85249609364538        5.65134576551356       -7.90255426213239
C           -8.75728535902861        4.64439272728846       -8.09799586902180
H           -8.47474179458358        3.74205977185594       -8.59966646254888
O           -3.78662148089484        5.62861135014529      -10.20410844765183
O           -4.08440711756882        5.99144966831137       -9.01055251087677
77
 energy: -118.990741548850 gnorm: 0.019894437886 xtb: 6.7.1 (edcfbbe)
Fe          -5.69570107629202        5.81218667115113       -8.55855621097434
N           -5.69124453681365        7.58427448317845       -7.55864287309158
N           -5.23022375591941        4.83957679739845       -6.83002290356710
N           -5.82035082632106        4.02595322628083       -9.50585878023543
N           -6.35064266157502        6.77504044738565      -10.21126905343431
C           -5.96823610371527        8.80838196791376       -8.07593249841605
C           -5.87429517656920        9.81683105018276       -7.04007922406331
C           -5.53762472592040        9.16258857564651       -5.89614279295336
C           -5.42091764232421        7.76388707203994       -6.24109127217835
C           -5.00926232700804        5.41468306665422       -5.62212323059348
C           -4.62046491523009        4.41761407009750       -4.65617033996930
C           -4.59331428202202        3.22318095822914       -5.32320710248435
C           -4.98534860822643        3.51498276016263       -6.68864405059652
C           -5.40382695197281        2.82925708379466       -9.02017285583182
C           -5.37029000671989        1.84632538674876      -10.07464247320125
C           -5.75191132360750        2.48961947983213      -11.22466147578432
C           -6.02807857950078        3.86237412255901      -10.83237138970029
C           -6.52793087118699        6.20285807359870      -11.42400352049773
C           -6.80971078539062        7.21590098921491      -12.41922806138061
C           -6.76972843934247        8.41000001934667      -11.77252469311573
C           -6.46874625012978        8.11351898139446      -10.38727255945166
C           -6.31808579546562        9.06603351364381       -9.39247139840477
H           -6.47325872247324       10.09784189991082       -9.66837325673072
C           -5.10620749827850        6.76860486504411       -5.33723287821292
H           -4.89162032451395        7.07319812304500       -4.32413840414275
C           -5.04073941946844        2.57943002960047       -7.70514530044935
H           -4.73583636143353        1.57306224880523       -7.45878647957589
C           -6.39967128414893        4.85999839911654      -11.71628969732370
H           -6.52788763383442        4.58073328054438      -12.75058869899724
C           -5.34087997076737        9.72298116143021       -4.52832119040299
H           -5.52381790076222       10.79345651525243       -4.52291917752985
H           -4.32464383940460        9.54386820522857       -4.18100214910593
H           -6.02537798744726        9.25575140045068       -3.82090246809914
C           -6.13749645264904       11.27455305155834       -7.21171507152228
H           -7.18639535103387       11.49894986127188       -7.01060297773196
H           -5.90814590828915       11.60099371908197       -8.22123254896386
H           -5.53001542101142       11.85278989842523       -6.52014568071741
C           -4.37016562002025        4.68262378907048       -3.21003930400546
H           -5.10065664899443        5.38896687097630       -2.82023844128590
H           -3.37762407876949        5.10745624406924       -3.06124277017178
H           -4.43727329247205        3.75963248720416       -2.64031537796754
C           -4.24915682428699        1.91024311915605       -4.80847050285424
H           -4.82214366494411        1.07716767346790       -5.19852712828867
C           -3.28598641464336        1.68103469080230       -3.92330618793704
H           -2.65483245058476        2.47019979389137       -3.55580050383718
H           -3.06742896647021        0.68872633691750       -3.56999198968748
C           -4.99898890183876        0.41682330998217       -9.87604580026541
H           -5.25089669332062        0.08959098162372       -8.87094004196291
H           -3.92668074196178        0.28145941985546      -10.01975389465180
H           -5.52808884660176       -0.21382938476783      -10.58360533378341
C           -5.88565836464303        1.99999911455498      -12.57741224397525
H           -6.43471470302032        2.64940855445593      -13.24671038402271
C           -5.39937817736994        0.86964099962041      -13.08449988470817
H           -4.78890261919131        0.18640262469705      -12.52302448292441
H           -5.57073100123859        0.60979264690915      -14.11422213212595
C           -7.08534568941825        6.91065541298053      -13.85440989176816
H           -7.93403462499501        6.23207344990340      -13.93826553931836
H           -6.22230939849525        6.43121633343362      -14.31357991333340
H           -7.31163987030195        7.81477241473273      -14.41080542978189
C           -6.96536970452926        9.78622012009602      -12.31318684797525
H           -7.17245604018597        9.75924410961133      -13.37846269493716
H           -6.07084845695907       10.38534176788529      -12.15225816052446
H           -7.79781251690994       10.27723144482530      -11.81026100671523
C          -11.28573167350552        4.30927636418081       -7.55437217883578
H          -12.02665021592104        4.86387388980092       -8.12974383866023
H          -11.64512389452750        4.22877140451751       -6.52957891563235
H          -11.19650005884635        3.31287948117088       -7.97198260286663
N           -9.79362961480311        6.25203823783822       -7.07714273820441
H          -10.50667530872553        6.81251063153249       -6.63734927507852
C           -9.97191647108174        4.99830675743059       -7.60104953422605
C           -8.50990574925788        6.60445803097327       -7.29026759195739
H           -8.09759906278641        7.53928585362627       -6.97560448925362
N           -7.85512863821115        5.65801225826779       -7.91099520166293
C           -8.75157359928576        4.64924558778216       -8.10931111566365
H           -8.46297977449688        3.74438339664005       -8.60252495035509
O           -3.72678725480480        5.68372602310084      -10.16890129408793
O           -4.06674465481082        6.01185630196179       -8.97131564527534
77
 energy: -118.991902117282 gnorm: 0.011406204890 xtb: 6.7.1 (edcfbbe)
Fe          -5.66877742647994        5.81787551857851       -8.56118917044608
N           -5.68599217708570        7.59046677485927       -7.56508550033851
N           -5.22387459012111        4.84535018699590       -6.83727887082758
N           -5.80026328875328        4.02966399878085       -9.50763149006414
N           -6.33717366490178        6.77503616153900      -10.20425759462855
C           -5.96356619603685        8.81639314726211       -8.07850725346360
C           -5.87373969565081        9.82168922883345       -7.04133502907713
C           -5.53834478463084        9.16336023429270       -5.89675264259280
C           -5.41943087408558        7.76675096337021       -6.24645606508106
C           -5.00804533492421        5.41975558522629       -5.62600536860016
C           -4.62174907725426        4.42223232853479       -4.65916999858343
C           -4.59061404791463        3.22754280021125       -5.32673043280743
C           -4.98176147483631        3.52077720412528       -6.69378372296024
C           -5.40140092691280        2.82622681228869       -9.01857240725027
C           -5.38148406343224        1.83568027346571      -10.06765717598743
C           -5.76418055637886        2.47975144809655      -11.21793443656068
C           -6.02643492973593        3.85980564661367      -10.83143666876458
C           -6.52712663596242        6.20271404793003      -11.41647214646014
C           -6.81943357631535        7.21649257055447      -12.41095472017675
C           -6.77934535289964        8.41123662738739      -11.76219158237041
C           -6.46804271484799        8.11523338721619      -10.38011143464629
C           -6.31645592187031        9.07068757281048       -9.39304178988029
H           -6.47643836162298       10.09993255821909       -9.67516883864654
C           -5.10719365173235        6.77002188173048       -5.34254173131251
H           -4.89815981810324        7.07510208114902       -4.32917743392664
C           -5.04266781052247        2.57742555601022       -7.70362560344892
H           -4.74976661568444        1.57078064648292       -7.44907153237608
C           -6.40186245980593        4.85824367404910      -11.71250105267417
H           -6.53944208630518        4.58506618209801      -12.74498109658675
C           -5.33873354768524        9.71810466325862       -4.52861512615319
H           -5.51872491163818       10.78980835161470       -4.52208170572936
H           -4.32114109019069        9.53399602798842       -4.18576364557535
H           -6.02307878080185        9.25072097627112       -3.82048499288378
C           -6.13361324701521       11.27844955363468       -7.21646321805709
H           -7.18488263503995       11.50564216391705       -7.02817894964172
H           -5.89172471587713       11.59974198316500       -8.22587688700157
H           -5.53193404804314       11.85829242184720       -6.51998695024924
C           -4.37149656397411        4.68242793719874       -3.21251783146814
H           -5.10223431216700        5.38580887226172       -2.81581701580968
H           -3.37828399207618        5.10633451796916       -3.06192142014499
H           -4.43738900163304        3.75385195998990       -2.64958524884031
C           -4.24777471545370        1.91315261368442       -4.81953557054255
H           -4.82582098300420        1.08721891349574       -5.21702948280708
C           -3.28968417319122        1.67686917118812       -3.93052077648812
H           -2.66553367860200        2.46357325349965       -3.54423718822624
H           -3.08244042177482        0.68328086170693       -3.56926751851838
C           -5.01322985926044        0.40326646326623       -9.86958171360491
H           -5.24933366854241        0.07629122454538       -8.85883372263220
H           -3.94308519432460        0.26209198401236      -10.02911230301147
H           -5.55354509227710       -0.22849726843228      -10.57072441461798
C           -5.89794321750322        1.98654172764225      -12.56889325889504
H           -6.48219124500645        2.61862360857588      -13.22706946569374
C           -5.38300467032406        0.87086449107061      -13.08311879003850
H           -4.75744056371254        0.19355181868756      -12.53035315113985
H           -5.56624984710778        0.60557438797616      -14.11169687097756
C           -7.08525288936061        6.92131890668607      -13.84805990134521
H           -7.93250321418280        6.24220223296749      -13.94494697469597
H           -6.21563357011549        6.44944095770635      -14.30434850376349
H           -7.30819228150481        7.83109059212746      -14.39928425717022
C           -6.96973985018430        9.78718705714956      -12.30692244711050
H           -7.17622585857728        9.75418611859696      -13.37331799729801
H           -6.07209366937683       10.38481675641390      -12.15125365756784
H           -7.80060439963302       10.28758859893055      -11.80886850793511
C          -11.28101065325414        4.29827439829847       -7.56411707471222
H          -12.02911012917299        4.84738064135631       -8.13716673837999
H          -11.63461327262704        4.21619097494249       -6.53646184692984
H          -11.18533854124771        3.30162756432060       -7.98222319773861
N           -9.80169266673703        6.24970795152561       -7.08590928170722
H          -10.51478549502392        6.80244406399119       -6.63800769932745
C           -9.97205640565074        4.99519933981445       -7.61252562506711
C           -8.51908013113893        6.60877683550772       -7.29517403567540