77
 energy: -118.995435384136 gnorm: 0.000114201230 xtb: 6.7.1 (edcfbbe)
Fe          -5.60345495995026        5.87931800379999       -8.58214079623694
N           -5.69597065829915        7.63095200198522       -7.57432704456191
N           -5.19612473545651        4.90065393508786       -6.85873236122472
N           -5.72550748513039        4.10408297734904       -9.53817209361034
N           -6.22142164433477        6.84215723942355      -10.24666624724095
C           -5.95349388576777        8.86076169074246       -8.09012137005474
C           -5.85034202073589        9.86975407028759       -7.05883171121976
C           -5.51504777261234        9.21531711185357       -5.91360304779193
C           -5.42156459150658        7.81293299852909       -6.25707309957027
C           -4.99979519876163        5.46744448836497       -5.64024942837858
C           -4.65606072095866        4.46189340481356       -4.66580378342911
C           -4.64259664985659        3.26546539842897       -5.33314050031577
C           -4.98950689778629        3.56778332734588       -6.70845696575966
C           -5.42713927883687        2.87913445974448       -9.03016654918698
C           -5.52274965304577        1.87118339655796      -10.05714229916200
C           -5.87418836524046        2.52592644996925      -11.20798924323704
C           -5.99606091835531        3.92739705755875      -10.85336904509042
C           -6.40560732308596        6.27592348076930      -11.46572221938082
C           -6.72209386822201        7.29076628167334      -12.44829977237203
C           -6.71741284645512        8.47990791780556      -11.78736266753295
C           -6.39174682996165        8.17882093551190      -10.40954334157505
C           -6.27893373205541        9.12852434617612       -9.40928897693227
H           -6.44360845543029       10.16031753709700       -9.68134814587178
C           -5.10309172152040        6.81816646382025       -5.35304278774616
H           -4.90086211491059        7.12375556366838       -4.33777004126290
C           -5.08062900551193        2.62138424347545       -7.71373665956736
H           -4.85059554750685        1.59897252288417       -7.45425948342736
C           -6.31280288447984        4.92767509894321      -11.75474751603918
H           -6.47052489157816        4.63511418105751      -12.78156051485180
C           -5.27389273653548        9.76388712406863       -4.54957752887474
H           -5.41215362885295       10.84192972616855       -4.53610025538407
H           -4.25655016905913        9.54460796200604       -4.22656487309209
H           -5.96135719050457        9.31978758536558       -3.82942166062976
C           -6.06913199286872       11.32607743592926       -7.28519334212295
H           -7.07318741643656       11.51051518979398       -7.66798242741329
H           -5.35420111426349       11.70823153770596       -8.01341612690931
H           -5.94690099667048       11.88397048413680       -6.36044913055063
C           -4.43568428542826        4.71436106835888       -3.21558910086381
H           -5.13323664293647        5.46333662544675       -2.84402411011882
H           -3.42286238993270        5.07749619204815       -3.03652549467631
H           -4.57630061062391        3.79513910305097       -2.65078507314515
C           -4.37294894203249        1.93725214902011       -4.82452324875399
H           -4.93640407870760        1.13490054945665       -5.28654823027243
C           -3.50030781257018        1.64468119640438       -3.86650105324746
H           -2.87864403282306        2.39495361707550       -3.41061106137830
H           -3.35494933731674        0.63249315041078       -3.52774783592781
C           -5.32464799829739        0.41173625264968       -9.84507211926536
H           -5.73196337646785        0.10079380179556       -8.88419870935745
H           -4.26297886454697        0.16222668644512       -9.85797692678229
H           -5.81999608127877       -0.15080848491715      -10.63376961752872
C           -6.11857874360655        1.98639622655698      -12.52851222067235
H           -6.88824391500554        2.48776923916590      -13.10371932659094
C           -5.47589578792037        0.95659347977835      -13.06845043829799
H           -4.66881247776020        0.45691454650052      -12.56249215027060
H           -5.71548779194022        0.59908234474019      -14.05603474185702
C           -6.98064321286700        7.01198916203603      -13.88822308459829
H           -7.82081849478110        6.32682011258095      -14.00308275158233
H           -6.10435297830652        6.55444504137138      -14.34635442984722
H           -7.20911437218844        7.92901210433382      -14.42540624217969
C           -6.96594895312093        9.85293676847374      -12.30924071542758
H           -7.21915972456911        9.82493398330419      -13.36583484593927
H           -6.07702893172512       10.47115246139214      -12.18591218692818
H           -7.78634343172078       10.32819612944884      -11.77087686904167
C          -10.87546248420371        3.86358334693484       -6.93556006891038
H          -11.65323060992676        3.78178230111387       -7.69472877932792
H          -11.32517126634563        4.26996866770648       -6.02967265964473
H          -10.49453543858184        2.87033580441404       -6.71939867833662
N           -9.95420290439763        6.04301185548655       -7.75733050140355
H          -10.83109054979008        6.53776568225134       -7.73051373138156
C           -9.76705711695688        4.72997851750735       -7.40820630690960
C           -8.75708567669022        6.53841245896780       -8.13900232414367
H           -8.60000376986232        7.54607397969910       -8.46586381318822
N           -7.82625762165416        5.62538534504592       -8.05377175742763
C           -8.43519537419539        4.49431999797825       -7.60159914909918
H           -7.87789269246215        3.59372006788213       -7.44631639865777
O           -3.53755290662271        5.87728048797989      -10.07074187001612
O           -3.97159841730548        6.09508435015912       -8.88590831933429
