78
 energy: -116.057577025861 gnorm: 0.000060273203 xtb: 6.7.1 (edcfbbe)
Fe          18.83029518288819        4.16175878823211        0.21152260226148
N           19.72156749862718        5.39168117677927        1.53316408342111
N           17.03368042876536        4.68824695954201        0.95572670808218
N           17.93405159380150        3.02729861860586       -1.15679019991237
N           20.61230720304021        3.66363204642594       -0.52086153031776
C           21.05819507833770        5.57227986975931        1.70475849447317
C           21.31374359159449        6.52882173379168        2.75743068369288
C           20.09693678471779        6.92226426782292        3.22246801881727
C           19.11405019295751        6.19272010262462        2.45391370669581
C           16.79040933467351        5.55301956715681        1.98070706246610
C           15.38629470805816        5.59885411193422        2.28528191978364
C           14.77727822059290        4.70546527525773        1.44355486676487
C           15.82761756905628        4.16813120433045        0.60341407745680
C           16.59501317259046        2.83726164198949       -1.31106773405664
C           16.32455785466129        1.98772847328891       -2.44418484162927
C           17.54270062383372        1.65025090486084       -2.97011451523999
C           18.53200555658908        2.31966456370914       -2.14605757456894
C           20.85792471194665        2.81996260617727       -1.55563489995849
C           22.28212084424629        2.66275050536299       -1.76279397338095
C           22.89002065832756        3.43658118933315       -0.82579275388663
C           21.82836599518949        4.05706461435516       -0.06152219250188
C           22.04942164727784        4.94378057749076        0.97440024796787
H           23.07352045360708        5.17181627742066        1.22714131300184
C           17.75136382793025        6.28284863082293        2.66261030643549
H           17.40853038692374        6.95127839949042        3.43771986372502
C           15.60940068452917        3.34394571196930       -0.48359955436128
H           14.58633232527017        3.08669367692294       -0.70835939299568
C           19.89712982336620        2.19627571338043       -2.32782565670273
H           20.24022596233835        1.56437404928351       -3.13285881716561
C           19.76693933306326        7.89551521851564        4.30224274532353
H           20.67132697176865        8.33330830728487        4.71733804936356
H           19.22237097279631        7.40498522241327        5.10981156397757
H           19.14228658668319        8.70126474219389        3.91574407546617
C           22.67331050657842        6.95784088917672        3.19111285545659
H           23.21667881616195        7.40698548430273        2.35951378492104
H           23.24875468416972        6.10320624742396        3.54749293526490
H           22.61175354241130        7.68816521391160        3.99426501438865
C           14.77002955982132        6.42816780431951        3.35892399772221
H           15.02635701440093        7.47993254579322        3.22813396197408
H           15.12662917613515        6.11525248751092        4.34122979755767
H           13.68758789056831        6.32949779940010        3.34429976518828
C           13.36973875499087        4.36673631360005        1.40928655534125
H           12.68957224515967        5.19123104611685        1.59579072493258
C           12.87085100427482        3.15112672741847        1.21549935728845
H           13.50244180083883        2.28968721977075        1.07925900409721
H           11.80828209558311        2.97251218907263        1.20921521499369
C           14.96784684746214        1.63350434414811       -2.94447099112920
H           14.28742226121916        2.47758640287443       -2.84329656158172
H           14.55153492196836        0.79561156601167       -2.38254347019219
H           15.01974920667326        1.35060949481684       -3.99392285808011
C           17.84875158212514        0.83321431646348       -4.12329199957751
H           18.72771993880405        1.12841188740885       -4.68447951763019
C           17.15311238821822       -0.22521584636096       -4.52651110152966
H           16.29989570188201       -0.59151122232480       -3.98276020247281
H           17.43152179808854       -0.78012571324366       -5.40716099460554
C           22.88796535515061        1.80656223948588       -2.82133817932335
H           22.58679647404544        2.15222147554406       -3.81044877607336
H           22.56289928933012        0.77167843387327       -2.71159446385513
H           23.97351233323620        1.83260319019070       -2.76624713090118
C           24.34321025134835        3.65727179305925       -0.57964412717994
H           24.94563044609815        3.06881245771949       -1.26726651902234
H           24.60746563661037        3.37244682018233        0.43903130613640
H           24.59903145926066        4.70858239506963       -0.71398557441856
O           18.66843666546540        5.99799900332944       -1.15360245105532
H           19.18108105328104        6.62466754688391       -0.63126609908794
H           17.73888185945362        6.21428654586742       -1.02266315535608
C           19.38991609351524       -0.82872386166926        2.62546706341321
H           18.49009642047851       -1.30715396099338        3.01199817051481
H           20.18754138863394       -0.96225441557520        3.35619466436438
H           19.67710592997070       -1.32216284731672        1.70233137456015
N           18.77251871151602        1.48792473288524        3.34889238993269
H           18.62267357776746        1.25538231503521        4.31689187647361
C           19.14961898927825        0.61297420395127        2.36397804017126
C           18.63723609668512        2.70824439200545        2.78278917901039
H           18.34931898248811        3.58926213516687        3.31800129503061
N           18.90555094499743        2.65909792755773        1.50069201736534
C           19.22652268554201        1.36228187273381        1.22502495635860
H           19.48846183820967        1.05804365885548        0.23269211812543
