78
 energy: -115.945118339026 gnorm: 0.272334527771 xtb: 6.7.1 (edcfbbe)
Fe          18.78800000000000        3.99000000000000        0.37100000000000
N           19.72100000000000        5.27900000000000        1.66400000000000
N           16.91000000000000        4.58400000000000        1.09600000000000
N           17.77400000000000        2.91000000000000       -1.14600000000000
N           20.65100000000000        3.67700000000000       -0.55200000000000
C           21.06100000000000        5.60100000000000        1.69500000000000
C           21.23300000000000        6.68600000000000        2.64600000000000
C           20.03400000000000        6.99600000000000        3.16200000000000
C           19.03400000000000        6.15700000000000        2.49300000000000
C           16.69700000000000        5.48900000000000        2.12700000000000
C           15.29000000000000        5.56300000000000        2.39100000000000
C           14.66800000000000        4.76800000000000        1.48800000000000
C           15.68200000000000        4.19100000000000        0.61300000000000
C           16.45500000000000        2.88400000000000       -1.34000000000000
C           16.26900000000000        2.18200000000000       -2.58900000000000
C           17.46800000000000        1.86000000000000       -3.11300000000000
C           18.42800000000000        2.37100000000000       -2.20200000000000
C           20.81000000000000        2.74300000000000       -1.56200000000000
C           22.23500000000000        2.42000000000000       -1.69500000000000
C           22.91300000000000        3.29600000000000       -0.69900000000000
C           21.86500000000000        4.06500000000000       -0.04500000000000
C           22.08200000000000        4.98900000000000        0.97900000000000
H           23.11100000000000        5.24500000000000        1.23100000000000
C           17.68800000000000        6.17900000000000        2.81300000000000
H           17.38300000000000        6.78300000000000        3.66700000000000
C           15.46400000000000        3.31500000000000       -0.46400000000000
H           14.45000000000000        2.94900000000000       -0.62400000000000
C           19.79600000000000        2.26300000000000       -2.33200000000000
H           20.12200000000000        1.69500000000000       -3.20200000000000
C           19.75900000000000        8.09600000000000        4.23300000000000
H           20.60300000000000        8.81800000000000        4.24800000000000
H           19.66800000000000        7.62800000000000        5.23700000000000
H           18.82400000000000        8.64000000000000        3.98100000000000
C           22.58500000000000        7.33700000000000        2.98500000000000
H           22.76800000000000        8.19100000000000        2.29800000000000
H           23.40100000000000        6.59300000000000        2.86200000000000
H           22.56900000000000        7.71300000000000        4.03000000000000
C           14.63500000000000        6.46000000000000        3.52100000000000
H           14.72600000000000        7.53200000000000        3.24300000000000
H           15.16100000000000        6.29200000000000        4.48500000000000
H           13.55900000000000        6.20500000000000        3.62600000000000
C           13.15400000000000        4.50000000000000        1.38400000000000
H           12.44300000000000        5.32200000000000        1.55100000000000
C           12.63900000000000        3.26200000000000        1.08800000000000
H           13.30800000000000        2.40600000000000        0.91300000000000
H           11.55100000000000        3.11100000000000        1.02300000000000
C           14.83400000000000        1.90200000000000       -3.09800000000000
H           14.24100000000000        2.84100000000000       -3.07000000000000
H           14.34500000000000        1.14700000000000       -2.44600000000000
H           14.87300000000000        1.53100000000000       -4.14500000000000
C           17.87600000000000        1.19000000000000       -4.47500000000000
H           18.70700000000000        1.55100000000000       -5.09600000000000
C           17.15300000000000        0.14900000000000       -4.84200000000000
H           16.32300000000000       -0.20400000000000       -4.21200000000000
H           17.37100000000000       -0.37900000000000       -5.78200000000000
C           22.87800000000000        1.35500000000000       -2.65600000000000
H           22.79500000000000        1.70600000000000       -3.70700000000000
H           22.34200000000000        0.38700000000000       -2.55600000000000
H           23.95200000000000        1.22300000000000       -2.40500000000000
C           24.42000000000000        3.41100000000000       -0.36200000000000
H           24.99700000000000        2.70700000000000       -0.99900000000000
H           24.58700000000000        3.15100000000000        0.70500000000000
H           24.77100000000000        4.44600000000000       -0.56000000000000
O           18.61900000000000        6.04900000000000       -1.13200000000000
H           19.16400000000000        6.72100000000000       -0.72200000000000
H           18.15300000000000        6.13700000000000       -1.88400000000000
C           20.11400000000000       -0.95700000000000        2.84800000000000
H           19.28900000000000       -1.64100000000000        3.14000000000000
H           20.82700000000000       -0.87100000000000        3.69500000000000
H           20.63100000000000       -1.37500000000000        1.95800000000000
N           18.84900000000000        1.13400000000000        3.44900000000000
H           18.63500000000000        0.83500000000000        4.37900000000000
C           19.55400000000000        0.38900000000000        2.52100000000000
C           18.51400000000000        2.29300000000000        2.89900000000000
H           17.98500000000000        3.09100000000000        3.41900000000000
N           18.93000000000000        2.30100000000000        1.63300000000000
C           19.55100000000000        1.10800000000000        1.36700000000000
H           19.93400000000000        0.88000000000000        0.38000000000000
78
 energy: -116.013489449124 gnorm: 0.114706131087 xtb: 6.7.1 (edcfbbe)
Fe          18.77678749354918        4.04321159773053        0.33913561138339
N           19.71124994782564        5.29921866845985        1.64448951838865
N           16.90830111105178        4.59956331634397        1.08351618287605
N           17.80602295326848        2.94881693943679       -1.13825049409365
N           20.64181474196965        3.65844328863926       -0.53096762251585
C           21.04962267370378        5.60144750220564        1.69586368289450
C           21.24727766665405        6.68278086514341        2.65199025694095
C           20.03536441371861        7.00614671542798        3.16637890335687
C           19.05284738927428        6.13836905752533        2.51722262374393
C           16.69179794645417        5.46917708922197        2.12825590117133
C           15.27359101965851        5.56828308781867        2.39111186765814
C           14.64299591920088        4.75690444119537        1.48481490693689
C           15.68508280673788        4.16603452132047        0.64185735538700
C           16.47286584679494        2.86351357484307       -1.33077925301325
C           16.25005556861139        2.17385195684642       -2.59484981402977
C           17.46960943045603        1.87606811536163       -3.13425611499278
C           18.44196131140148        2.37816894407137       -2.19493618683810
C           20.83826106525226        2.74874464128571       -1.54053677253426
C           22.25959807127244        2.44627697793557       -1.67119985573117
C           22.90485840451064        3.27710806532571       -0.72114694387213
C           21.85931515243855        4.02727978119761       -0.04316207360784
C           22.06207584843172        4.97317397913663        0.97209993684329
H           23.08777756101668        5.23822556739139        1.21580951945565
C           17.69434331470941        6.15907840784215        2.81092351762144
H           17.38441710846491        6.78455777035446        3.64321635724184
C           15.48274179274847        3.31414144843092       -0.45203132596411
H           14.46668732559391        2.98350960906764       -0.64262951189897
C           19.81645571827878        2.25344671294267       -2.33147541116252
H           20.13232820414518        1.68474804344342       -3.19994630123855
C           19.75846223902715        8.08068691787778        4.21297102813013
H           20.58431238435887        8.80047658481883        4.24181784523456
H           19.66524111822919        7.63217778315816        5.21112492553245
H           18.83705290090172        8.62593978608466        3.98332726479115
C           22.57544168587368        7.32832854415298        2.98104689854381
H           22.76551265238928        8.17445790161916        2.30744359474410
H           23.39012551543649        6.60666481374106        2.86796096671852
H           22.57222283997186        7.70256285385188        4.01045860889463
C           14.64726075131392        6.44032814336625        3.49381774036066
H           14.73069226039254        7.50494661282632        3.23822747692975
H           15.15259147133021        6.28593328061673        4.45557621058573
H           13.58553760616020        6.20149066346343        3.61666503053141
C           13.17423552653516        4.48420108607934        1.37409363492856
H           12.48161585053665        5.30941257710052        1.55264232534072
C           12.65467646871942        3.28161820800578        1.09299543353296
H           13.29089303631187        2.41832912645476        0.93193469870936
H           11.58014341287022        3.12551167457747        1.02680032572820
C           14.84688805485405        1.90366579757405       -3.10325058902628
H           14.25302274795460        2.82489156266143       -3.06990281483461
H           14.35691958407538        1.15824567135321       -2.46367544290134
H           14.87020440420985        1.53677915367971       -4.13354167379078
C           17.84082823679629        1.20105473204118       -4.44072323216801
H           18.67732631541016        1.56535632643008       -5.04107000317158
C           17.14506258537606        0.14698596070250       -4.83768509370287
H           16.32929176734845       -0.22164380421824       -4.22976273085568
H           17.36607160364487       -0.37321994680788       -5.76693863116419
C           22.86308375565815        1.39668764648665       -2.62274048905227
H           22.79014604763504        1.71287203547097       -3.67388402383280
H           22.34895247652372        0.42713112231711       -2.54291555257244
H           23.92453664616434        1.23476191626065       -2.40068487301271
C           24.38538860856695        3.39927844505566       -0.38069056923871
H           24.98366613780912        2.71636546219287       -0.99335274756091
H           24.57052306128242        3.15571688727781        0.67575599041059
H           24.75081922817180        4.42076003405125       -0.55846828994132
O           18.63039325500074        6.02009272220725       -1.09549449274102
H           19.16358565092576        6.71951443926984       -0.72362325971805
H           18.14645156070049        6.13389889851528       -1.89346840039343
C           20.10631189688272       -0.95625496433348        2.84734016017663
H           19.30229659715868       -1.64245514104047        3.13880134353685
H           20.81673093203517       -0.87868237557455        3.68011981977125
H           20.62239014393798       -1.36752412802334        1.97499635423072
N           18.86144228243156        1.13113587228548        3.44766634672483
H           18.64536159996107        0.83278408609743        4.38366885449350
C           19.54383649017305        0.38325468666120        2.51850491186474
C           18.51773664413474        2.29699668363734        2.87872878122939
H           17.99249944467980        3.08410011767406        3.39569265322572
N           18.92498124643523        2.32903234270151        1.62040575127825
C           19.54674205301816        1.13049439757478        1.37545515533124
H           19.93338341349141        0.89856611607779        0.39831431776180
78
 energy: -116.038054997209 gnorm: 0.036731653619 xtb: 6.7.1 (edcfbbe)
Fe          18.76890947731937        4.08004582264789        0.30761661463062
N           19.69638783539070        5.31243140151287        1.62660756350386
N           16.91558244789237        4.59864472397977        1.08041998817483
N           17.83812835898874        2.99517975251108       -1.13529526995626
N           20.62617401056474        3.63918517089452       -0.51383674338281
C           21.03204179831096        5.59947849344531        1.68989048813403
C           21.25416939852414        6.67068610262085        2.65214545087773
C           20.03532435608292        7.00000220169271        3.16989746613077
C           19.06430271244498        6.12916724286247        2.52322072887368
C           16.69492050852444        5.45379141316925        2.11928352007483
C           15.27275527748243        5.56316698977755        2.38943550359016
C           14.64006068479423        4.73572338713253        1.48677638948896
C           15.70002321919705        4.14932008318708        0.65964207994501
C           16.49666063479709        2.85980677824907       -1.32401335928844
C           16.24502611283750        2.16338592166658       -2.58154819815087
C           17.47406867642015        1.88526099567058       -3.13417237827212
C           18.45760188367724        2.40025908106614       -2.19120090221848
C           20.84740204132676        2.74777919114336       -1.51967936164678
C           22.27027105444403        2.46748845611638       -1.64665448344706
C           22.89058162266499        3.25847702915891       -0.73200059335715
C           21.84467302083934        3.99743707689057       -0.03671069967587
C           22.03569170545522        4.95735633938200        0.96457948089035
H           23.05852408463653        5.22952781012716        1.19988478485432
C           17.69921354083299        6.14969179989459        2.79506573662052
H           17.38469345947285        6.78734863060101        3.61296040491549
C           15.50895391676636        3.32559867198000       -0.45016335331087
H           14.49027604773331        3.02870253608553       -0.66990213015633
C           19.83256192201462        2.24591743932475       -2.33381128516764
H           20.14540790409469        1.66871347419055       -3.19404594567454
C           19.75707531880940        8.05819238260261        4.19249595698725
H           20.57216759954686        8.77871646630342        4.22819436236650
H           19.65822124303727        7.62303798268546        5.18881496795323
H           18.84210739578899        8.60322994763018        3.97265832037233
C           22.56478260580426        7.31361901295162        2.97423539204804
H           22.75845464897484        8.15708896580255        2.30893197085669
H           23.38328220781748        6.60822172257150        2.86783035883910
H           22.56899683122220        7.68859839540772        3.99541910833827
C           14.66144960836916        6.41573224667599        3.46090682371183
H           14.74285968543034        7.47726862858436        3.21787688173814
H           15.15756687035676        6.26750641943134        4.42073595703354
H           13.60653525058502        6.18631749243270        3.59486477395007
C           13.21030672383653        4.47308099530234        1.37454683698761
H           12.53870909338577        5.30944929605479        1.55748878979114
C           12.67300498560385        3.29264900518241        1.09886910836255
H           13.27867351438189        2.41579104325766        0.94772842849217
H           11.60606218907489        3.14310577031496        1.02965594114340
C           14.86789874404076        1.90626697916295       -3.09965233754632
H           14.26999587777667        2.81668920772251       -3.06763999653433
H           14.36744586082191        1.16357604938071       -2.47648818841146
H           14.88480327647313        1.54383709399578       -4.12271363693792
C           17.80279850207942        1.21447185169919       -4.38932183937832
H           18.64202308435024        1.58930948340898       -4.97096557270174
C           17.13339462424646        0.15176912866757       -4.82689829327337
H           16.32535762996433       -0.24776049859110       -4.24281936135578
H           17.36855801713302       -0.35598551347562       -5.74924704753990
C           22.85151067696553        1.44290414963447       -2.58795690137583
H           22.77413311638730        1.74895413053414       -3.63481583858059
H           22.33747611959543        0.48091211036318       -2.50785728076764
H           23.90593871173967        1.26401569543701       -2.38018661623360
C           24.34988207379097        3.38732154772519       -0.39824461146405
H           24.95795279569889        2.71605493209367       -0.99992678407731
H           24.53702341990166        3.15378635936400        0.65306438497441
H           24.71333087609075        4.40388608737335       -0.56744248457833
O           18.63722103242004        5.97845946244186       -1.05911178895310
H           19.15611005832527        6.71780541064558       -0.73667030214866
H           18.15632289509353        6.12263518748220       -1.87581807442978
C           20.09808760464693       -0.95241438616171        2.84136139482335
H           19.30791266737718       -1.64167295742891        3.13512157681557
H           20.80637827004794       -0.87743061632240        3.66657180422654
H           20.61437776280931       -1.36009752301442        1.97959126542403
N           18.86958637867910        1.13524867820127        3.44635629425712
H           18.65413761699854        0.84021241152697        4.38602656310374
C           19.53459759882209        0.38409810905386        2.51344283282025
C           18.52174367330562        2.30435500775424        2.86419111403712
H           17.99690045392276        3.08449518290279        3.37674133475594
N           18.92110300888657        2.34813644997047        1.61541440075238
C           19.54479976983595        1.15151414263287        1.38081654664234
H           19.93955431621660        0.91746685564634        0.41243196768383
78
 energy: -116.045323543452 gnorm: 0.023016147214 xtb: 6.7.1 (edcfbbe)
Fe          18.76890545279673        4.09265968336843        0.29344875295833
N           19.68559753487490        5.31646273849659        1.61320404686482
N           16.93561464896124        4.59361460023776        1.07460136782534
N           17.85787361702236        3.02548989330982       -1.13429037213809
N           20.60778917427666        3.62545761181033       -0.49997328663263
C           21.01876393673572        5.59540239886235        1.68367717753052
C           21.25177644584953        6.65654495906386        2.64708614041211
C           20.03395398177730        6.98681707040520        3.16562566565902
C           19.06494539522350        6.12428318093839        2.51918384665065
C           16.71071872332003        5.44187537330018        2.11221877356446
C           15.29232965757755        5.54713405263642        2.38164784525223
C           14.66472991516258        4.71320870885745        1.48644602207304
C           15.72451394889531        4.13552148448219        0.66468842926362
C           16.51592690439328        2.87530040122928       -1.31883574813792
C           16.25105388042593        2.16672863040060       -2.55850454282315
C           17.47528812870085        1.88714558301637       -3.11239077681374
C           18.46699430820645        2.41847258967454       -2.18707667505250
C           20.83396882287529        2.74322118044440       -1.50765423407113
C           22.25518072967078        2.47397114090663       -1.63551427648492
C           22.87445409570738        3.25942059090187       -0.71508388470633
C           21.82345441009848        3.98589536949197       -0.01918942154154
C           22.01706133628232        4.94735299371739        0.96658565788072
H           23.03886623014522        5.22240045456196        1.19221914314682
C           17.70330925215970        6.14617676256916        2.78650370016948
H           17.38093719754690        6.80023959493130        3.58724592533562
C           15.52966613876375        3.33741894880204       -0.45414265963796
H           14.50629156788126        3.07938552169382       -0.70476225491226
C           19.83585584445825        2.24014376887626       -2.33411853191132
H           20.15310866029288        1.64769339371270       -3.18229927916525
C           19.74875516688156        8.04033776596681        4.18168682710366
H           20.56246839027263        8.76166217445037        4.21650736582562
H           19.64393081803112        7.60497963576189        5.17699875222598
H           18.83209716659836        8.57889750439267        3.95325080076536
C           22.56151030461132        7.29476238124217        2.96708261391460
H           22.75286028141285        8.13757497459021        2.30023442270834
H           23.38308643206215        6.59216324211536        2.86237391622444
H           22.56491151983802        7.67082190591961        3.98784794405901
C           14.67671667474403        6.39597851545661        3.44061953680311
H           14.76212756343903        7.45523694244641        3.19071169052602
H           15.17112847555280        6.24553919452608        4.40033785527355
H           13.62213157516756        6.16276505800814        3.56584567478102
C           13.24272892011521        4.46512644136874        1.37396344367307
H           12.59202873363864        5.31534542516295        1.56301022086040
C           12.68327952268320        3.29060125017832        1.10472224053544
H           13.27037486049380        2.39688106050303        0.97128015396281
H           11.61536770409998        3.16406193349825        1.03381589560318
C           14.88324654522639        1.90921527568657       -3.08959480599349
H           14.28513372161687        2.81958713276380       -3.06047864417185
H           14.37329808150787        1.16011766361331       -2.48140870427571
H           14.91625877936173        1.55345855314545       -4.11547017145594
C           17.78437851117008        1.21065740136618       -4.35295085888695
H           18.62309913013701        1.60042854680007       -4.92112104676032
C           17.12324390568704        0.15212173945617       -4.81527509406344
H           16.31603143556311       -0.27841287431474       -4.24707604971878
H           17.36945464644867       -0.33294296308023       -5.74491430446347
C           22.83992022442068        1.47070155398670       -2.57283483088208
H           22.75368128854920        1.79413430734902       -3.61091238633715
H           22.31913808450670        0.51643975637376       -2.48163973534202
H           23.89265824687444        1.30035290554177       -2.35924802875999
C           24.32790014103492        3.38603432105363       -0.39998968190292
H           24.92635453411263        2.71444230952731       -1.00985530596497
H           24.51194638583142        3.15034641460229        0.64888454423067
H           24.67765235615730        4.40379432748956       -0.57633670396449
O           18.64619874643458        5.94625913841237       -1.03378064447975
H           19.15128434697317        6.71368062450912       -0.74648113509922
H           18.16602908701251        6.09583136805009       -1.85205278712921
C           20.08898706249451       -0.94223741948979        2.83117300300307
H           19.30181585610811       -1.63506696526050        3.12579905104014
H           20.79851977381270       -0.86970514012918        3.65518411825138
H           20.60500652080578       -1.34894722945040        1.96891181193109
N           18.87107175742821        1.15020082519076        3.44310688099460
H           18.66084507904229        0.85877162191163        4.38481702704621
C           19.52974403985825        0.39667338234765        2.50665778936579
C           18.52298750677350        2.31924198555464        2.85767267901330
H           17.99541036489142        3.09928137425584        3.36577627986271
N           18.92229683650416        2.36244585845540        1.61247529427708
C           19.54708457264939        1.16949155031276        1.37815755788234
H           19.95388838128071        0.93942856768149        0.41496897735057
78
 energy: -116.048557661443 gnorm: 0.012596483784 xtb: 6.7.1 (edcfbbe)
Fe          18.77015458156266        4.09412335186632        0.29152180857040
N           19.67693602047996        5.31300672145334        1.60658906486200
N           16.96085752542646        4.58485564209742        1.06956126376824
N           17.87221542292461        3.04714038169572       -1.13157568993875
N           20.58025992296842        3.61973444889260       -0.48647759506598
C           21.00759419873418        5.58988729483829        1.68080389998336
C           21.24849000052610        6.64183418765414        2.64437658283924
C           20.03317921725896        6.97416084121293        3.16218534620968
C           19.06411790732812        6.12248809159204        2.51279236954529
C           16.73051131785931        5.43342260058758        2.10448744972379
C           15.31795196401995        5.52872042012010        2.37568309196093
C           14.69499982033424        4.68987003996034        1.48868709381151
C           15.75036036959384        4.12595825449225        0.66602207296521
C           16.53085661314673        2.89375597434320       -1.31454144480975
C           16.25843500341681        2.17009180382928       -2.53417811743251
C           17.47617727669992        1.88083901800017       -3.08675181099583
C           18.47288697600272        2.42508565772787       -2.17880201687629
C           20.81287286516761        2.74100254935585       -1.49373495529774
C           22.23124856053553        2.48016114205051       -1.62124132400404
C           22.84873319829642        3.26357916693462       -0.69516409180959
C           21.79574817526751        3.98023210949426       -0.00276700865535
C           22.00165549156750        4.93959139418494        0.97036906231463
H           23.02439860508632        5.21092505147432        1.18837578512561
C           17.70705880424370        6.15139572337397        2.77746866099893
H           17.37620486281178        6.81563035927944        3.56435590146401
C           15.54339761168618        3.35426417326588       -0.46206188055213
H           14.52092412214941        3.11959621659120       -0.72312414336180
C           19.83489314691312        2.22889048175666       -2.32914654797090
H           20.15926985512682        1.62501017486772       -3.16585007864869
C           19.73727207655980        8.02537725116319        4.17678660821587
H           20.54855382169965        8.74929190478603        4.21610849335657
H           19.62304220496813        7.58725835306245        5.17005889584878
H           18.81869243570541        8.55648634524647        3.93503303346721
C           22.56197649842727        7.27292269479724        2.96108115767385
H           22.75378095958615        8.11265752116923        2.28939315104356
H           23.38079017659236        6.56591783473448        2.85651023793731
H           22.56612087919548        7.65081507591865        3.98177116341352
C           14.69552199776113        6.37820472648510        3.42946316460956
H           14.78430573605520        7.43550972545193        3.17216510506051
H           15.18453406983901        6.22711866318147        4.39167807347772
H           13.64043387415539        6.14058474475898        3.54201693562196
C           13.27232980958693        4.45117642255706        1.38066242453870
H           12.63965773234821        5.31561310047820        1.55969405869953
C           12.69705812705726        3.28286785126676        1.11474350045860
H           13.27224414640833        2.38506959295367        0.96681703463109
H           11.62670827082831        3.18039092256129        1.04106565079136
C           14.89633018007888        1.91223128222504       -3.07753344073165
H           14.29637489947002        2.82215202593817       -3.04971516276929
H           14.37989376567940        1.15364615762208       -2.48611532800720
H           14.95354890489464        1.56651369612169       -4.10753574228603
C           17.77599892210745        1.19970472315493       -4.32664502381552
H           18.61617166832684        1.59735185521120       -4.88543242878446
C           17.11627110913442        0.14942113892676       -4.80414017875959
H           16.30590227647600       -0.30142372145208       -4.25378143076644
H           17.37089028811487       -0.31265230526067       -5.74322438333748
C           22.82394960057143        1.49360310902871       -2.56604286808446
H           22.73340313585595        1.83193075435928       -3.59806554729166
H           22.30910336670963        0.53709277626774       -2.47943529808203
H           23.87776961290108        1.33389526752739       -2.35151385289364
C           24.30228932473829        3.39083581631453       -0.39478090994307
H           24.88982659299488        2.71784897071771       -1.01465493754211
H           24.49711220362758        3.15366025114637        0.65107901237926
H           24.64679676973492        4.40818803898491       -0.57962390355239
O           18.66102169170912        5.92082403535563       -1.02884566730807
H           19.14293314187811        6.70682148391854       -0.75709062644626
H           18.17523043053721        6.08453299390827       -1.84026741118625
C           20.08021191930393       -0.92715123569808        2.81851890517812