87
 energy: -128.407763970583 gnorm: 0.225909330058 xtb: 6.7.1 (edcfbbe)
Fe          25.21200000000000       23.59500000000000       25.25400000000000
N           24.34900000000000       21.87800000000000       25.81200000000000
N           26.32500000000000       23.60600000000000       26.91900000000000
N           26.13000000000000       25.26600000000000       24.62900000000000
N           24.08400000000000       23.59700000000000       23.56200000000000
C           23.35600000000000       21.19400000000000       25.13500000000000
C           22.85100000000000       20.15800000000000       26.01100000000000
C           23.52600000000000       20.21800000000000       27.16100000000000
C           24.48100000000000       21.29700000000000       27.06000000000000
C           26.24100000000000       22.70600000000000       27.96400000000000
C           27.24500000000000       23.02400000000000       28.94800000000000
C           27.90000000000000       24.10800000000000       28.52200000000000
C           27.34700000000000       24.48200000000000       27.23600000000000
C           27.14600000000000       25.92700000000000       25.29000000000000
C           27.44600000000000       27.13200000000000       24.56500000000000
C           26.65400000000000       27.18100000000000       23.48600000000000
C           25.81200000000000       26.01500000000000       23.51400000000000
C           24.16800000000000       24.52100000000000       22.54400000000000
C           23.37100000000000       24.03900000000000       21.43600000000000
C           22.83400000000000       22.86800000000000       21.78500000000000
C           23.26500000000000       22.56900000000000       23.13000000000000
C           22.92400000000000       21.45800000000000       23.86100000000000
H           22.26000000000000       20.73100000000000       23.39300000000000
C           25.35900000000000       21.66100000000000       28.04900000000000
H           25.35500000000000       21.07700000000000       28.96900000000000
C           27.76000000000000       25.52800000000000       26.44900000000000
H           28.64200000000000       26.08299999999999       26.76900000000000
C           24.86400000000000       25.70000000000000       22.57500000000000
H           24.65000000000000       26.43700000000000       21.80100000000000
C           23.33800000000000       19.31000000000000       28.39399999999999
H           22.67000000000000       18.46200000000000       28.13200000000000
H           22.87600000000000       19.89100000000000       29.22100000000000
H           24.32200000000000       18.90700000000000       28.71700000000000
C           21.72500000000000       19.15500000000000       25.67700000000000
H           22.17100000000000       18.18000000000000       25.38500000000000
H           21.11700000000000       19.54100000000000       24.83100000000000
H           21.08100000000000       19.00300000000000       26.56900000000000
C           27.46400000000000       22.26800000000000       30.28000000000000
H           28.04100000000000       21.33800000000000       30.08800000000000
H           26.48200000000000       21.99700000000000       30.72400000000000
H           28.03600000000000       22.90800000000000       30.98500000000000
C           29.05400000000000       24.80900000000000       29.26900000000000
H           29.79000000000000       24.23000000000000       29.84600000000000
C           29.16900000000000       26.14200000000000       29.22000000000000
H           28.44600000000000       26.74400000000000       28.65000000000000
H           29.98800000000000       26.65200000000000       29.74900000000000
C           28.54500000000000       28.12100000000000       24.99900000000000
H           29.35300000000000       27.57000000000000       25.52500000000000
H           28.11700000000000       28.87800000000000       25.69000000000000
H           28.97300000000000       28.62200000000000       24.10500000000000
C           26.55500000000000       28.27300000000000       22.39900000000000
H           26.26000000000000       28.00500000000000       21.37400000000000
C           26.82000000000000       29.56100000000000       22.66200000000000
H           27.11900000000000       29.87400000000000       23.67300000000000
H           26.74200000000000       30.32000000000000       21.87000000000000
C           23.20500000000000       24.77500000000000       20.09000000000000
H           24.20500000000000       25.05800000000000       19.69600000000000
H           22.60200000000000       25.69600000000000       20.23800000000000
H           22.70500000000000       24.10700000000000       19.35600000000000
C           21.91300000000000       21.96900000000000       20.92600000000000
H           22.53200000000000       21.25500000000000       20.34100000000000
H           21.32500000000000       22.59700000000000       20.22300000000000
H           21.22800000000000       21.39500000000000       21.58599999999999
C           29.94500000000000       20.79600000000000       24.16600000000000
H           30.75400000000000       21.41400000000000       23.72200000000000
H           29.91400000000000       19.81500000000000       23.64500000000000
H           30.15800000000000       20.64500000000000       25.24600000000000
N           28.12600000000000       21.82100000000000       22.77000000000000
H           28.56900000000000       21.61700000000000       21.89700000000000
C           28.64200000000000       21.49299999999999       24.00300000000000
C           26.97100000000000       22.43800000000000       22.92800000000000
H           26.35100000000000       22.81200000000000       22.11500000000000
N           26.72100000000000       22.51200000000000       24.22300000000000
C           27.75200000000000       21.93500000000000       24.91700000000000
H           27.75400000000000       21.89400000000000       25.99900000000000
C           22.42600000000000       27.34700000000000       28.38000000000000
H           21.96600000000000       26.98300000000000       29.32300000000000
H           21.70900000000000       28.02300000000000       27.86600000000000
H           23.35900000000000       27.89800000000000       28.62400000000000
N           21.77900000000000       25.31000000000000       27.04200000000000
H           20.80500000000000       25.37500000000000       27.25800000000000
C           22.74200000000000       26.18500000000000       27.50000000000000
C           22.34700000000000       24.39099999999999       26.28500000000000
H           21.81600000000000       23.57600000000000       25.79500000000000
N           23.64100000000000       24.64300000000000       26.23800000000000
C           23.91700000000000       25.76200000000000       26.98400000000000
H           24.92400000000000       26.14900000000000       27.07600000000000
87
 energy: -128.449963649401 gnorm: 0.091557567125 xtb: 6.7.1 (edcfbbe)
Fe          25.21218042289375       23.58867276208419       25.24597896245898
N           24.33016841777910       21.88884798185663       25.82699205995621
N           26.32625006257585       23.61023406627444       26.93020154476489
N           26.11341875358844       25.28065816619513       24.63390252467747
N           24.10087493524100       23.58181352697276       23.55057163921672
C           23.35884138250615       21.19293123802933       25.15279519190686
C           22.84295695722303       20.14119955371140       26.00600964666755
C           23.52364261982557       20.20416360734227       27.17219429135465
C           24.46420526350139       21.29685130191918       27.05684648309573
C           26.24863508040749       22.71493581089306       27.96703306585215
C           27.24753105370957       23.02246391118665       28.96499964089564
C           27.92655955811896       24.11317311772651       28.52513977830019
C           27.34677564215959       24.47427110881326       27.24170655333892
C           27.13671351155170       25.93281910299247       25.27317769096953
C           27.46497846244851       27.14349121069824       24.55766491994375
C           26.64595890223498       27.20605565212719       23.47376182328838
C           25.80936615968425       26.02490983396526       23.52414850831131
C           24.15157339384730       24.50940059547229       22.54540238879735
C           23.35858817062757       24.04916254264156       21.42440171162920
C           22.82162359940207       22.85881345819433       21.77741273293703
C           23.27993555470882       22.57077227673600       23.12012346789643
C           22.93126862151236       21.46082642095599       23.86556790481310
H           22.25899212189903       20.74433177850371       23.40422068428073
C           25.35549457572901       21.66337246799394       28.04510395571964
H           25.35752244611081       21.07571476149068       28.95629323693628
C           27.75525057408623       25.52231398836874       26.44051642824083
H           28.62787454132328       26.07772305143891       26.76135704228740
C           24.85909716990638       25.69577658130106       22.57843445701758
H           24.66786964978305       26.41677240520290       21.79086746448377
C           23.34224094453171       19.31829954515871       28.38369048217266
H           22.68626294243325       18.47836386765167       28.13787318141609
H           22.89093894406663       19.88220300280170       29.20790397363719
H           24.30581646124664       18.91847334421885       28.71408364051317
C           21.73605784388606       19.16462702102687       25.67155867143516
H           22.16294379070448       18.19656487400995       25.38518329074104
H           21.12419203009008       19.53427910155871       24.84512688642343
H           21.09334099763542       19.01045799509055       26.54435166250270
C           27.45969241725916       22.27366945242481       30.26381499564279
H           28.02740355099607       21.35231942509497       30.08697775600441
H           26.50025897121447       22.00543600663824       30.71633298935937
H           28.02050384019602       22.89586296800357       30.96697050234714
C           29.03479518459797       24.81573675535439       29.23813011049641
H           29.74336471962266       24.22171200713802       29.81564936696855
C           29.16505234308648       26.13834606933582       29.21815502058794
H           28.45509042847936       26.75551149705836       28.68382568223079
H           29.97323553043643       26.64017437685513       29.74103277493204
C           28.54160381368711       28.11059423090837       24.99157677805515
H           29.34397662833972       27.58074024917322       25.51309001119637
H           28.12799836514889       28.86200543369097       25.67488089174305
H           28.96521610280278       28.61654800842881       24.11971329966336
C           26.56224275656969       28.26589232103971       22.42728956285263
H           26.26260499189439       27.97846445802486       21.41978736021197
C           26.82359731929834       29.54796925926751       22.66702522551836
H           27.10428011470025       29.88386615923067       23.65602205260543
H           26.74429531278195       30.29908814455722       21.88703943434328
C           23.20950512744743       24.77225070476690       20.10418246931586
H           24.18962702564157       25.05582870930255       19.70614704023068
H           22.61280799473847       25.68126322546693       20.23471956424725
H           22.71568258458367       24.12550926254347       19.37322466789980
C           21.92293113908066       21.97477332439592       20.93800493771676
H           22.52214063617184       21.26613289763236       20.35402233876951
H           21.33472204125376       22.58213608620401       20.24344916303869
H           21.23874831290304       21.40664705056340       21.57352904455626
C           29.95197430014606       20.79367452585371       24.15934977678272
H           30.75804612701605       21.39694148716586       23.72736371777162
H           29.93042034348292       19.82152155841192       23.65485357505410
H           30.15653123152048       20.64337108877076       25.22217042762704
N           28.13958158572236       21.81356858398896       22.76732919232830
H           28.58113608954922       21.61112477663798       21.88723926562452
C           28.65133187275729       21.48730498305426       23.99642785543332
C           26.96885777351307       22.43957332540993       22.94824906629531
H           26.35238288146988       22.80948679387513       22.14641093371844
N           26.70861949955355       22.52662485065201       24.23418887912783
C           27.74319553292270       21.93609448499898       24.90336521776477
H           27.74929936094722       21.89066718458422       25.97554897067780
C           22.41908158279922       27.34632166156457       28.38292386085443
H           21.96646649888191       26.99909212370590       29.31833653396890
H           21.71774090940350       28.02404409281095       27.88372432364198
H           23.33702059464796       27.88996279079222       28.61848084192932
N           21.77693641815121       25.32140905368887       27.05078679905268
H           20.79638812221507       25.38214786649901       27.26565748872693
C           22.73665088527454       26.19153862388959       27.50353976201629
C           22.37213533323409       24.39647724345616       26.28421550828718
H           21.84888428153301       23.58886140380281       25.79935637660988
N           23.66423983279579       24.63361792784844       26.22555292576002
C           23.91128390820382       25.74954034346861       26.97699450450762
H           24.90847622234718       26.13581410936380       27.07174356702546
87
 energy: -128.459652274166 gnorm: 0.012968392109 xtb: 6.7.1 (edcfbbe)
Fe          25.20711728955411       23.58590246979813       25.23692201531587
N           24.31796064554189       21.89684116596348       25.83619989735984
N           26.32454223993610       23.61138049031294       26.93559628142618
N           26.10054194344591       25.29085313119460       24.63573616090954
N           24.11445450537121       23.57061872219037       23.54253479229813
C           23.36011192558287       21.19813155342630       25.16619573964815
C           22.84016386057321       20.13425517877459       26.00109941268848
C           23.52329849060049       20.19913098659419       27.17717540944234
C           24.44984862811763       21.30330313113171       27.05472797280018
C           26.24837566381634       22.72406039535984       27.96664157767910
C           27.24506789468145       23.02254632091713       28.96844580646021
C           27.93300720790834       24.12018466711536       28.52114232040161
C           27.33658362912055       24.47006235458854       27.24103592600939
C           27.12513614159371       25.93409198058768       25.26275906423289
C           27.47320003024318       27.14635208266916       24.55773831402002
C           26.63312571873965       27.22157039563172       23.47530227718235
C           25.80254018271336       26.03030853079869       23.53449195304869
C           24.14823773601106       24.49637018666870       22.54619559937292
C           23.35083908689804       24.05458060471847       21.42264909410633
C           22.81768060227554       22.85113284649282       21.77678753588085
C           23.29681578937781       22.56996964483390       23.11500599228483
C           22.93646210960980       21.46609477931723       23.87209318953550
H           22.25285025075540       20.76020068794398       23.41941347186926
C           25.34941174748247       21.66957533188086       28.04134581583649
H           25.36237419646160       21.07294242987180       28.94275978541602
C           27.74431021719615       25.51740019282500       26.43318664865549
H           28.61093899879701       26.07304512429591       26.75534657374503
C           24.86189752775030       25.68566875788450       22.57778466330272
H           24.69492179204391       26.38709046652563       21.77085098995540
C           23.35013193830285       19.32711374125781       28.37454007024142
H           22.69876250226076       18.48980833014502       28.13948882169791
H           22.90687087723974       19.88515252905044       29.19921981441711
H           24.30594746844103       18.93096201780876       28.70982144163662
C           21.74851269403686       19.17363177321856       25.66238371782894
H           22.16265711153212       18.20681204863464       25.37550553959592
H           21.13557822727711       19.53899904235169       24.84499647998359
H           21.10438807677698       19.01788240634103       26.52615016192403
C           27.45418869651063       22.28136593942158       30.24623243073133
H           28.01474105402452       21.36163433272558       30.07381359304157
H           26.50456232997744       22.01373181106132       30.70326040076815
H           28.01225918825179       22.89232919721409       30.95094561436747
C           29.00301782769140       24.81749160928764       29.20895538774966
H           29.69608075450259       24.20123811992916       29.77310046556013
C           29.15554109690996       26.13790069930865       29.22091508141010
H           28.45871486110615       26.78244552593461       28.71520385649807
H           29.96524975900851       26.62126078761804       29.74184201245518
C           28.53939440771392       28.09776232311185       24.98110022794835
H           29.34201877150835       27.57882399663719       25.49872030847425
H           28.13408554310734       28.84712642014311       25.66274807260006
H           28.95666107819570       28.61136587883071       24.11871621733351
C           26.55813863265163       28.25181534488766       22.46237158060426
H           26.25777382941270       27.94013745898058       21.46783403113448
C           26.81910289003300       29.53799632544271       22.67579200802291
H           27.09010483270346       29.90261519073411       23.64932594640527
H           26.75431867426488       30.27444239768578       21.89166855680423
C           23.20841315077053       24.77327673687878       20.12274644883969
H           24.18261182590630       25.05473592155001       19.72729614465894
H           22.61838812061363       25.68124972908862       20.24170273207418
H           22.71801698890679       24.13784765659502       19.39017222410470
C           21.93122406869237       21.97819657164129       20.95276681594663
H           22.52121771163981       21.27007353103425       20.36977711928822
H           21.34338088033428       22.57650277580982       20.26042109978083
H           21.24659253330778       21.41224938756218       21.57741965438013
C           29.95681466896885       20.78927543384152       24.15452378561815
H           30.76226789362671       21.38442106899170       23.72752414241509
H           29.94263432770554       19.82102618608698       23.65752148168022
H           30.15760571038242       20.63940219640254       25.20940805135901
N           28.14264252964102       21.81284856056338       22.76672247906743
H           28.57800983070533       21.61415743568616       21.88018567520572
C           28.65591203783638       21.48305051413872       23.99233377515736
C           26.96558572037380       22.44675734801879       22.97003245524326
H           26.34836989666660       22.81596767509031       22.17745086347335
N           26.70303132989315       22.53776998687164       24.25037445281599
C           27.74165407758440       21.93605665781987       24.89761498230315
H           27.75633803780870       21.87812658550583       25.96438408815454
C           22.41734826803931       27.34595529024325       28.38464648010634
H           21.96600648344923       27.00584608876954       29.31531447741252
H           21.72139264738289       28.02405486888735       27.89362908285147
H           23.32702141810277       27.88814853489216       28.61718078689065
N           21.78308270855116       25.32432743247769       27.05146225769644
H           20.79913189054750       25.37689136030373       27.26327301274025
C           22.73847036646603       26.19518105905610       27.50406931120057
C           22.40003542185012       24.40098174048518       26.27917871130264
H           21.88561573059891       23.59548997973941       25.79633799202096
N           23.68779700615030       24.63475595112909       26.21582471731737
C           23.91334598231677       25.74604862406624       26.97274651114797
H           24.90342155953957       26.13681725269722       27.07514206762802
87
 energy: -128.461172369456 gnorm: 0.009806961803 xtb: 6.7.1 (edcfbbe)
Fe          25.20578775855997       23.58463927807326       25.23367258421986
N           24.30973099956687       21.90418512832370       25.83981156387490
N           26.31187040039262       23.61435286023534       26.93690633057661
N           26.09084510477331       25.29339607639411       24.63882155010776
N           24.12308358439972       23.56477198660275       23.54220679837953
C           23.35726346705263       21.20313286252705       25.16926161405064
C           22.84069272026763       20.13548283085437       25.99861332019549
C           23.52329808553499       20.20030001206398       27.17539970343411
C           24.44364886248386       21.30803558113999       27.05492467425054
C           26.23881775589830       22.72730373390097       27.96525061986285
C           27.23464363315970       23.02579586274180       28.96362458490535
C           27.91659811253727       24.12814607427489       28.51656137610814
C           27.31936151369463       24.47363994287338       27.23903651112894
C           27.11624965665515       25.93297095374874       25.26374970136791
C           27.46706854011455       27.14386633976555       24.56385534963730
C           26.62137653608091       27.22364919256456       23.48581573825182
C           25.79491183230815       26.03015019712204       23.53914059368789
C           24.15358867845891       24.48964759807351       22.54724304720582
C           23.34996016584871       24.05304261240574       21.42848975567069
C           22.81821463340621       22.84884232643649       21.78269968070090
C           23.30240260447657       22.56776748611128       23.11747992362471
C           22.93416900742363       21.46906213037033       23.87619842429305
H           22.24095435263651       20.77009620881710       23.42913304068636
C           25.34417889999422       21.67054899391845       28.04017011518447
H           25.36511483302118       21.06693729158800       28.93638949914817
C           27.73319189452452       25.51738205842456       26.43293386197319
H           28.59857476231643       26.07284531253946       26.75713326481456
C           24.86812861402962       25.67709053952694       22.57316666499939
H           24.72074399909117       26.36234861943778       21.74801329301496
C           23.35901315863002       19.33047238611823       28.37439248554085
H           22.70754684811592       18.49064662419200       28.14576686901036
H           22.92118921968374       19.89122768726260       29.20144175172562
H           24.31865974917948       18.93806200052255       28.70626441345712
C           21.75288125030103       19.17566467255049       25.64956630736746
H           22.16716815095294       18.20998240621934       25.35640930725234
H           21.14211137370494       19.54683131685738       24.83181277007405
H           21.10506318429994       19.01458571596815       26.51047786564421
C           27.44741609501388       22.28198273104924       30.23754148272754
H           28.00397875318389       21.35995024022929       30.05922375090927
H           26.49751648010207       22.01631494543098       30.69728038459426
H           28.01025424910966       22.88985049794785       30.94212065860647
C           28.98903661548814       24.82127363288596       29.19681423321556
H           29.67886035611267       24.18964163863657       29.74787642904339
C           29.15358079636448       26.14120886505036       29.23140309582262
H           28.45047858504912       26.81033727749800       28.75980144753405
H           29.97073493926240       26.60409419629022       29.75933005323201
C           28.54121122211291       28.09004129775058       24.97433590373186
H           29.35075512828262       27.56954919825585       25.48145238400056
H           28.14595816222179       28.84139817509175       25.66102739433020
H           28.94751284227011       28.60487103076024       24.10606418424542
C           26.55105476423444       28.24849318542236       22.47231298646926
H           26.24240710320651       27.92408311425248       21.48456192900655
C           26.81892409771825       29.53688711816058       22.67005901290695
H           27.07098957100935       29.92058663305684       23.64367558347218
H           26.75587773409683       30.26190213851649       21.87595937012052
C           23.20563444949147       24.77993580164019       20.13462643823764
H           24.18196227699537       25.06049450540240       19.74119379800785
H           22.61986197715104       25.69097125926383       20.25854384684420
H           22.71137659477728       24.15101866186662       19.39797439710736
C           21.93095884851278       21.97379913381834       20.96375145689581
H           22.52044840467526       21.26144968909966       20.38376849831976
H           21.34334652774423       22.57047103887916       20.26883515121328
H           21.24513370704682       21.41032786340196       21.59095048356482
C           29.95938032182467       20.78261877653693       24.14687897614385
H           30.76697355435166       21.37700045259555       23.72093746225187
H           29.94712940661449       19.81397135664617       23.64905806380301
H           30.16102617776687       20.63035062949036       25.20203964676342
N           28.13907746282914       21.81838520733200       22.76840976313919
H           28.56795976328401       21.62581219253023       21.87734581574197
C           28.65765482502775       21.47851177288223       23.99025297456627
C           26.96413351977094       22.45508776978273       22.98511399503697
H           26.34241888354925       22.83139788705333       22.19938142260768
N           26.70738486207892       22.53778649154068       24.26631168849158
C           27.74860537546527       21.92831039800985       24.90241318612926
H           27.77148006964553       21.85732081221514       25.96868875583297
C           22.41834038040932       27.34437679798269       28.38506805919441
H           21.96573786323908       27.00247981517768       29.31523304504922
H           21.72046506986020       28.02279626579332       27.89543572832901
H           23.32582020924222       27.89041348006431       28.62023588805157
N           21.79730716619025       25.32121219059281       27.04406751417073
H           20.81251962402501       25.36532353644325       27.25324422332984
C           22.74719729074208       26.19675070466978       27.50190915475026
C           22.42412850891269       24.40464896372413       26.26945233544275
H           21.91834892426047       23.59598374357498       25.78306072330024
N           23.70941840041471       24.64594560074930       26.21014269206582
C           23.92562541841001       25.75554025669155       26.97174294553008
H           24.91249269727499       26.15313812771644       27.08225663069092
87
 energy: -128.462206521653 gnorm: 0.009856413231 xtb: 6.7.1 (edcfbbe)
Fe          25.20405571533830       23.58734424743561       25.23469191535274
N           24.30097579223500       21.91411127925975       25.84322161093157
N           26.29827047562632       23.61491776229329       26.93513537631220
N           26.08688358922053       25.29089352321462       24.63981212715984
N           24.13581218409077       23.55757617087217       23.54517616909233
C           23.35276026467034       21.21003158530374       25.17267340490850
C           22.84121962112253       20.13698099900179       25.99563617499517
C           23.52351924981358       20.20086607160981       27.17184967179758
C           24.43749055964627       21.31252377828827       27.05434791345317
C           26.22781126727490       22.72841534826027       27.96199017656276
C           27.21993649153234       23.02924054192908       28.95854208056630
C           27.89154304069535       24.13906196260419       28.51506590369952
C           27.29500137745142       24.48057382532719       27.23992488116259
C           27.10685161973672       25.93318173540133       25.26795096794930
C           27.45747913664902       27.14218922576759       24.57168803380599
C           26.60819833821509       27.22485914929459       23.49747216253548
C           25.79022495164659       26.02673318554842       23.54236147496148
C           24.16458030338102       24.47983029779372       22.54880065507037
C           23.35110275145579       24.04941003135329       21.43656896218589
C           22.81812840757657       22.84732217184197       21.79215865886518
C           23.30814554263712       22.56589482014766       23.12296184086852
C           22.92840756715985       21.47389312137311       23.88216974924783
H           22.22590751883397       20.78259890507987       23.44010771739674
C           25.33887843370308       21.66907953407277       28.03825881890766
H           25.36720258118755       21.05914867778526       28.92932062848211
C           27.71584291424938       25.52447709055988       26.44111057197246
H           28.57265464534139       26.08637699929547       26.77795178585868
C           24.88209051999536       25.66304716169264       22.56469573052627
H           24.75287567816574       26.32987552540208       21.72318962222563
C           23.37210116867692       19.33314054759805       28.37435172866513
H           22.71879539593793       18.49102741615349       28.15670054834009