78
 energy: -116.058133635239 gnorm: 0.000036172498 xtb: 6.7.1 (edcfbbe)
Fe         -17.38787654490094        2.37459732582734       26.04220612460901
N          -18.17154379435682        2.45738810705975       27.89461597683556
N          -17.31606077850713        4.36512452269695       25.98141170445284
N          -16.66401805590590        2.27078794790894       24.18698260526077
N          -17.52887357541131        0.36572936856138       26.09593364891887
C          -18.54153107214409        1.41044091326297       28.68211039422152
C          -19.00877927638249        1.87765935803210       29.96732169417117
C          -18.90104675666807        3.23387480598871       29.94300010033921
C          -18.37727370637692        3.57727108602398       28.64051740532797
C          -17.66438117802218        5.22942656887879       26.97189197222954
C          -17.45548922059486        6.59522094071866       26.55979999639754
C          -16.96224807234300        6.54000080041335       25.28419268996094
C          -16.89123996016961        5.13042258577996       24.94526976118444
C          -16.31465126515199        3.31824595338207       23.39324990655873
C          -15.80041824179835        2.85634379498445       22.12823159557013
C          -15.83983800646003        1.48870487763327       22.17486496178028
C          -16.39347605874798        1.14977083739455       23.47282044048866
C          -17.12278339843002       -0.50358270007181       25.13144918290834
C          -17.34249860421869       -1.86919943549419       25.54932234876066
C          -17.89062798678225       -1.80588873733949       26.79344134123923
C          -17.99076308899892       -0.40238485496364       27.12148717625152
C          -18.47503921543602        0.07517056959675       28.32588800376310
H          -18.80676594413270       -0.65101865502383       29.05220801176874
C          -18.14577138348860        4.87111713729592       28.21894453038092
H          -18.35750416575071        5.66475181606415       28.91892147743791
C          -16.41387729652391        4.65396443318193       23.74018390993854
H          -16.08223983225285        5.38031710116514       23.01381204144878
C          -16.58702447698729       -0.14744864994264       23.90867429563035
H          -16.30024912749169       -0.94735811488599       23.24353607057385
C          -19.23996479114025        4.22665485424108       31.00135161494105
H          -19.60245436033247        3.72924646826831       31.89767130599041
H          -20.01407928946313        4.91039114852391       30.65195286178461
H          -18.36304586876249        4.81731738403044       31.26691596224689
C          -19.49692397584988        0.98783003208526       31.05910006216141
H          -18.71307668450705        0.29773783955217       31.37309652743997
H          -20.34964043165358        0.39799374314857       30.72173782449711
H          -19.80538466006575        1.57045752497185       31.92355325545586
C          -17.79804539750747        7.79721624879909       27.36896279467606
H          -17.01029485146503        8.01856073960295       28.09117201978612
H          -18.72492082064704        7.64016604524197       27.91859709796391
H          -17.92111215738513        8.66123654524779       26.71920269307453
C          -16.60178993152627        7.62145995977695       24.39438537126009
H          -16.78872823146548        7.44312919144549       23.34179479196465
C          -16.06778680537143        8.78063002556076       24.76566762027829
H          -15.81736216931721        8.99412365281253       25.79021245473957
H          -15.83757333037358        9.55057866615888       24.04796437058873
C          -15.39293265322121        3.73405976181366       20.99686694179204
H          -14.37963306621500        4.11279530651021       21.14165764584509
H          -16.06325824404023        4.58802660278413       20.91270391291151
H          -15.42121486037242        3.17632417872990       20.06306895147975
C          -15.45843789428122        0.52767519618998       21.16379779133003
H          -16.05152837719307       -0.37904529118098       21.13146546391766
C          -14.45662832202054        0.67140449212103       20.30220096424796
H          -13.80547430970242        1.52788299506736       20.31862620894184
H          -14.23680782099476       -0.08096456597324       19.56287215992600
C          -17.01400584310612       -3.06451709581146       24.72247951460718
H          -15.95222437833085       -3.07919204144446       24.47592217684288
H          -17.57677628817829       -3.05102429100790       23.78869945464631
H          -17.25542436407802       -3.98186230856883       25.25393794117939
C          -18.32208766768088       -2.91302237431620       27.69353897198434
H          -17.75781740832667       -2.89327473803656       28.62656626948297
H          -18.16529365825061       -3.87903271773751       27.22014925018346
H          -19.38050079325511       -2.81914452788081       27.93802541981449
O          -19.54854628096903        2.35784982320580       25.27312265970582
H          -20.01161325237574        2.50884720072589       26.10440947072500
H          -19.63683235899514        1.42098367230812       25.06647989112026
C          -11.97576816154966        3.12318748308337       27.14728604571823
H          -11.29798974609342        2.29354213330572       26.94646768161712
H          -11.70220796137784        3.56235893460629       28.10657114453462
H          -11.84789645983266        3.87227957689469       26.37228629092639
N          -13.84495064058283        1.72182778677570       28.04953958025676
H          -13.29538786619299        1.26363688922504       28.75777245377831
C          -13.38632997274248        2.65998692261704       27.16221947413054
C          -15.15887400734081        1.52729860061759       27.79734156627402
H          -15.77971802698436        0.84505497211844       28.34010779979830
N          -15.55965836764250        2.28449682516205       26.80528642913455
C          -14.46819499989145        2.99514033401293       26.39952056763647
H          -14.53391210688837        3.69524049052599       25.59238190828786
