87
 energy: -128.361457937095 gnorm: 0.242428108656 xtb: 6.7.1 (edcfbbe)
Fe           2.49300000000000       -4.64800000000000       35.31100000000000
N            0.73200000000000       -5.44000000000000       35.76500000000000
N            3.48000000000000       -6.13400000000000       36.38799999999999
N            4.31700000000000       -3.83700000000000       34.93900000000000
N            1.51000000000000       -3.09400000000000       34.30599999999999
C           -0.49700000000000       -4.97100000000000       35.30100000000000
C           -1.46800000000000       -6.02800000000000       35.46100000000000
C           -0.83400000000000       -7.09700000000000       36.03500000000000
C            0.55100000000000       -6.73900000000000       36.25000000000000
C            2.83900000000000       -7.25100000000000       36.92600000000000
C            3.84100000000000       -8.06600000000000       37.59599999999999
C            5.04400000000000       -7.45000000000000       37.42500000000000
C            4.83300000000000       -6.23300000000000       36.65400000000000
C            5.58400000000000       -4.33000000000000       35.33600000000000
C            6.62200000000000       -3.51900000000000       34.70000000000000
C            5.98300000000000       -2.62700000000000       33.91900000000000
C            4.55400000000000       -2.78900000000000       34.07300000000000
C            2.22400000000000       -2.07400000000000       33.65500000000000
C            1.28500000000000       -1.10300000000000       33.14900000000000
C           -0.09600000000000       -1.63600000000000       33.52300000000000
C            0.16100000000000       -2.88900000000000       34.24900000000000
C           -0.77700000000000       -3.73800000000000       34.76500000000000
H           -1.81800000000000       -3.41500000000000       34.75000000000000
C            1.49900000000000       -7.53400000000000       36.84199999999999
H            1.15900000000000       -8.47100000000000       37.28299999999999
C            5.82000000000000       -5.36500000000000       36.24500000000000
H            6.82600000000000       -5.49000000000000       36.64600000000000
C            3.60700000000000       -2.00900000000000       33.47900000000000
H            3.97100000000000       -1.24900000000000       32.78800000000000
C           -1.43800000000000       -8.46600000000000       36.43200000000000
H           -2.52000000000000       -8.48100000000000       36.18000000000000
H           -1.32100000000000       -8.62500000000000       37.52500000000000
H           -0.92600000000000       -9.27800000000000       35.87299999999999
C           -2.95200000000000       -5.84700000000000       34.99600000000000
H           -2.97000000000000       -5.46600000000000       33.95200000000000
H           -3.46500000000000       -5.11500000000000       35.65500000000000
H           -3.47800000000000       -6.82500000000000       35.03200000000000
C            3.56400000000000       -9.39800000000000       38.32200000000000
H            2.83000000000000       -9.99300000000000       37.73800000000000
H            3.14300000000000       -9.19600000000000       39.33000000000000
H            4.50700000000000       -9.97900000000000       38.41400000000000
C            6.44200000000000       -7.89100000000000       37.90699999999999
H            7.28300000000000       -7.93800000000000       37.19900000000000
C            6.67100000000000       -8.22700000000000       39.19299999999999
H            5.85700000000000       -8.19300000000000       39.93200000000000
H            7.67400000000000       -8.53900000000000       39.51800000000000
C            8.14700000000000       -3.73600000000000       34.84900000000000
H            8.33500000000000       -4.60500000000000       35.51500000000000
H            8.61300000000000       -2.83200000000000       35.29600000000000
H            8.59600000000000       -3.94200000000000       33.85400000000000
C            6.61900000000000       -1.59000000000000       33.01600000000000
H            6.03700000000000       -1.01500000000000       32.28200000000000
C            7.93900000000000       -1.38800000000000       33.13900000000000
H            8.51000000000000       -0.91500000000000       32.32600000000000
H            8.46800000000000       -1.69300000000000       34.05399999999999
C            1.54000000000000        0.19400000000000       32.36000000000000
H            1.71400000000000       -0.05100000000000       31.29000000000000
H            2.43900000000000        0.70800000000000       32.76300000000000
H            0.65500000000000        0.86100000000000       32.43800000000000
C           -1.45400000000000       -0.95000000000000       33.15500000000000
H           -1.39800000000000       -0.54800000000000       32.12100000000000
H           -1.65300000000000       -0.11200000000000       33.85700000000000
H           -2.27700000000000       -1.69400000000000       33.20900000000000
C            1.39600000000000       -0.81600000000000       39.39300000000000
H            2.22200000000000       -0.13400000000000       39.68900000000000
H            0.92300000000000       -1.22800000000000       40.31000000000000
H            0.64800000000000       -0.24200000000000       38.80500000000000
N            2.89900000000000       -2.80700000000000       39.02900000000000
H            3.31200000000000       -2.75700000000000       39.93800000000000
C            1.94600000000000       -1.93800000000000       38.55800000000000
C            3.17600000000000       -3.70600000000000       38.09599999999999
H            3.89800000000000       -4.51400000000000       38.21200000000000
N            2.43800000000000       -3.44700000000000       37.03600000000000
C            1.65400000000000       -2.35000000000000       37.29699999999999
H            0.96100000000000       -1.96400000000000       36.56000000000000
C            3.47200000000000       -7.72300000000000       30.73800000000000
H            3.39900000000000       -7.14700000000000       29.79100000000000
H            2.92500000000000       -8.68200000000000       30.61900000000000
H            4.54300000000000       -7.92100000000000       30.95700000000000
N            1.55500000000000       -6.53900000000000       31.83200000000000
H            0.90400000000000       -6.74600000000000       31.10200000000000
C            2.87300000000000       -6.93900000000000       31.84000000000000
C            1.29900000000000       -5.84900000000000       32.93100000000000
H            0.32800000000000       -5.42300000000000       33.18200000000000
N            2.41300000000000       -5.77700000000000       33.64700000000000
C            3.41200000000000       -6.45000000000000       32.98400000000000
H            4.41300000000000       -6.51700000000000       33.39000000000000
87
 energy: -128.424615534957 gnorm: 0.107695129786 xtb: 6.7.1 (edcfbbe)
Fe           2.49970928979853       -4.63870735391497       35.33375003409332
N            0.73351245868749       -5.44590077411963       35.74652786497321
N            3.47799322256980       -6.14706623633177       36.37321911679938
N            4.32827575815723       -3.85815837268767       34.91635407837614
N            1.53327108896371       -3.09767824387259       34.30336805450357
C           -0.49035578175340       -4.98052841509586       35.31095801990993
C           -1.48323636612538       -6.02373227077837       35.47516171371250
C           -0.85196087531787       -7.09416910436795       36.04291828653130
C            0.53752501118528       -6.72279515412756       36.23568398157834
C            2.85776280765646       -7.24337702952266       36.92803779164981
C            3.85096951217565       -8.07002161259577       37.59813234329038
C            5.06022658864087       -7.45300804587415       37.43230314757002
C            4.81654954269432       -6.24596321605016       36.65155833261237
C            5.57438179864926       -4.30996260026531       35.33729340174851
C            6.62050920180015       -3.51649967647170       34.70740703631269
C            5.98544350066970       -2.59488156801162       33.92338216625016
C            4.55279687528951       -2.80055568039214       34.07173974968640
C            2.19421715965205       -2.07913316149475       33.65006346277917
C            1.23726645695030       -1.12332597284359       33.15050046741326
C           -0.05701257521065       -1.61645534286040       33.51522930178156
C            0.19240472365158       -2.85787935686026       34.24208779117104
C           -0.75978707435000       -3.72980659486217       34.76327024792889
H           -1.80263906166222       -3.42418632709652       34.72383862483860
C            1.50138233764038       -7.52047439219689       36.83587315406832
H            1.16245954524858       -8.45625089241087       37.27294706825343
C            5.79684646237434       -5.35626315200712       36.23459289639747
H            6.80441695939058       -5.49822745947261       36.61949057858456
C            3.58490843339289       -2.01112175871643       33.48172304075040
H            3.94993764252138       -1.24158013335278       32.80747243153861
C           -1.43443068233810       -8.44442087256121       36.42410607736828
H           -2.50208805274670       -8.47911580102423       36.18415904483569
H           -1.31974709792567       -8.61870406771822       37.50085818178094
H           -0.93197570836496       -9.25691160411191       35.88414181839496
C           -2.92742381501675       -5.85632650790938       35.00694255075085
H           -2.95969529607514       -5.47769261217634       33.97690633629679
H           -3.45007221156926       -5.13484825418172       35.64656456113990
H           -3.46549046008493       -6.80897570582872       35.03699632058242
C            3.56780081862627       -9.37938573176392       38.30858586199128
H            2.84289846064345       -9.97885017038149       37.74519525572344
H            3.15252659580830       -9.19626792476093       39.30816194990469
H            4.49113944714194       -9.96030435230898       38.41369380773133
C            6.41329727771751       -7.88713076013695       37.91507434690502
H            7.23894488931800       -7.92139408673726       37.20093115866122
C            6.65730550070541       -8.22516820308266       39.17983297415490
H            5.87098219530372       -8.19405783418221       39.92523052628844
H            7.64826705828269       -8.53131001042495       39.50710766337048
C            8.11598450950711       -3.75217515400270       34.86150067428336
H            8.32352198632612       -4.60849152574443       35.50733765219502
H            8.60090137589822       -2.87751398644650       35.31269180520363
H            8.57693296977168       -3.93494701321518       33.88032176662738
C            6.62565153045345       -1.60243464227150       33.03348428243496
H            6.03832519369459       -1.07624822982011       32.28058851066042
C            7.93730631040938       -1.37053299349505       33.12559026716515
H            8.49227123772708       -0.86721366521153       32.34202373349727
H            8.48468893279716       -1.68218887687324       33.99811329969283
C            1.52545065634929        0.15664108855559       32.37956653859526
H            1.70773674602144       -0.05536335139625       31.31541163491208
H            2.41214073004915        0.68074541894806       32.76379377874471
H            0.67191115759057        0.84114332236175       32.44161917596901
C           -1.40488428034279       -0.96967200008692       33.16549211644015
H           -1.38592974594034       -0.56263654897854       32.14604430713246
H           -1.63688330950927       -0.13760577464237       33.84611749649498
H           -2.23696951940335       -1.68487320547048       33.21687779989912
C            1.40012204298827       -0.81690260492854       39.39309915634283
H            2.20788137911068       -0.13721030152253       39.69000475992381
H            0.92638009968168       -1.21390747544737       40.29885567600947
H            0.66070361717171       -0.25400158325417       38.81677115957672
N            2.89585552852395       -2.79479332632678       39.04370516215656
H            3.31343600826751       -2.74686956626127       39.95556217957611
C            1.94275257633512       -1.93341949860376       38.56684866806813
C            3.16884430579844       -3.69787512931830       38.09254047125599
H            3.88359216786956       -4.49666481851829       38.20442271079450
N            2.43543644380894       -3.45698193099678       37.03136893841972
C            1.66310615085705       -2.36096809271371       37.30243731157550
H            0.97654259094002       -1.97462078309494       36.57127787409470
C            3.47264359177302       -7.72520456298727       30.73180509650506
H            3.40507270475843       -7.16308852806271       29.79250564298034
H            2.94057455366808       -8.67613313234922       30.61075319849936
H            4.52559879304932       -7.92297461351011       30.94955257574551
N            1.56113739069669       -6.54885739534851       31.82154492623252
H            0.90374317137892       -6.75642691455149       31.09050876550098
C            2.87499070146539       -6.93934466202707       31.83479347722860
C            1.31654105486113       -5.84458569357361       32.93318436832630
H            0.35467039565451       -5.42667293272349       33.18020061485107
N            2.41635011515936       -5.75718658135746       33.65810426610158
C            3.39815038001848       -6.43968820359792       32.98979278173042
H            4.39270419199814       -6.51068013318989       33.39141275757236
87
 energy: -128.446057012823 gnorm: 0.037317353905 xtb: 6.7.1 (edcfbbe)
Fe           2.50405628396007       -4.63173641770620       35.34422952721735
N            0.73310428763555       -5.44266633647849       35.74398746636182
N            3.46837317450614       -6.15012796362097       36.36645813847452
N            4.33101229687907       -3.85970434105224       34.90836837558392
N            1.55519911657881       -3.09660344393586       34.31331872403561
C           -0.47898317759905       -4.98172346365149       35.31954799730070
C           -1.48894916109111       -6.01299006489115       35.48694234151442
C           -0.86012780866942       -7.08571818772568       36.05038459244965
C            0.53173414592715       -6.70421858039988       36.22577765938016
C            2.86508166876824       -7.23445418042142       36.92130990079510
C            3.84732998505910       -8.06417848439400       37.59915927088802
C            5.06129731117912       -7.44583604649281       37.43521135998117
C            4.79605971374386       -6.25220004235371       36.64203330108161
C            5.55532657000682       -4.29871686315307       35.32853048543774
C            6.60987550782183       -3.51366108444620       34.72230323485913
C            5.98435129873033       -2.57607629798167       33.92716920517231
C            4.54924016576273       -2.80762239359029       34.07197718169885
C            2.18114958746284       -2.08863306387478       33.65294073131795
C            1.20201607133584       -1.14313944632451       33.15466746160165
C           -0.01825887125049       -1.61021669958962       33.50947186033030
C            0.21880672025669       -2.84464194061987       34.24142559093708
C           -0.73842002638614       -3.72766209503087       34.75627558967718
H           -1.78167131140991       -3.43876986258560       34.68369772527026
C            1.50140678993329       -7.50671610255239       36.82344511276569
H            1.16234574930597       -8.43928165611720       37.25868716426647
C            5.76894768202358       -5.35548710745898       36.21155786912255
H            6.77729511631094       -5.51398459302820       36.58029695173534
C            3.56959291249535       -2.01189367475954       33.48678355235951
H            3.93235438934709       -1.22557637725234       32.83535272344686
C           -1.42958642123074       -8.41929306510581       36.41971147013360
H           -2.48981116862447       -8.46715654343112       36.18369197151530
H           -1.31458434379131       -8.60546526147545       37.48784955289652
H           -0.92696900664920       -9.22768125118859       35.88715781821994
C           -2.90390464784971       -5.86052814109647       35.02426396698576
H           -2.93831058027847       -5.48813685544453       33.99924531988887
H           -3.43879269216751       -5.14509680870892       35.65024352639354
H           -3.44200201510710       -6.80441253244153       35.05274158361795
C            3.56949785492291       -9.35758299064664       38.29665024887701
H            2.85141893853978       -9.95874631221356       37.74091512357185
H            3.15601883944704       -9.18481323487666       39.29185380818880
H            4.48583542647972       -9.93460135157058       38.40963480587082
C            6.37604890953819       -7.87052536734031       37.91451158873903
H            7.18756502929545       -7.89130202997418       37.19111778026448
C            6.63705783288783       -8.22080903373066       39.16735287477318
H            5.87346515062373       -8.19770959589805       39.92560756110225
H            7.62038406865124       -8.52860120552972       39.48995320222393
C            8.08008564128875       -3.76351206196815       34.87954095896247
H            8.28650582991924       -4.62743906923612       35.50178651306464
H            8.58066542472006       -2.91126576446269       35.34251926886506
H            8.54431338089410       -3.92809584146950       33.90273666065798
C            6.62819870501278       -1.62723921933053       33.04646318236895
H            6.02858025077403       -1.15169076626437       32.27505226981726
C            7.93320302841466       -1.34905086578726       33.10886850865150
H            8.45715968260326       -0.78759215733682       32.35178239489540
H            8.51846464096788       -1.67678681047296       33.94069413583263
C            1.50961520648232        0.11986953139395       32.39567395000700
H            1.69987964691978       -0.08357766646641       31.33794598463759
H            2.39097724672037        0.63267265985322       32.78508013281260
H            0.67262485784528        0.81427358184564       32.45163956038523
C           -1.35283318857854       -0.99003666267923       33.17850168866973
H           -1.35043767882462       -0.58249793088995       32.16566806593618
H           -1.59759493867165       -0.16442272505049       33.85354614533728
H           -2.17607512348677       -1.70313154341110       33.23549652362287
C            1.40179528276620       -0.81758811583269       39.38974963694031
H            2.19969032876599       -0.13907595406008       39.68820382384713
H            0.92752745928139       -1.20377974148413       40.29130563667831
H            0.66665305078102       -0.26139619064725       38.81917724919683
N            2.89588542642719       -2.78712146895673       39.05593411125997
H            3.31649747355413       -2.73940482292118       39.96891955774005
C            1.94117006479637       -1.93332634423732       38.57151368262408
C            3.16629530302463       -3.69424512077559       38.09375043630038
H            3.87843373479575       -4.48456182515560       38.20387950844540
N            2.43884166483694       -3.47041171830034       37.02840804932212
C            1.67173859623109       -2.37616427009879       37.30689273488342
H            0.98703159363793       -1.98655816384334       36.58254590142059
C            3.47853620229256       -7.73017775734337       30.72738014019205
H            3.41187219696726       -7.17658255638907       29.79172089816366
H            2.95308238449705       -8.67605033894008       30.60562413939877
H            4.52155591333571       -7.92830952378924       30.94403969441828
N            1.56809558879466       -6.55678019487885       31.81211939757477
H            0.90500781900944       -6.76570900113342       31.08371072581163
C            2.88097749223878       -6.94045443208259       31.83070366933872
C            1.33360136160426       -5.83746159055185       32.92786263112113
H            0.37778539898959       -5.42335512258552       33.17119925586614
N            2.42178306827505       -5.74033158206121       33.65680169259327
C            3.39226730122939       -6.42803223244031       32.98964551804870
H            4.38266531755567       -6.50390022759687       33.38910266596434
87
 energy: -128.453700815903 gnorm: 0.019979914985 xtb: 6.7.1 (edcfbbe)
Fe           2.50423025287127       -4.62553489063905       35.34574480915755
N            0.73592750192759       -5.43795089907863       35.74689390140657
N            3.45208077057632       -6.14847560914136       36.35094022367898
N            4.32275701189154       -3.85928255768639       34.89392817689917
N            1.57204857427524       -3.10068271989882       34.32347499932121
C           -0.47201055819852       -4.97703981196191       35.32792131880692
C           -1.48612567889223       -6.00002178210053       35.50227545081823
C           -0.86010500794880       -7.07261614016183       36.06214744320864
C            0.53064649311087       -6.69474631257219       36.22820708929352
C            2.85286408320099       -7.22792169705677       36.91294017579611
C            3.83049422972924       -8.05114307982496       37.59519593881555
C            5.04104328209866       -7.43067763466714       37.43101451842262
C            4.77642183983824       -6.24873188914262       36.62743100561395
C            5.53855263723164       -4.29648527758703       35.32449863848135
C            6.59818460546903       -3.51494148419798       34.73662414286500
C            5.98618414423594       -2.57752278441850       33.93083624332813
C            4.55141953947108       -2.80621854105286       34.06867560338291
C            2.19730034410118       -2.09772214782288       33.65868914783921
C            1.21855972892422       -1.15609448076885       33.15149322927938
C           -0.00766493138394       -1.62591507265509       33.52257738173149
C            0.23464940308955       -2.85596857637657       34.25293926513363
C           -0.72523306927549       -3.73180694352494       34.75339569133514
H           -1.76836866080756       -3.45455412312076       34.63876205362286
C            1.49336925040077       -7.50179942203295       36.81898970321763
H            1.15428124371290       -8.43455670457363       37.24889599632910
C            5.74837690184283       -5.35983793876135       36.19466677118584
H            6.75933652853688       -5.53913350483497       36.54161975573511
C            3.57584378115072       -2.00496103834210       33.49045853071237
H            3.93132189200121       -1.19746179974019       32.86191471370503
C           -1.42649386058297       -8.40440935611007       36.42253066453777
H           -2.48617506720093       -8.45385687188206       36.18363439504375
H           -1.31008106044450       -8.59461184032360       37.48961316321358
H           -0.91631307414559       -9.20429463599160       35.88461953857737
C           -2.89701582478377       -5.85794852093342       35.04047171846256
H           -2.92656567531550       -5.49341788068616       34.01278965097790
H           -3.43813203291705       -5.14391875585890       35.66257645065074
H           -3.42391020968063       -6.80814373899705       35.07564631847517
C            3.56217441762133       -9.34143764334463       38.29129067362247
H            2.85016801763987       -9.94591680537353       37.73165253513957
H            3.14667732887409       -9.16948307194313       39.28552525653095
H            4.48549199585434       -9.90721330451645       38.40595329005175
C            6.34885641349173       -7.85004443314098       37.90906579884226
H            7.15375760189564       -7.84956645651969       37.17943214186911
C            6.61548859677726       -8.21985697956107       39.15631318227025
H            5.85961374033310       -8.20499067594861       39.92380478088607
H            7.60003304743020       -8.52944290644759       39.46826491565577
C            8.05667680474596       -3.78382860058007       34.90508621241734
H            8.24094926176631       -4.67206556333925       35.50312725965676
H            8.56042623915945       -2.94936231698978       35.39767061218301
H            8.52098267925975       -3.92513048744624       33.92490214254069
C            6.62656501350258       -1.64315159748838       33.03965644255946
H            6.00765940933000       -1.21244094157452       32.25477368428842
C            7.92429159530505       -1.31680977950743       33.07883673485265
H            8.39848685484499       -0.67684221841260       32.33820286384006
H            8.55862932734338       -1.65324110395973       33.87835015012492
C            1.51507610726477        0.10001825161045       32.39764485208856
H            1.70441309741804       -0.11173933045341       31.34361172274332
H            2.39361024012439        0.60000268700743       32.80264122690745
H            0.67416862495361        0.78805859457771       32.45897794793533
C           -1.33201981328220       -1.01041513031212       33.19568844052667
H           -1.32130896285726       -0.60601981342815       32.18306668143898
H           -1.56410839368275       -0.18823248072003       33.87598978577275
H           -2.14010800942153       -1.73590072661711       33.25984868838975
C            1.40059860302316       -0.81695561376614       39.38675536272387
H            2.19681605346818       -0.13530960211490       39.68412283218191
H            0.92355660258258       -1.19607476224871       40.29039218441105
H            0.66568601554633       -0.26474501098493       38.81137116595209
N            2.89998837705254       -2.78499631123993       39.06664465098851
H            3.32114729526148       -2.73240445116443       39.97943610653186
C            1.94215987943890       -1.93727227367581       38.57640961999561
C            3.17251687067395       -3.69478498449821       38.10592348463646
H            3.88908581500183       -4.48016915797633       38.21655992804374
N            2.44513555300723       -3.48096081246931       37.03843128803530
C            1.67548025146724       -2.38843962401012       37.31464639785148
H            0.98942477232148       -1.99971746018203       36.59196223905673
C            3.48995583289531       -7.73704552848764       30.72663991388521
H            3.42458003753781       -7.18974463523450       29.78652408059806
H            2.96529929371242       -8.68389155166367       30.60574078926043
H            4.53300715829978       -7.93703217469426       30.94265999752868
N            1.57878934429125       -6.55797524576964       31.80373495229546
H            0.91422529668222       -6.77394392349121       31.07859832554634
C            2.89255572517246       -6.94042911252327       31.82721755972773
C            1.34580065270091       -5.82642674904536       32.91346446127053
H            0.39078171856832       -5.40974203354292       33.15228255463885
N            2.43076411764074       -5.72337290157502       33.64415616050783
C            3.40030888505118       -6.41672437811191       32.98346633144413
H            4.38898528480186       -6.49338240257516       33.38544777069242
87
 energy: -128.457798170732 gnorm: 0.016075510737 xtb: 6.7.1 (edcfbbe)
Fe           2.50756785345196       -4.62190558265876       35.34387983013100
N            0.74023013770460       -5.43414117699883       35.74549997760763
N            3.42925085410131       -6.14127133820439       36.33643920346086
N            4.31178820738343       -3.85249822207837       34.88410053064587
N            1.59670526946359       -3.11041890633774       34.34407885780394
C           -0.46601014449352       -4.97218002973257       35.33249917686368
C           -1.48513219064477       -5.98483194387920       35.51847777429950
C           -0.86210653651602       -7.05747724426839       36.07616441035613
C            0.52783680594432       -6.68585157167709       36.23220298470475
C            2.83467294533417       -7.21942407342973       36.90510218631006
C            3.80829500861243       -8.03373726477864       37.59294249566582
C            5.01591498790618       -7.41224793403762       37.42511691255348
C            4.75242919499834       -6.24225022437148       36.61121210890924
C            5.52150194810450       -4.29618567204859       35.31736627903323
C            6.58689631349835       -3.52284181579913       34.73911303095311
C            5.98882673842124       -2.58844532633123       33.92248406234095
C            4.55513979421597       -2.80461486887088       34.06117236014857
C            2.21662309003722       -2.10817666801369       33.67387404871579
C            1.23744074082255       -1.17250057163807       33.16279242447504
C            0.01366402307990       -1.64978947386517       33.53204467518427
C            0.25908829040073       -2.87194790753704       34.26561522457659
C           -0.71025136407452       -3.73819467763241       34.74327476484680
H           -1.74884656028642       -3.46733843578367       34.58978606639910
C            1.48071988157165       -7.49962861763598       36.81630043228249
H            1.14157873069967       -8.43338050264168       37.24062314636286
C            5.72704773715457       -5.36747282247703       36.17323260060313
H            6.73813875558291       -5.56731611310463       36.50131622557696
C            3.58491692967862       -1.99285657664583       33.49666369109040
H            3.92879849178311       -1.16713438226956       32.88749835556121
C           -1.42423442230412       -8.39019662997712       36.43146045006691
H           -2.48311629656864       -8.44210345155568       36.18902263164221