78
 energy: -115.971743556327 gnorm: 0.257978663006 xtb: 6.7.1 (edcfbbe)
Fe         -24.15900000000000        0.70600000000000       -1.72900000000000
N          -22.72000000000000        1.12200000000000       -3.14100000000000
N          -22.70400000000000       -0.18100000000000       -0.59600000000000
N          -25.33300000000000        0.89400000000000       -0.05400000000000
N          -25.31500000000000        2.19900000000000       -2.60900000000000
C          -22.88800000000000        1.82500000000000       -4.30600000000000
C          -21.67200000000000        1.76200000000000       -5.08400000000000
C          -20.80100000000000        1.00400000000000       -4.39700000000000
C          -21.44700000000000        0.57800000000000       -3.17900000000000
C          -21.45300000000000       -0.56800000000000       -1.00900000000000
C          -20.86100000000000       -1.40700000000000        0.00200000000000
C          -21.74100000000000       -1.50300000000000        1.01300000000000
C          -22.90500000000000       -0.73000000000000        0.65000000000000
C          -25.09900000000000        0.24200000000000        1.14100000000000
C          -26.18000000000000        0.55900000000000        2.04600000000000
C          -27.02800000000000        1.38100000000000        1.40100000000000
C          -26.50700000000000        1.57400000000000        0.07400000000000
C          -26.59800000000000        2.49900000000000       -2.17800000000000
C          -27.34000000000000        3.07200000000000       -3.26700000000000
C          -26.40800000000000        3.16400000000000       -4.41900000000000
C          -25.17300000000000        2.60500000000000       -3.93900000000000
C          -24.02300000000000        2.49300000000000       -4.67100000000000
H          -24.01100000000000        2.98600000000000       -5.64300000000000
C          -20.88800000000000       -0.22600000000000       -2.21000000000000
H          -19.89800000000000       -0.63000000000000       -2.41900000000000
C          -24.02300000000000       -0.56500000000000        1.42500000000000
H          -24.06300000000000       -1.12800000000000        2.35700000000000
C          -27.10700000000000        2.29400000000000       -0.92700000000000
H          -28.07500000000000        2.74200000000000       -0.70500000000000
C          -19.37200000000000        0.61700000000000       -4.79500000000000
H          -19.06200000000000        1.20700000000000       -5.68400000000000
H          -19.33300000000000       -0.46400000000000       -5.04800000000000
H          -18.67600000000000        0.83600000000000       -3.95700000000000
C          -21.45300000000000        2.46700000000000       -6.43500000000000
H          -21.21099999999999        3.53700000000000       -6.26000000000000
H          -22.37800000000000        2.40300000000000       -7.04600000000000
H          -20.60700000000000        1.99000000000000       -6.97500000000000
C          -19.44900000000000       -2.00200000000000       -0.15000000000000
H          -18.77400000000000       -1.24500000000000       -0.60300000000000
H          -19.48699999999999       -2.89300000000000       -0.81200000000000
H          -19.05200000000000       -2.28700000000000        0.84800000000000
C          -21.64300000000000       -2.28400000000000        2.32400000000000
H          -22.17200000000000       -1.92700000000000        3.22000000000000
C          -20.91800000000000       -3.41600000000000        2.42400000000000
H          -20.37300000000000       -3.80900000000000        1.55300000000000
H          -20.86200000000000       -3.96100000000000        3.37800000000000
C          -26.25900000000000        0.04200000000000        3.49200000000000
H          -25.23200000000000       -0.10200000000000        3.89100000000000
H          -26.79400000000000       -0.93100000000000        3.51400000000000
H          -26.79100000000000        0.78200000000000        4.12700000000000
C          -28.33700000000000        2.03300000000000        1.84800000000000
H          -28.64900000000000        2.99000000000000        1.40400000000000
C          -29.13300000000000        1.48900000000000        2.76600000000000
H          -28.86600000000000        0.53300000000000        3.24000000000000
H          -30.06700000000000        1.98900000000000        3.06200000000000
C          -28.80000000000000        3.48300000000000       -3.27000000000000
H          -28.93400000000000        4.38000000000000       -2.62800000000000
H          -29.42400000000000        2.65600000000000       -2.86900000000000
H          -29.11800000000000        3.73000000000000       -4.30500000000000
C          -26.73700000000000        3.64400000000000       -5.81500000000000
H          -27.55300000000000        4.39600000000000       -5.76600000000000
H          -27.07400000000000        2.78700000000000       -6.43700000000000
H          -25.84000000000000        4.11500000000000       -6.27100000000000
O          -23.19600000000000        2.78400000000000       -0.61500000000000
H          -23.79500000000000        3.00200000000000        0.09900000000000
H          -22.45600000000000        3.22600000000000       -0.83500000000000
C          -27.47100000000000       -3.29100000000000       -4.12300000000000
H          -27.60700000000000       -4.24600000000000       -3.57200000000000
H          -27.28100000000000       -3.51700000000000       -5.19400000000000
H          -28.39399999999999       -2.68100000000000       -4.02100000000000
N          -25.02200000000000       -3.04600000000000       -3.51900000000000
H          -24.75400000000000       -3.94500000000000       -3.86500000000000
C          -26.30600000000000       -2.54500000000000       -3.54900000000000
C          -24.22000000000000       -2.15100000000000       -2.96400000000000
H          -23.14800000000000       -2.28600000000000       -2.82800000000000
N          -24.93600000000000       -1.09900000000000       -2.61700000000000
C          -26.24100000000000       -1.31800000000000       -2.97900000000000
H          -27.00700000000000       -0.57500000000000       -2.79600000000000
78
 energy: -116.028077457059 gnorm: 0.103627573672 xtb: 6.7.1 (edcfbbe)
Fe         -24.09852102631331        0.80264550491477       -1.68196633375591
N          -22.72264245984297        1.09251764647239       -3.15954574480206
N          -22.71248695081100       -0.21102536858962       -0.59576201777027
N          -25.34431875808391        0.86960506271399       -0.05893576281043
N          -25.33716772234564        2.15548396571306       -2.63262419888250
C          -22.88260307471066        1.82182270918101       -4.30403053401270
C          -21.66855058985918        1.76642666014840       -5.09441123464473
C          -20.78938134711490        0.99907653853238       -4.40395210609098
C          -21.45229607808423        0.57532091968439       -3.18950269576010
C          -21.46465007035087       -0.58602758298255       -1.00520678169209
C          -20.84784736557437       -1.41576940779924        0.00544825810548
C          -21.73908986709706       -1.52101236554518        1.03165974645444
C          -22.90439182036001       -0.74564829660006        0.64688360294952
C          -25.11843673794641        0.23916194211438        1.13776946826037
C          -26.19041379329678        0.55661140726052        2.05848487490799
C          -27.04846841741635        1.39023815732757        1.40402225529842
C          -26.50571648214435        1.57162758592729        0.07195861995444
C          -26.59899838130761        2.49173173626688       -2.21715266317735
C          -27.32909394535012        3.08431207378533       -3.30309305693178
C          -26.43756457592786        3.16172057313606       -4.39338669370026
C          -25.20205790426921        2.59277507454938       -3.93039673836433
C          -24.03248532297874        2.49312369351417       -4.66838750697934
H          -24.01968571150290        2.98237506993167       -5.63724430922753
C          -20.89030122160980       -0.22881795222873       -2.21334501293013
H          -19.89959976949466       -0.62045823405739       -2.41821583710870
C          -24.03077383471179       -0.56815798611397        1.42642110992432
H          -24.06091861617450       -1.11352188614443        2.36235252566913
C          -27.10644258031120        2.29517339089797       -0.94124274840762
H          -28.07157503637637        2.73718095542423       -0.71875806145174
C          -19.38129384893036        0.62093166896115       -4.79177062597762
H          -19.06360452302917        1.19589782687736       -5.66716230704564
H          -19.33022760935539       -0.44615438571390       -5.03942907847919
H          -18.68705258107026        0.82894694754603       -3.97056399099837
C          -21.45689198928157        2.46164752795585       -6.42053058820529
H          -21.21715022292614        3.52016613779709       -6.26120924737054
H          -22.36017603550924        2.40141942139213       -7.03599910927822
H          -20.62767221030383        1.99902615276067       -6.96566041282066
C          -19.45902314262331       -1.99365919253913       -0.14446107368801
H          -18.78632459444018       -1.25588182299944       -0.59499328090055
H          -19.48522766403795       -2.87670980498935       -0.79577734028322
H          -19.05639247892757       -2.27973591523742        0.83154729040657
C          -21.62815285468175       -2.28304658154833        2.30305117571977
H          -22.16594430771784       -1.91841271909974        3.17866570830859
C          -20.91956884770603       -3.40555093882498        2.41881952705939
H          -20.38753364090255       -3.81798407136051        1.57107275303964
H          -20.86414871431145       -3.94739571139133        3.35845319551555
C          -26.25681071256162        0.04985562511338        3.48062988289276
H          -25.24931034695505       -0.09798525717816        3.88408038542171
H          -26.78471417949020       -0.91131171217507        3.51510164116888
H          -26.78343329443148        0.76957491400765        4.11540812617148
C          -28.31742435678154        2.01991276899245        1.85588070998616
H          -28.61521785027825        2.96407417845454        1.39890854137483
C          -29.12317721934245        1.48684590325479        2.76765907293780
H          -28.88478972737908        0.54106541826683        3.23652244092038
H          -30.04846627355779        1.97602958128935        3.05826743724667
C          -28.77797583146787        3.48501373118545       -3.27581382370802
H          -28.93040710599529        4.36649570110754       -2.63835610497176
H          -29.40480022079852        2.67402543840210       -2.88096078788774
H          -29.11774352940872        3.72695350135003       -4.28692426978654
C          -26.73883823928728        3.64179041472668       -5.78583051194385
H          -27.54135228704684        4.38693307441449       -5.76833578029566
H          -27.06458142275620        2.80576333274355       -6.42134621458259
H          -25.85894106292179        4.10121437547155       -6.25374984815465
O          -23.21682169660333        2.75187813831054       -0.61859246910444
H          -23.79184339652796        3.00793061309131        0.09910514103493
H          -22.44254313698859        3.23695443675919       -0.83896229647771
C          -27.46224919721816       -3.29066011889785       -4.11843885357896
H          -27.60938155024541       -4.23650427387142       -3.58315770130852
H          -27.29004693796068       -3.51567800108105       -5.17791415607299
H          -28.37300416862652       -2.69251390452677       -4.02470212237366
N          -25.03033005347150       -3.04197606976637       -3.52088895257900
H          -24.75878390697339       -3.94673863911826       -3.86827556224886
C          -26.30648963032234       -2.53997024935209       -3.54592257620339
C          -24.22740240630972       -2.12631152510937       -2.95353669769242
H          -23.16706994599217       -2.26708567018300       -2.82016566581764
N          -24.91888354962643       -1.05679172887336       -2.60574792848459
C          -26.22044849457339       -1.30569470140618       -2.96965395267964
H          -26.98785354097905       -0.57508542242330       -2.79218012122868
78
 energy: -116.042882716255 gnorm: 0.031557250441 xtb: 6.7.1 (edcfbbe)
Fe         -24.05805878384730        0.87841880131170       -1.64899970864456
N          -22.72362919795435        1.08933590906649       -3.15361238329996
N          -22.72601874903073       -0.22369179819118       -0.59979592994228
N          -25.33599830219261        0.86701057683455       -0.06102130971901
N          -25.35157857630594        2.11006522427636       -2.64870783489123
C          -22.88598233667591        1.81282908119403       -4.29578618450060
C          -21.67333209475213        1.76767390630322       -5.09362625063933
C          -20.78899664150087        0.99371006133632       -4.40378525484936
C          -21.46577650993181        0.57141879530456       -3.19324447395906
C          -21.48384910323846       -0.59881755308977       -1.00890427404085
C          -20.84907180225597       -1.42305784016725       -0.00325995968991
C          -21.74603185306895       -1.53646304776801        1.03147229255557
C          -22.91135566153324       -0.75717786385651        0.63546211315861
C          -25.12928799153202        0.23648387784845        1.12854136649241
C          -26.19476265743119        0.54899096223520        2.05728851186782
C          -27.05779348697413        1.38955326909257        1.39594406859673
C          -26.49849060763134        1.56492197572751        0.06265046321503
C          -26.59966880090426        2.46394079300700       -2.24472963252870
C          -27.31793520706345        3.08817525068768       -3.32981252706759
C          -26.45920854967562        3.15422131067696       -4.37391238321356
C          -25.22211127109930        2.55862710948608       -3.92594386296852
C          -24.04654100733720        2.47469839178384       -4.66716997977079
H          -24.03187136314515        2.97173816638172       -5.62803192757256
C          -20.90016851902700       -0.23422800885653       -2.21727450698546
H          -19.90437517987057       -0.60822706435922       -2.41426843150504
C          -24.03734380836136       -0.57165222780407        1.42240732987450
H          -24.05459017205767       -1.09282883215552        2.36920272078540
C          -27.10538559030269        2.27968982192266       -0.95919588630576
H          -28.06584682590304        2.72470036666125       -0.73913883840207
C          -19.39436214464184        0.62284915502486       -4.78551510744280
H          -19.07031752884421        1.18942627573916       -5.65387733247240
H          -19.33159495929982       -0.43787365721983       -5.02843575449984
H          -18.70055560769172        0.82473631905905       -3.97244817816347
C          -21.46471106473583        2.45508357594230       -6.40263185985809
H          -21.22792000923062        3.50904002696848       -6.25346617804648
H          -22.35582885014971        2.39585338170500       -7.02236367251502
H          -20.64275429751237        2.00126320387114       -6.95063149474824
C          -19.47315530614933       -1.98371251202388       -0.13917591614057
H          -18.80215098580471       -1.25555307835163       -0.58984685292423
H          -19.48530068852342       -2.86614791657235       -0.78130461215475
H          -19.06806755152625       -2.26736273584903        0.82734120585436
C          -21.62291173213961       -2.27915360022441        2.26993608756362
H          -22.16359302832595       -1.89698193691744        3.12905822973565
C          -20.92274288554306       -3.40007606892390        2.40935073315011
H          -20.39777858747092       -3.83988109634154        1.58169151215516
H          -20.86414841771515       -3.92786362896195        3.34671752691883
C          -26.25707813365561        0.05813222725356        3.46483802536707
H          -25.25920513428195       -0.08877869988136        3.87070838629084
H          -26.78016306639913       -0.89790301695135        3.51267292867211
H          -26.78318371479458        0.76793530420182        4.09828986491675
C          -28.29244592985058        1.99714665875326        1.85153034095603
H          -28.57025342920928        2.93729447637711        1.38782937611155
C          -29.10971626517092        1.47992848967434        2.76483856202863
H          -28.90224364565094        0.53794658185687        3.23619477332719
H          -30.02280863373204        1.97257447334457        3.05591640861236
C          -28.75704357780113        3.48941934409811       -3.28145404134570
H          -28.91049334763158        4.35961589014214       -2.64161495807546
H          -29.37501968062312        2.68126766008038       -2.88825940260598
H          -29.11469028836059        3.73138562568124       -4.27824248751365
C          -26.73871665290315        3.64226223241232       -5.76077240638926
H          -27.53393283678659        4.38403450393599       -5.75826519081674
H          -27.05522261559305        2.81395093767249       -6.39959700467420
H          -25.86058976877773        4.09148564760113       -6.22113987384626
O          -23.22289735560955        2.70716815319820       -0.62263433192001
H          -23.77732024333958        3.02786147718980        0.09187543895966
H          -22.45562891649248        3.23606818460248       -0.84530480545544
C          -27.45288437116039       -3.28121321536576       -4.10962991807408
H          -27.60143854685234       -4.22325071987618       -3.58315539469454
H          -27.28601683116658       -3.50689435220001       -5.16228742277100
H          -28.35909832285742       -2.69204074470106       -4.02307445046438
N          -25.03091720545157       -3.02782643051806       -3.51701565223570
H          -24.75488156195876       -3.93422321440946       -3.86350627427414
C          -26.30473049099901       -2.52526863377296       -3.53917793882142
C          -24.23109184378140       -2.09857840946840       -2.94511517976251
H          -23.17831459756959       -2.24019513291899       -2.80924532707800
N          -24.91094395474462       -1.02939613249072       -2.59740026924332
C          -26.20573777667364       -1.28747503003178       -2.96324608562088
H          -26.97633696421235       -0.56613925730385       -2.78770135202115
78
 energy: -116.046473269085 gnorm: 0.019782145510 xtb: 6.7.1 (edcfbbe)
Fe         -24.05161996638878        0.89407216425751       -1.64233796039343
N          -22.73021639150754        1.08487963981340       -3.14874157221727
N          -22.73646869887168       -0.22922593676105       -0.60978638715988
N          -25.33040102012900        0.85890188011379       -0.06828082041823
N          -25.36216217416056        2.07099789418987       -2.65930283410305
C          -22.89269114785627        1.80270461991190       -4.29228782774820
C          -21.68200669042908        1.76051613508948       -5.08954795568898
C          -20.79656007069475        0.98764632143238       -4.40122574407575
C          -21.47357773542409        0.56909584060887       -3.19150406620734
C          -21.49600460862444       -0.60615836864162       -1.01969274154793
C          -20.86094269539405       -1.43408003637134       -0.02211268375433
C          -21.75734967342601       -1.55162189990909        1.01126128878719
C          -22.91908508457387       -0.76592083265495        0.62258236386110
C          -25.12658469722414        0.22980727148361        1.12048851857926
C          -26.19331997897966        0.53232870244170        2.04531520524339
C          -27.05741354878726        1.36898713895191        1.38168386036648
C          -26.49605096602330        1.54813818217275        0.05163159068029
C          -26.60612749404553        2.43167794591117       -2.25159920500694
C          -27.32215729270361        3.07514085986928       -3.33096124165912
C          -26.45966450341420        3.13804436004150       -4.37937920769899
C          -25.22702385632205        2.52567623704583       -3.93233820876303
C          -24.05500329232640        2.45383553645157       -4.67171828628391
H          -24.04396659015875        2.95046072333611       -5.63151904664303
C          -20.90532738219579       -0.23671123989762       -2.22067637298435
H          -19.90641136129644       -0.60192530812451       -2.41340023660494
C          -24.03571124546619       -0.57499970851595        1.41869738617262
H          -24.04430249811954       -1.07833894003398        2.37541586206361
C          -27.11024201615295        2.25441444840750       -0.96987359214802
H          -28.07225502425579        2.69692148171885       -0.75538050297035
C          -19.40159442978982        0.61949053517464       -4.77677409622022
H          -19.07584448664412        1.18500737240483       -5.64559960068177
H          -19.33387068833752       -0.44249530418241       -5.01508187166473
H          -18.71131351108694        0.82490065417646       -3.96079881013661
C          -21.47638599032260        2.45153439783005       -6.39401457593943
H          -21.24539795420656        3.50672076513954       -6.24137269697211
H          -22.36698085924338        2.38836480039176       -7.01473159879521
H          -20.65125630889321        2.00149859545217       -6.94071430833064
C          -19.47977231714686       -1.97853805441862       -0.14074677457740
H          -18.81321712030822       -1.24542170725099       -0.59096040005329
H          -19.47514568734667       -2.86831047991246       -0.77384947865321
H          -19.08352880823045       -2.24845218893279        0.83407821560978
C          -21.62597616005105       -2.28204335411380        2.24919858493174
H          -22.16469350037909       -1.88143752928761        3.10035795228896
C          -20.92639956570918       -3.40254052864540        2.40684085962724
H          -20.41647153306327       -3.87333850923556        1.58374046068437
H          -20.86371542955447       -3.90871088808739        3.35518377513054
C          -26.25658495883535        0.05837319108913        3.45543062926804
H          -25.25816781529736       -0.07885203913699        3.86416522185732
H          -26.77777566220094       -0.89853863162358        3.51475099645579
H          -26.78834991068859        0.77503669524089        4.07732346470926
C          -28.28038505084019        1.98018393141272        1.84410582981113
H          -28.54395642312945        2.92164466427648        1.37570157637256
C          -29.10022528251115        1.47685952032593        2.76381966799187
H          -28.91813370469378        0.52422283938091        3.22873165263457
H          -30.00318391159350        1.98458479575700        3.05792825979888
C          -28.75239430641266        3.49528796867142       -3.27484798673843
H          -28.88829443130211        4.36324539545398       -2.62949365028059
H          -29.36724178804504        2.68616481500902       -2.88248634062996
H          -29.11417879203502        3.74503270208969       -4.26876294886425
C          -26.72954124810223        3.64555223528351       -5.75698444271782
H          -27.52319460456812        4.38851434600515       -5.74759603924001
H          -27.04346952994444        2.82139050582638       -6.40087368432994
H          -25.84388671153817        4.09557440268141       -6.19819183737286
O          -23.19052362720660        2.67876926948328       -0.59315466267270
H          -23.76586887651789        3.07602999411832        0.07686176838529
H          -22.46908047445625        3.26033772091750       -0.86557004781989
C          -27.44224201952081       -3.26338270519371       -4.09879038916295
H          -27.58647775027653       -4.20580156650068       -3.57132795340504
H          -27.27296210701963       -3.49028763459993       -5.15107182283619
H          -28.35128927149976       -2.67791212385254       -4.01471778634023
N          -25.02333774510246       -3.00297870975107       -3.50759423944829
H          -24.74454092242972       -3.90846404696591       -3.85262661602407
C          -26.29886132595287       -2.50180841981895       -3.52956584681974
C          -24.22706027038005       -2.07003432435521       -2.93614885363052
H          -23.17484719602245       -2.20651515673036       -2.79450486285964
N          -24.90998478263790       -1.00671049315446       -2.59356200366949
C          -26.20172347131647       -1.26324582482101       -2.95633538299328
H          -26.97402397265763       -0.54376700535968       -2.78077688735372
78
 energy: -116.048138142956 gnorm: 0.046822259648 xtb: 6.7.1 (edcfbbe)
Fe         -24.05512404636078        0.89217318914896       -1.64365168306223
N          -22.74019231476518        1.08201206380903       -3.13913261953463
N          -22.75249786891570       -0.23648783204550       -0.62659715844042
N          -25.32122794941403        0.84716162792889       -0.08152049312487
N          -25.36198545611411        2.03320073913558       -2.66058922695463
C          -22.90214745325505        1.79073818884777       -4.28725562043114
C          -21.69492575277544        1.75014321136724       -5.08436928744345
C          -20.80795214409424        0.98110866021223       -4.39696408920797
C          -21.48320361700565        0.56767728096699       -3.18746683757546
C          -21.51171588015038       -0.61457035039502       -1.03517280211188
C          -20.87887006247884       -1.44971531257713       -0.04833375986263
C          -21.77374868720516       -1.57217556711925        0.98254949528066
C          -22.93043490332368       -0.77871020889608        0.60355900813747
C          -25.12005836088429        0.21993307172025        1.10833405489667
C          -26.18988440272763        0.50936363517400        2.02695173396332
C          -27.05708100771811        1.33735189796012        1.35988232284977
C          -26.49315346396969        1.52264182607290        0.03544945619826
C          -26.60771460878275        2.39323589975066       -2.25596074230069
C          -27.32135103148002        3.05168983127048       -3.32979731314603
C          -26.45587981872283        3.11522096390886       -4.38093975410166
C          -25.22854756534411        2.48770373894428       -3.93436224661622
C          -24.06650473345464        2.42644388471426       -4.67776444840625
H          -24.06487770875688        2.91538065954849       -5.64031695828248
C          -20.91100031175308       -0.23969249438076       -2.22519507041648
H          -19.90998013263443       -0.59764806233960       -2.41390062993612
C          -24.03237101553396       -0.58109715048475        1.41273194040493
H          -24.03296067563497       -1.06559843309222        2.37848077663206
C          -27.11770587750205        2.21765351335952       -0.98434216242789
H          -28.08580106700993        2.65048239355686       -0.77976379818226
C          -19.41077766372554        0.61413077634418       -4.76405657500035
H          -19.08222768116580        1.17613037888199       -5.63520694952541
H          -19.33777444250408       -0.45027623851742       -4.99433850259963
H          -18.72597640964382        0.82738983698622       -3.94372198553113
C          -21.49435245385807        2.44598170949068       -6.38661557945958
H          -21.27486637121197        3.50373344211885       -6.22805993084215
H          -22.38435651045721        2.37558266634936       -7.00898760666968
H          -20.66241210991053        2.00493047695742       -6.93184863889573
C          -19.48947462976589       -1.97669116660308       -0.14426176226826
H          -18.82808773522925       -1.23655044839831       -0.59286499984643
H          -19.45743018913726       -2.87692504558096       -0.76372022334549
H          -19.10860572956693       -2.22562493176498        0.84443432242646
C          -21.63459635226983       -2.29106642915557        2.22502684463082
H          -22.15916455306780       -1.86370130048172        3.07214005978571
C          -20.93982241268027       -3.41242555104903        2.40104144223889
H          -20.43328979584964       -3.90767937623658        1.58925182264485
H          -20.86359954753501       -3.88530490202184        3.36695572673699
C          -26.25590249186265        0.05637739164427        3.44309558029995
H          -25.25728069530458       -0.06522686947190        3.85902821279135
H          -26.77261141418956       -0.90266479640305        3.51975266433679
H          -26.79731584704561        0.78386921682507        4.04660425110751
C          -28.27247473252757        1.95593510538605        1.82851110913046
H          -28.51484556716953        2.90590775549429        1.36494950304457
C          -29.09517346204564        1.46734154328622        2.75332156929879
H          -28.93312443989065        0.51240790026592        3.22305132502848
H          -29.97709999518844        2.00415295445976        3.06398815272998
C          -28.74170174766292        3.49881820417276       -3.26385541756150
H          -28.85341654137375        4.36558751781552       -2.61167397070115
H          -29.36478525489098        2.69635736809644       -2.87207290894570
H          -29.10815821239230        3.76388916270110       -4.25318105415046
C          -26.71433371353448        3.64842832624740       -5.74839319079699
H          -27.50759170091916        4.39230665450363       -5.73086469678307
H          -27.02184038354453        2.83593495128228       -6.41019050793901
H          -25.82203835013265        4.10678821207385       -6.16646246729014
O          -23.13003768606052        2.64266293277723       -0.54522015532354
H          -23.75683451523617        3.13354441930586        0.03459754012340
H          -22.50538550705327        3.32798178793758       -0.90263329435502
C          -27.42764787197413       -3.23644356173947       -4.08344621425987