78
 energy: -116.058074722759 gnorm: 0.000053239697 xtb: 6.7.1 (edcfbbe)
Fe         -24.02783870849347        0.91600221616323       -1.61336150652068
N          -22.71931517314436        1.08275062992793       -3.13528554686313
N          -22.70613359624128       -0.17920732549045       -0.59759041031730
N          -25.31156236964470        0.81455073735874       -0.09236388060650
N          -25.32597349994503        2.07135122961912       -2.62981366151071
C          -22.91586785797567        1.71633749380907       -4.32327293344004
C          -21.75828090133009        1.57275249610905       -5.17646171254234
C          -20.85693358699617        0.83048680693074       -4.47772573312408
C          -21.47682349373837        0.52966922430978       -3.20740937936628
C          -21.45856288871491       -0.54516503536525       -0.99972890293443
C          -20.81299636103561       -1.35697503709586        0.00084062967119
C          -21.71038225958591       -1.48627516462599        1.02683460083817
C          -22.88274858225306       -0.72892138124405        0.62967024778503
C          -25.13955485199221        0.12794760032288        1.06840893588454
C          -26.29217218843901        0.26619508439934        1.92344801637960
C          -27.17855117001518        1.06082953482521        1.24751139900573
C          -26.53619878339819        1.39264227807955       -0.01069836349480
C          -26.56477544699766        2.45772472666899       -2.22113392457833
C          -27.22120870557117        3.23750587295589       -3.24583143485368
C          -26.35072294145542        3.30713515146371       -4.28917939338415
C          -25.17433067659505        2.56972310480760       -3.88715297188570
C          -24.05527081771969        2.41235971974691       -4.68279487423774
H          -24.07449268536478        2.86232605602396       -5.66340576469046
C          -20.87772738535461       -0.22037847322121       -2.21435391364002
H          -19.88407558324790       -0.59481819932142       -2.40832746618509
C          -24.01866477724843       -0.60854085006307        1.40475578609985
H          -24.03102931002548       -1.12354099643791        2.35312542124990
C          -27.13418123367025        2.15342241945919       -0.99882380764846
H          -28.12904484322138        2.52700532930706       -0.81008187457817
C          -19.49145515044659        0.38325072728394       -4.87400871073797
H          -19.24256673027380        0.73748579448567       -5.87129064850705
H          -19.42673810588077       -0.70524794742485       -4.87089325779445
H          -18.74523784415995        0.76707828966354       -4.17787487358961
C          -21.64440902789419        2.15384284272643       -6.54411544203482
H          -21.74233580283214        3.23924362137768       -6.50981498761647
H          -22.43007706570937        1.76477170380981       -7.19219280800090
H          -20.68236583605892        1.91147629066309       -6.98888496783071
C          -19.41627736867735       -1.86756751443587       -0.07880831725857
H          -18.76223500150842       -1.12958283099263       -0.54086215118048
H          -19.36640305972673       -2.78219819930584       -0.67259251343733
H          -19.04281477963855       -2.08650385382760        0.91936930937060
C          -21.56460797032581       -2.18386748424090        2.28499977826992
H          -22.06995574189002       -1.73315268198423        3.13104766961866
C          -20.88044132683942       -3.30843588595522        2.46944177834319
H          -20.39760096788655       -3.82574889860004        1.65869434356079
H          -20.80146682286940       -3.76681670550316        3.44129773037812
C          -26.41324551224768       -0.29570346273281        3.29663175307432
H          -25.46508966613984       -0.22142300574864        3.82682683158048
H          -26.70002222788078       -1.34814515189897        3.26311322501277
H          -27.16923540969469        0.24952184392405        3.85795911450165
C          -28.48262707804511        1.53354460956849        1.65675943793963
H          -28.75118603315869        2.52508487410119        1.31052909301662
C          -29.35111728530400        0.85452905229897        2.39925590373047
H          -29.15769384063146       -0.15061602676953        2.73114142417910
H          -30.30221693783913        1.27546905180190        2.68067454106469
C          -28.58629274971986        3.82030218797091       -3.11301421957397
H          -28.62859851401914        4.50974855466870       -2.26937609210467
H          -29.32374969884522        3.03523413439141       -2.94415358946933
H          -28.86455725770713        4.36354715177429       -4.01274920883285
C          -26.50793144164462        3.98634731741426       -5.60637629859360
H          -27.47848197526708        4.47096371639254       -5.67821865053473
H          -26.42257109743696        3.26663469061361       -6.42080536793666
H          -25.73564546899497        4.74393589085955       -5.74309556029990
O          -23.13283123169657        2.87202353940814       -0.81576873685965
H          -23.79932065180877        3.49676289524973       -1.12191323678331
H          -22.37549256960412        2.95347119355295       -1.40566917673562
C          -27.45679920809148       -3.01775520050374       -3.57089922369641
H          -27.45615637086448       -3.98993239117273       -3.07819288104367
H          -27.48228511892115       -3.18159298844204       -4.64818865912627
H          -28.35362766384820       -2.48047007494808       -3.27905566213818
N          -24.98157662122565       -2.66578995480273       -3.42476679068023
H          -24.72932399269495       -3.53311985543090       -3.86939597040430
C          -26.25856077245952       -2.23056605963286       -3.18485053362860
C          -24.13263282433725       -1.72454937576754       -2.95420074939000
H          -23.06591311468256       -1.79778438568646       -3.00642019659271
N          -24.79414447977890       -0.72052170279139       -2.43173012666407
C          -26.11774081959015       -1.02068254695594       -2.56783981629456
H          -26.87492308380883       -0.35139103784772       -2.21552008878449
