87
 energy: -124.443947071743 gnorm: 0.316101963196 xtb: 6.7.1 (edcfbbe)
Fe           6.25300000000000       17.32200000000000       34.99700000000000
N            6.53900000000000       15.80700000000000       33.74500000000000
N            8.19200000000000       17.77000000000000       34.81500000000000
N            5.97000000000000       18.87700000000000       36.21900000000000
N            4.28800000000000       16.96500000000000       35.08000000000000
C            5.57500000000000       14.94100000000000       33.28100000000000
C            6.16500000000000       13.87200000000000       32.48700000000000
C            7.48800000000000       14.08200000000000       32.52500000000000
C            7.74600000000000       15.29200000000000       33.26700000000000
C            9.16400000000000       17.06600000000000       34.19300000000000
C           10.44600000000000       17.72600000000000       34.33700000000000
C           10.22000000000000       18.90200000000000       34.93400000000000
C            8.80400000000000       18.91700000000000       35.30700000000000
C            6.87300000000000       19.89700000000000       36.53400000000000
C            6.30800000000000       20.82900000000000       37.48200000000000
C            5.03700000000000       20.44700000000000       37.68100000000000
C            4.81300000000000       19.24400000000000       36.90499999999999
C            3.32800000000000       17.57000000000000       35.86500000000000
C            2.01400000000000       17.04500000000000       35.55300000000000
C            2.21300000000000       16.11900000000000       34.57099999999999
C            3.62000000000000       16.06500000000000       34.27199999999999
C            4.20100000000000       15.06000000000000       33.48500000000000
H            3.54400000000000       14.33400000000000       33.00800000000000
C            8.97800000000000       15.87600000000000       33.52400000000000
H            9.86700000000000       15.35300000000000       33.17000000000000
C            8.18100000000000       19.90600000000000       36.03200000000000
H            8.77200000000000       20.79800000000000       36.24000000000000
C            3.60200000000000       18.58900000000000       36.76900000000000
H            2.79200000000000       18.90000000000000       37.42900000000000
C            5.38800000000000       12.73700000000000       31.78400000000000
H            4.72300000000000       13.39100000000000       31.18000000000000
H            4.83200000000000       12.38600000000000       32.67900000000000
H            5.69800000000000       11.86800000000000       31.16500000000000
C            8.52700000000000       13.26000000000000       31.72500000000000
H            9.12300000000000       12.92200000000000       32.60000000000000
H            9.01900000000000       14.14900000000000       31.27600000000000
H            8.48000000000000       12.43600000000000       30.98100000000000
C            1.16900000000000       15.24900000000000       33.82700000000000
H            0.86600000000000       14.75000000000000       34.77200000000000
H            1.01500000000000       14.54400000000000       32.98200000000000
H            0.54500000000000       16.15700000000000       33.68300000000000
C            0.71600000000000       17.34800000000000       36.32800000000000
H            0.00600000000000       18.10100000000000       35.95600000000000
C            0.15200000000000       16.22500000000000       36.97600000000000
H            0.79700000000000       15.42900000000000       37.37599999999999
H           -0.93900000000000       16.13400000000000       37.08800000000000
C            3.90200000000000       21.20900000000000       38.35300000000000
H            3.66700000000000       20.45500000000000       39.13500000000000
H            3.17800000000000       21.09900000000000       37.51700000000000
H            3.81900000000000       22.22500000000000       38.79500000000000
C            6.99400000000000       22.17100000000000       37.87899999999999
H            7.63700000000000       22.59800000000000       37.12200000000000
C            6.99300000000000       22.40800000000000       39.28100000000000
H            6.27100000000000       21.89500000000000       39.93300000000000
H            7.71400000000000       23.10700000000000       39.73000000000000
C           11.17400000000000       20.05400000000000       35.35200000000000
H           11.80700000000000       19.35400000000000       35.93800000000000
H           11.24600000000000       21.06800000000000       35.80100000000000
H           11.53900000000000       20.07700000000000       34.30300000000000
C           11.77300000000000       17.10800000000000       33.85900000000000
H           12.21000000000000       17.22800000000000       34.87300000000000
H           12.01300000000000       18.00800000000000       33.25400000000000
H           12.21000000000000       16.20400000000000       33.38400000000000
C            3.99200000000000       20.84500000000000       31.27300000000000
H            3.56500000000000       20.35500000000000       30.37200000000000
H            4.55500000000000       21.74900000000000       30.95800000000000
H            3.16300000000000       21.13200000000000       31.95400000000000
N            6.03800000000000       19.34700000000000       31.37700000000000
H            6.35300000000000       19.54300000000000       30.44800000000000
C            4.91100000000000       19.89500000000000       31.96900000000000
C            6.62300000000000       18.51500000000000       32.26700000000000
H            7.53000000000000       17.94500000000000       32.06900000000000
N            5.90800000000000       18.51700000000000       33.40300000000000
C            4.82800000000000       19.35200000000000       33.22800000000000
H            4.09500000000000       19.48800000000000       34.01300000000000
C            8.61200000000000       16.77600000000000       38.55700000000000
H            8.80000000000000       17.31100000000000       39.51300000000000
H            9.15500000000000       17.30300000000000       37.74300000000000
H            8.99500000000000       15.73700000000000       38.65100000000000
C            7.18000000000000       16.75400000000000       38.26700000000000
H            6.82200000000000       17.80200000000000       38.18600000000000
H            6.65700000000000       16.27200000000000       39.11900000000000
S            6.78700000000000       15.86800000000000       36.74500000000000
C            5.18900000000000       15.25200000000000       37.38400000000000
H            4.58400000000000       16.07600000000000       37.81900000000000
H            5.36000000000000       14.49500000000000       38.17900000000000
H            4.60000000000000       14.79000000000000       36.56300000000000
87
 energy: -124.577189851753 gnorm: 0.173935336017 xtb: 6.7.1 (edcfbbe)
Fe           6.25243759160565       17.33027241243387       34.99182106733646
N            6.53852559309141       15.78507366805373       33.74164974330908
N            8.18010959612552       17.77389131530387       34.82101721272907
N            5.97084116625981       18.89700147780953       36.22882362416039
N            4.29067134120295       16.96613891040012       35.07750856147034
C            5.57164648616964       14.93619317266348       33.27486612264079
C            6.16244922475272       13.86427485938719       32.48282985928266
C            7.48788692406655       14.07633267420410       32.50126544173891
C            7.73698585326588       15.27969669138110       33.27114743751242
C            9.14781740825852       17.05679005011224       34.20473988376128
C           10.42248087342522       17.71565346739471       34.33298739428131
C           10.18607236602046       18.90403859013080       34.95208298636620
C            8.78205708340521       18.91360350406462       35.29764922238419
C            6.87953194119384       19.89251295830689       36.53003079907767
C            6.31313876964400       20.86274219175058       37.44488593320455
C            5.03684133904358       20.46650511089163       37.66661064723942
C            4.81945612668396       19.24715857575076       36.90589545943489
C            3.33632193754515       17.56841183389190       35.85935644673315
C            2.02252056675830       17.03139642091383       35.56154895833694
C            2.23044376547916       16.11459900120629       34.55936563499081
C            3.63404089698092       16.06269956956562       34.28477609360024
C            4.20884972895172       15.07309170773419       33.48675121022529
H            3.54858298738457       14.34963361309226       33.01641976435820
C            8.96766133104759       15.86478603653170       33.52555082763192
H            9.85849135086812       15.35782045598259       33.16512730362809
C            8.17625574991596       19.90755553160359       36.03208868445093
H            8.77362866888307       20.78862258702387       36.24791825834386
C            3.60626729450946       18.58447868928067       36.77165699287770
H            2.79069226126667       18.90020050143533       37.41735976539027
C            5.35776474059631       12.76654579983739       31.80533954832316
H            4.69289155630448       13.36599687241105       31.17191907427132
H            4.80307775851964       12.36486418106174       32.66089224237333
H            5.73412723786809       11.92144448078940       31.20046099504002
C            8.55752915359841       13.29310817636422       31.75219091293697
H            9.16152758382949       12.91416864418001       32.58433317781570
H            9.06444382107489       14.13024117419383       31.26058852282841
H            8.42939441684394       12.47477355812338       31.01972683367030
C            1.14325847004782       15.28109192752012       33.87209658472602
H            0.81024366346640       14.73536487677035       34.76295210017908
H            1.08661857745927       14.58640387599805       33.01084952497527
H            0.48093735639101       16.13148289364194       33.67461495824259
C            0.70940308323869       17.27967606709105       36.27674280277881
H            0.03544329847165       18.08928206376888       35.96173172636523
C            0.16076283765567       16.24118213797925       36.96123956416930
H            0.78596547729395       15.44114001603124       37.35439762548977
H           -0.91558036291454       16.15762079436114       37.11532101611260
C            3.88631154939483       21.17065050227007       38.34771425858222
H            3.62955917828629       20.46456764363990       39.14702559440978
H            3.14228492778468       21.11177714007986       37.54324777335314
H            3.86996514577314       22.19135805051986       38.76670745902735
C            7.01122087326769       22.11363975240909       37.92021226804217
H            7.62423936614479       22.59236964429435       37.15907769131162
C            6.99741996438833       22.40266897872189       39.24874191008700
H            6.29704787458490       21.89613126148986       39.91102080034254
H            7.68558339223480       23.11481579687923       39.70623883821482
C           11.20096877008067       20.00190766746370       35.32130045575893
H           11.86088665816050       19.37665187893008       35.93618817963076
H           11.17532003654219       21.00959033503968       35.78473878173592
H           11.60391063594190       20.10351945502261       34.30601615375094
C           11.77796241204249       17.16359610263815       33.88323999196793
H           12.26924017003158       17.23146449828481       34.86246490833363
H           12.07340479079627       18.00818291726309       33.24895620020187
H           12.12855170367591       16.22912035012676       33.40225961879526
C            3.99529231738745       20.84178425192172       31.27095967164003
H            3.56691907219989       20.36471584229684       30.37878370789336
H            4.54381700371240       21.74128964556273       30.95973368616030
H            3.17763754726006       21.12887736994912       31.94274186840406
N            6.03039702823587       19.35156183600175       31.38248261195907
H            6.35040127795834       19.54590297006771       30.44883070183684
C            4.90733816866344       19.89235639559288       31.96835796667893
C            6.61118773380650       18.52018373652503       32.27603793719194
H            7.51153395025842       17.95495824294003       32.07936637819324
N            5.90853665055137       18.50842668994859       33.39790013297994
C            4.84192293510848       19.34847943816599       33.22191267229370
H            4.11113610952000       19.48636267570459       34.00223917498167
C            8.63125114699349       16.77676506829305       38.55865016667495
H            8.81143790120820       17.30616110892647       39.50333117735019
H            9.16241279543254       17.29542278351135       37.75203939670559
H            9.00488925264620       15.74904263488583       38.64904047985637
C            7.17028637734281       16.76556010164630       38.27808078813582
H            6.81117170818144       17.79808507406806       38.18568636563221
H            6.65016227863003       16.27451599278931       39.11131920301297
S            6.76310740639285       15.86310148802044       36.75550922073421
C            5.17313417944429       15.24302070733359       37.38789939950856
H            4.59080455552175       16.07118173735128       37.80899259887392
H            5.36127505948316       14.49703581047055       38.16983891522904
H            4.60855520137926       14.79163330452966       36.56698634773215
87
 energy: -124.652664271474 gnorm: 0.078952220422 xtb: 6.7.1 (edcfbbe)
Fe           6.25265355301889       17.33756641895736       34.98694119056200
N            6.53993377879155       15.76437210667786       33.73723671908517
N            8.17227784998736       17.77956679036495       34.82534516476572
N            5.97068449818131       18.91642872735289       36.23704739702074
N            4.29043200424310       16.96658342293712       35.07321684745608
C            5.57199455887552       14.93032106915418       33.26953379432540
C            6.16083297217832       13.85626664861771       32.47621602787308
C            7.49045760566635       14.06968954726522       32.47923021637118
C            7.72714047502192       15.27020449091540       33.27557066336361
C            9.13970212237101       17.04892366214574       34.21553371965587
C           10.41054065852513       17.70777601205658       34.33050614319642
C           10.16651483225774       18.90673048760384       34.96612854502129
C            8.77016246695256       18.91064572265466       35.29024856670313
C            6.87832220687318       19.89265030732197       36.52298944246507
C            6.31072786776008       20.88803220866949       37.42226610240844
C            5.03207017313146       20.47899650929024       37.65870121715081
C            4.82487134686937       19.25339425430294       36.89837945829451
C            3.34442085812548       17.56687537547506       35.85501617484351
C            2.03066502993418       17.01997809935551       35.57101596802979
C            2.23724972653734       16.10590451261759       34.55480277797726
C            3.64081445862088       16.06039609508059       34.29455951145014
C            4.21661421054043       15.08512081272671       33.48668121950944
H            3.55196043993593       14.36630461164981       33.02264916971095
C            8.95730625803728       15.85507766744054       33.52715887931804
H            9.84838241736954       15.36304942938390       33.15950401505685
C            8.17144279649072       19.91301785793990       36.03391984902720
H            8.77611906856241       20.78065453939180       36.26005575446214
C            3.61110494872320       18.58244119744969       36.76993528574339
H            2.79110097457157       18.90079291965257       37.40308133562664
C            5.32929602093070       12.79545325550652       31.82535053812155
H            4.65793001241017       13.34083294986021       31.16371818675256
H            4.76965216233160       12.34434718341806       32.64296847630585
H            5.78123766825106       11.97894886481672       31.23772613303514
C            8.58417413688854       13.32673116493172       31.77891934454057
H            9.20171519357645       12.90907417153697       32.57028778415574
H            9.11672148954600       14.11173924147622       31.24711062748563
H            8.36816941154932       12.51607282607091       31.06111033990283
C            1.11983560889567       15.31481403503378       33.92081814130086
H            0.75159128002280       14.72191800199577       34.75630297938137
H            1.17825048285078       14.63672433047360       33.04286928016552
H            0.41664197632215       16.10733570538913       33.67136454712082
C            0.71373158710112       17.22701151895640       36.23407001953445
H            0.07577865867105       18.07436152618737       35.94895014592430
C            0.17187479466570       16.25089709981947       36.94257647492046
H            0.77441432310433       15.43685871306949       37.32468078505596
H           -0.89146279430370       16.19054398345470       37.15490481695779
C            3.87256222219148       21.13544352670187       38.34025240853191
H            3.59477721627626       20.47291134474818       39.15772133013526
H            3.10065452236126       21.12340843596251       37.57074846871429
H            3.93435416659843       22.15971128799052       38.73731223476193
C            7.01247256000029       22.06685810016696       37.93783570626011
H            7.62606780650596       22.57989900000855       37.19288703335952
C            6.99860470076119       22.39135607409734       39.21849903842758
H            6.32464368222138       21.88775624571080       39.90122104389000
H            7.65283496110118       23.12630932920144       39.67612386950287
C           11.22356932171622       19.94345109976106       35.29008468882107
H           11.91420980539888       19.39246261290130       35.92944892286636
H           11.08322597065082       20.94006502720465       35.76562268213981
H           11.66482567395467       20.12105928877587       34.30921865470739
C           11.77860085835984       17.22150950720681       33.90970878248950
H           12.32544167256546       17.24158847877806       34.85321511724706
H           12.12936671874191       18.01292456361684       33.24803188285507
H           12.02480002073717       16.25432370701396       33.42325250976537
C            3.99778689519174       20.83948881056766       31.26948923711139
H            3.56941856335049       20.37096706494631       30.38270379139589
H            4.53792078608412       21.73537248034460       30.96121166587056
H            3.18823395639031       21.12648366377400       31.93591774233684
N            6.02445612518260       19.35579771505830       31.38543987537739
H            6.34898534386798       19.54776665921259       30.45030064224674
C            4.90380539277517       19.88997616012691       31.96830886952641
C            6.60077096666714       18.52375958259518       32.28307994779307
H            7.49623490874589       17.96305841800472       32.08796453565326
N            5.91031787242058       18.50209172470710       33.39626031826884
C            4.85180225768079       19.34342567299317       33.21850538828263
H            4.12348129158036       19.48643321480303       33.99425193639235
C            8.64727200261646       16.77858477054932       38.56023977155689
H            8.82454667136535       17.30376927948321       39.49665363333246
H            9.16857464726867       17.28949054333590       37.75669969007144
H            9.01234263043252       15.75827192575718       38.64570071800355
C            7.16328812226659       16.77574210263364       38.29011581572809
H            6.80328415360909       17.79583542281634       38.18616848051470
H            6.64594061366520       16.27719436296635       39.10852645876177
S            6.74795092808121       15.85892184198071       36.76209420876154
C            5.16076522057890       15.23653189663882       37.39103748698919
H            4.59065375217993       16.06570046356115       37.80053874295445
H            5.35890666050606       14.49630305851566       38.16263384505820
H            4.61519618638292       14.79056945833255       36.56877304640195
87
 energy: -124.686776256028 gnorm: 0.051120191163 xtb: 6.7.1 (edcfbbe)
Fe           6.25322362128910       17.34006728468641       34.98374104200261
N            6.53946234635925       15.75543051423102       33.74038829250247
N            8.16878845640768       17.78181385140502       34.82832681165937
N            5.96613623911219       18.92485108166203       36.22750286752823
N            4.29257022512539       16.96456953541296       35.06894409612413
C            5.57271122952895       14.93072252492256       33.26765682291843
C            6.15824818147286       13.85978604428396       32.47270307053806
C            7.49256805728826       14.07360193801516       32.47219489638485
C            7.71998060425858       15.26896951269509       33.28198845582779
C            9.13798615175742       17.04283050556944       34.22448342259312
C           10.40760572705046       17.70501379651715       34.33497349560121
C           10.16430179387735       18.90323976290047       34.97095523032382
C            8.76698756953275       18.91138004596407       35.28750233622605
C            6.87018362894972       19.89504045348710       36.50681894227172
C            6.29553191525296       20.89154731741198       37.40165514041200
C            5.01699327795455       20.47873242059210       37.64226056158287
C            4.82301548232426       19.25460263076751       36.88215481213552
C            3.35269004538470       17.56247955666295       35.85350847532963
C            2.04428599345124       17.00968061896775       35.57529782435954
C            2.23681908825486       16.09615700222606       34.56261634632052
C            3.64171523107141       16.05642694571332       34.29840399800688
C            4.22019306794338       15.09235013391119       33.48397469111322
H            3.55161333426654       14.38046466138179       33.02148200353714
C            8.94952892272046       15.85059274398652       33.53275408655018
H            9.83792665878553       15.36810751230851       33.15126730887537
C            8.16733759935111       19.91712733494430       36.03315148616932
H            8.77962838298769       20.77249306030427       36.27758276243043
C            3.61307932891712       18.57948797078019       36.76358515921748
H            2.78865814073843       18.90307622466513       37.38516910666269
C            5.31123383854635       12.81449995648687       31.83664487569106
H            4.62135017679718       13.31422530875579       31.15387027424799
H            4.73611925119495       12.32444519437176       32.62412549544693
H            5.83398569072445       12.02990330264722       31.26829575866128
C            8.60169094354349       13.35003155871974       31.79684815056756
H            9.24265930888377       12.90524920550956       32.55762721804196
H            9.17272663920786       14.09182793049553       31.23495484269441
H            8.30920321393713       12.55028922975711       31.09752583134134
C            1.10651793726007       15.33431495401790       33.95428249333864
H            0.69010569512503       14.70680919015025       34.74624104786971
H            1.26870584060980       14.68207527737844       33.07068640546535
H            0.35749126476552       16.07913143821606       33.67184846075487
C            0.72522155759982       17.20572194467706       36.19622372541631
H            0.11627560951098       18.06687555615312       35.91545585643408
C            0.17786328066713       16.25819712016108       36.95232499498240
H            0.76346467590471       15.41263673985460       37.29085164380299
H           -0.87465027988828       16.23610625116347       37.21553520310885
C            3.86302636740045       21.11370142358516       38.33600491676917
H            3.56137993388280       20.48080869935118       39.17071564560241
H            3.05154589797730       21.13911928307508       37.60334076674901
H            4.00600885364602       22.13617332207482       38.71516903327075
C            7.02518386942553       22.02981069149493       37.93545452836193
H            7.64946088352228       22.55962515678205       37.21556044478189
C            6.98906101416129       22.39300929561444       39.21476279737561
H            6.34741593408754       21.87048302202720       39.91180735519911
H            7.61717600968353       23.15830201193510       39.65020430652451
C           11.23533131500623       19.90173782580223       35.26941400974867
H           11.96452038836949       19.40782097490269       35.91912411953619
H           10.99253633577910       20.87458380172801       35.74916106519321
H           11.72156278166360       20.13254544404478       34.31607329798111
C           11.77452243861089       17.26047211882473       33.92725122268388
H           12.37927860519637       17.25410690060519       34.83988389463714
H           12.18010249102634       18.01728138014434       33.25023563501934
H           11.92186725956869       16.27520919668870       33.44105295288908
C            3.99913416571559       20.83800165218231       31.26902088298150
H            3.56995692759406       20.37398645843175       30.38168398621483
H            4.53759433471792       21.73356588294687       30.96176390967135
H            3.19181764513843       21.12645092236486       31.93454202323761
N            6.02191948672949       19.35766308917741       31.38577210502458
H            6.34845034559372       19.54950165104622       30.45209137728073
C            4.90120692457412       19.88807656570381       31.96921734163247
C            6.59635701867411       18.52494694250983       32.28471054432296
H            7.49038863925612       17.96701001407721       32.09254584376731
N            5.90838651651985       18.49717313848759       33.39712494889271
C            4.85348582752670       19.34082339673925       33.21911595129023
H            4.12862952711161       19.48971870236665       33.99310231817082
C            8.65630764124898       16.78192076153027       38.56042664540058
H            8.84462331316404       17.30556625299444       39.49405442548513
H            9.17648736850339       17.28761717259700       37.75432509798517
H            9.02165398147847       15.76273065266352       38.64158333416793
C            7.16297478300970       16.78234475785674       38.29965870651807
H            6.79614173075393       17.79798126819486       38.18890719843500
H            6.64386454617148       16.28018071721585       39.11259069037018
S            6.73834034989463       15.85965085360643       36.76896513909406
C            5.15087509220229       15.22959755097295       37.39175443277598
H            4.58028265683723       16.06027425554414       37.79336993599816
H            5.35299063809342       14.48900801841746       38.16033450375093
H            4.61741521467913       14.78243562880051       36.56273684213822
87
 energy: -124.699425887356 gnorm: 0.043396605227 xtb: 6.7.1 (edcfbbe)
Fe           6.25182538783830       17.34261184265179       34.98102570474978
N            6.53554699557417       15.75642186288952       33.74955335901952
N            8.16956409496766       17.78392959627659       34.83291561219548
N            5.96018777083631       18.92972578496015       36.20544265700330
N            4.29289551070183       16.95818652947740       35.06291345344193
C            5.57169767223282       14.93694566950554       33.26706984618133
C            6.15566573527128       13.87132060320798       32.47092290934399
C            7.49484684128255       14.08502735427152       32.47464603479859
C            7.71391779161613       15.27394090180884       33.29151990828234
C            9.14011602069646       17.03952591409448       34.23344856651487
C           10.41037689542310       17.70433299091366       34.34362404385787
C           10.17051395299718       18.89775866956942       34.97612363591364
C            8.76914110170038       18.91447386253375       35.29088846067510
C            6.86105511074215       19.89964259311913       36.48847077902650
C            6.28053033010918       20.88789806913632       37.38752360955254
C            5.00096137476188       20.47156132583336       37.62547986008362
C            4.81707326755248       19.25628021569044       36.85832502069061
C            3.35774515117475       17.55558453877516       35.85107167537143
C            2.05423021420177       16.99603773918815       35.58505042464216
C            2.22946193966287       16.08547562184713       34.57469890375737
C            3.63657343496538       16.04847852078726       34.29868332650985
C            4.21877237760416       15.09630271278472       33.47803683012525
H            3.54945219264696       14.39168291443752       33.00950821987502
C            8.94426567984631       15.85134072825357       33.54087525919287
H            9.82684784935241       15.37285262568509       33.14255755140218
C            8.16508116942810       19.91983242058893       36.03319716880170
H            8.78290919375178       20.76403778930976       36.30147555228968
C            3.61096652399896       18.57865027149829       36.75036769225957
H            2.78296890778207       18.90844037423641       37.36196918562406
C            5.30909111722208       12.82527406240319       31.83869601024833
H            4.60510551609158       13.28991355858966       31.14255109138351