87
 energy: -124.720688892375 gnorm: 0.000059295709 xtb: 6.7.1 (edcfbbe)
Fe           6.29683042763155       17.32393688467007       34.98897459902322
N            6.56953560671262       15.75829273663554       33.77530516766328
N            8.22547860890008       17.80074020610030       34.80487179040828
N            6.01398972986348       18.91886587223317       36.16442497127576
N            4.35301925751398       16.86631480370405       35.14509383096407
C            5.61291489954905       14.92032011533751       33.29540961233848
C            6.20004205101679       13.91364432464658       32.43846945068883
C            7.53716879434631       14.16011296920325       32.42240268001814
C            7.74540986564014       15.32379106351502       33.25560409393850
C            9.18486704752395       17.08826547128267       34.16069405986848
C           10.46884231787980       17.74654526829373       34.26745688028413
C           10.25489666062496       18.88582747055352       34.97722866506177
C            8.84656915767795       18.89777218858694       35.30846833760638
C            6.91944554766594       19.88304186855109       36.46039242193406
C            6.33998655561502       20.87781223082256       37.34084049173868
C            5.04788665640537       20.48036303736398       37.56209797040491
C            4.86535592405881       19.26747936220109       36.80711514601679
C            3.42816841001399       17.48380036960112       35.92420048614617
C            2.13109331142666       16.85104789346994       35.77889568523491
C            2.30008985022867       15.85882650955708       34.84912821501301
C            3.69052920189627       15.88419884615604       34.47676525738356
C            4.26770437174179       14.98281389965966       33.59831263201932
H            3.62125651596726       14.24931599528256       33.14121022437306
C            8.97700659734721       15.92114456500684       33.45067065244589
H            9.83482629999411       15.45901019104137       32.98651064422175
C            8.24384344356358       19.88703035591274       36.06043632431220
H            8.86302588639530       20.70691622554476       36.39115015716659
C            3.66653071927969       18.57827953862376       36.73312255157515
H            2.84440205850072       18.94935182920766       37.32594071753206
C            5.42811785790088       12.84012387339104       31.75062601082630
H            4.66621009947039       13.27161342096370       31.10094304091339
H            4.92796391159178       12.20003989616150       32.47817395049504
H            6.08388551566096       12.22008203036421       31.14430431948900
C            8.62449460500586       13.43006488917167       31.71118532561990
H            9.36784183782681       13.06756485475666       32.42118541450263
H            9.12841611435613       14.08599594984282       31.00040201310850
H            8.22651115901111       12.57731964648420       31.16657530081776
C            1.27271881711614       14.95326258348446       34.26534490280240
H            1.29239843857600       13.97590520644211       34.75092616011937
H            1.45131737631471       14.80445474770715       33.20144139044914
H            0.28062353078973       15.38098819225428       34.39574226541070
C            0.93019752298600       17.25849781157621       36.47307886964419
H            0.85306847323790       18.31614523693685       36.69790357962729
C           -0.05302638696285       16.44903760512309       36.85395731496361
H           -0.01114870599138       15.38462836880601       36.70206956055350
H           -0.92809326320418       16.82469424829149       37.35791138569380
C            3.98689171905380       21.17408917253807       38.34333888171695
H            3.86513423734798       20.71755504928801       39.32730698103123
H            3.02903045059606       21.12085731415821       37.82755643126762
H            4.24938269760900       22.22102590801858       38.48078271590644
C            7.03742548302501       22.04238991251151       37.83928930844111
H            7.76468658700348       22.47701738237821       37.16298608321261
C            6.86022996984975       22.59266693732446       39.03595404383341
H            6.18761868298214       22.17454333051434       39.76450082461010
H            7.40577658481200       23.47089406536210       39.33924922620768
C           11.22257352673456       19.94448458166036       35.38158338694246
H           11.27250938484405       20.02229654175478       36.46793818478618
H           10.91757496357799       20.91421260066669       34.98727174870860
H           12.21903432999019       19.72120712954217       35.00828643120323
C           11.73456132565905       17.22051300132563       33.68229464658243
H           12.56977387989464       17.87703775342925       33.91350075572574
H           11.65355788401189       17.13793147283356       32.59780227855936
H           11.95556293546792       16.23031317507212       34.08062855755303
C            4.06926992186084       20.93437856631314       31.37112356269159
H            3.62784536660959       20.53676216022989       30.45728813097065
H            4.65235893428067       21.81795584748802       31.11150260973895
H            3.27014177599770       21.23035508656843       32.04344158147883
N            6.00880454578212       19.35061048384242       31.41489806140286
H            6.33102677715070       19.55972973662537       30.48425789447111
C            4.92273096190354       19.91469060320741       32.03174119163945
C            6.56096053388398       18.47115345357854       32.28042644794682
H            7.42792993753649       17.88056651972499       32.06810011421693
N            5.89103352468238       18.44449569843226       33.40613897736277
C            4.86953094325530       19.33625974016204       33.26744837106715
H            4.16937983300711       19.50121628225115       34.05974684575747
C            7.90985499351586       17.45953359512044       38.80735052444148
H            7.76415352722991       17.96515480744434       39.75985048604406
H            8.13106184716470       18.20462172159882       38.04802926042459
H            8.76103838371868       16.78797836465561       38.89073647654735
C            6.66224488203792       16.68503905323061       38.43090782367404
H            5.79527833992587       17.34076860595862       38.36206753370162
H            6.46735933730165       15.88729603943046       39.14827748993358
S            6.89423101533622       15.88037329408176       36.79426526885740
C            5.57329512570413       14.63888017678211       36.94100611784039
H            4.63007014635070       15.12628928350722       37.16638218557236
H            5.83870512095989       13.92936759302326       37.72055940984411
H            5.50715690361642       14.13620730384217       35.98221862640094
