78
 energy: -116.058025525625 gnorm: 0.000096112744 xtb: 6.7.1 (edcfbbe)
Fe          35.29817455543918        4.29169120865038       10.21362274706785
N           37.17532571462821        3.97287517694775        9.63113970675262
N           35.01352739916845        5.52896812528553        8.67313481354807
N           33.41945821014026        4.65081669332227       10.85195732245027
N           35.59071797427258        3.09083980421118       11.79987784523586
C           38.09097355131365        3.16077470078493       10.21884334915031
C           39.34447564611404        3.19243171301464        9.49548311322090
C           39.16240471301035        4.04775043631572        8.45537531827372
C           37.79821881171512        4.52172861801999        8.55519350124349
C           35.92135150852156        5.86116189827478        7.71674053056333
C           35.34909089880705        6.77154099588951        6.75763931686206
C           34.05732504894836        6.98799776942250        7.15691134873401
C           33.87140688848967        6.19071628957456        8.35506325665065
C           32.48590575023141        5.42755402455084       10.23411266987840
C           31.24793831445928        5.42138210494451       10.96816968612358
C           31.44907140221818        4.61471745832472       12.05812485850453
C           32.81174873775841        4.13346595248916       11.95232437768452
C           34.69275368435292        2.78667232333587       12.77685258689261
C           35.26391324143070        1.85550185240888       13.72375660788741
C           36.52619738809786        1.59490709181232       13.28827748273789
C           36.71159463958142        2.37602934974956       12.08637477957275
C           37.88323656743548        2.40158421949124       11.35479909483523
H           38.70121487976884        1.78995645668849       11.70331662979269
C           37.22590605945951        5.40091971011567        7.65831037852751
H           37.84695722197783        5.76311511848304        6.85311810497149
C           32.69334298956071        6.15344145162396        9.07446023205010
H           31.86941219787265        6.74819339965309        8.71120970394035
C           33.40385029524693        3.27959641233839       12.86602073225294
H           32.80873218207681        2.95707806049746       13.70652576048898
C           40.12187558974473        4.46349748825690        7.39328971061346
H           41.08702052432254        3.98327106020952        7.53436346029395
H           40.26973337811108        5.54320500778501        7.41436253484622
H           39.74575866737081        4.19316130685877        6.40593240985698
C           40.55754287985243        2.41699867230967        9.88042429431805
H           40.34182043982969        1.34834353423852        9.89419797711486
H           40.89637144464818        2.70614213694243       10.87545958039193
H           41.36879168680292        2.59361716829455        9.17842966977293
C           36.04317440940344        7.29177517593348        5.54729088699145
H           36.67914212973697        6.52560662524539        5.10593356440241
H           36.67195000616638        8.14735445073041        5.79845607608979
H           35.31289849740615        7.60856364411427        4.80529411624118
C           33.03405010350782        7.80301642967326        6.54053456353709
H           32.02024611688375        7.42977988980983        6.63105246214779
C           33.24244632360932        8.94705194913113        5.89682013745772
H           34.21966128028170        9.39026474819048        5.81846473879090
H           32.43157398138929        9.49688561113935        5.44832513273927
C           29.99876433634766        6.11384839459002       10.54831889844806
H           29.87349780989660        6.05965311328777        9.46798962881166
H           30.02215641894064        7.16731622754011       10.83250898774185
H           29.13680649857319        5.64914919618001       11.02279187971373
C           30.52702571295270        4.25452222316594       13.11231541398639
H           30.64262302708268        3.25473784818781       13.51511764900899
C           29.58252624909490        5.04376339809186       13.61388777985228
H           29.45238213123626        6.06078669635764       13.28756615162834
H           28.91962695190704        4.70412621774471       14.39236804894469
C           34.54741495640415        1.32494878609434       14.91811980784686
H           33.65843341815414        0.76959923601024       14.61741222376708
H           34.23157905608140        2.13953647717934       15.57046452608194
H           35.18912734184789        0.65874415673480       15.48936280330559
C           37.56357265821757        0.70327104732655       13.87932560690617
H           37.85909547250928       -0.06539543015209       13.16504709494421
H           37.18877920047692        0.21310699175324       14.77453269166548
H           38.45266871871233        1.27457742652743       14.14755457667527
O           35.92941082423918        6.02797088718164       11.57380254992843
H           35.07798086335900        6.45554683277910       11.71622328276436
H           36.13884766374997        5.53871285764562       12.37692553590974
C           32.74591602324885       -0.30931718431251        8.37097676276764
H           33.35788512747611       -1.18560601987645        8.15748704504995
H           32.01600475964525       -0.19979989479285        7.56900945183320
H           32.21571868802557       -0.47388583951231        9.30366559586695
N           34.37080925509914        1.36295973075310        7.45741902505715
H           34.45317860496055        0.93798374954197        6.54843332893524
C           33.58883675168980        0.90753158784201        8.48636914038240
C           35.00243077605374        2.47931297048209        7.88545798405279
H           35.68226876331424        3.05182964266953        7.28840017001768
N           34.66791852226075        2.75785476717306        9.12220492593336
C           33.78969692209530        1.78905925885487        9.50953426008656
H           33.36373256517870        1.79061133185913       10.49104000059121
