87
 energy: -128.130527243165 gnorm: 0.303171937354 xtb: 6.7.1 (edcfbbe)
Fe          29.02700000000000       25.21800000000000       13.17400000000000
N           27.61900000000000       25.85300000000000       11.87300000000000
N           30.20200000000000       26.75300000000000       12.63500000000000
N           30.41200000000000       24.64500000000000       14.51400000000000
N           27.79900000000000       23.75700000000000       13.77600000000000
C           26.35400000000000       25.33400000000000       11.73400000000000
C           25.56800000000000       26.21400000000000       10.88000000000000
C           26.35300000000000       27.23800000000000       10.51700000000000
C           27.65800000000000       27.00700000000000       11.10600000000000
C           29.96200000000000       27.66000000000000       11.62500000000000
C           31.15400000000000       28.43700000000000       11.39900000000000
C           32.09100000000000       28.02900000000000       12.26100000000000
C           31.50200000000000       26.98300000000000       13.05500000000000
C           31.65800000000000       25.19100000000000       14.69000000000000
C           32.34100000000000       24.46700000000000       15.76000000000000
C           31.50900000000000       23.49600000000000       16.16600000000000
C           30.29600000000000       23.58100000000000       15.38500000000000
C           28.07800000000000       22.78000000000000       14.71300000000000
C           27.00200000000000       21.81700000000000       14.74900000000000
C           26.06700000000000       22.23200000000000       13.89100000000000
C           26.54900000000000       23.43500000000000       13.26200000000000
C           25.87300000000000       24.17200000000000       12.30300000000000
H           24.89800000000000       23.81100000000000       11.97700000000000
C           28.77200000000000       27.79300000000000       10.93500000000000
H           28.71200000000000       28.58900000000000       10.19200000000000
C           32.17100000000000       26.28600000000000       14.04300000000000
H           33.16700000000000       26.62700000000000       14.32500000000000
C           29.21300000000000       22.74100000000000       15.49200000000000
H           29.25700000000000       21.97300000000000       16.26500000000000
C           24.08599999999999       25.95600000000000       10.52900000000000
H           23.72000000000000       25.86000000000000       11.57300000000000
H           24.22700000000000       24.94000000000000       10.10200000000000
H           23.33400000000000       26.51700000000000        9.93400000000000
C           25.97900000000000       28.41700000000000        9.58700000000000
H           26.79100000000000       28.26500000000000        8.84500000000000
H           26.28300000000000       29.21700000000000       10.29500000000000
H           25.05300000000000       28.71600000000000        9.05100000000000
C           24.71800000000000       21.56300000000000       13.52300000000000
H           23.89300000000000       21.58500000000000       12.78000000000000
H           24.29600000000000       21.74299999999999       14.53500000000000
H           25.20800000000000       20.56600000000000       13.48800000000000
C           26.97400000000000       20.56200000000000       15.64800000000000
H           25.93200000000000       20.38900000000000       15.80500000000000
C           28.04500000000000       19.79600000000000       15.86000000000000
H           29.05300000000000       20.16900000000000       15.62700000000000
H           27.93300000000000       18.78200000000000       16.27100000000000
C           31.72600000000000       22.41600000000000       17.24600000000000
H           31.54900000000000       21.53000000000000       16.60000000000000
H           30.80100000000000       22.63300000000000       17.82100000000000
H           32.56200000000000       22.19300000000000       17.94200000000000
C           33.77800000000000       24.82300000000000       16.18700000000000
H           34.28000000000000       25.29600000000000       15.34300000000000
C           34.21200000000000       24.81500000000000       17.43100000000000
H           33.63600000000000       24.31000000000000       18.22000000000000
H           35.15600000000000       25.31300000000000       17.69600000000000
C           33.53900000000000       28.54900000000000       12.43200000000000
H           34.52000000000000       28.28400000000000       12.88100000000000
H           33.21700000000000       29.53600000000000       12.82700000000000
H           33.65000000000000       28.60000000000000       11.32800000000000
C           31.26800000000000       29.49900000000000       10.27200000000000
H           32.27400000000000       29.12700000000000        9.98200000000000
H           31.38600000000000       30.29500000000000       11.03800000000000
H           30.76300000000000       29.91000000000000        9.37200000000000
C           28.31500000000000       28.56200000000000       17.55200000000000
H           27.87800000000000       28.10200000000000       18.46400000000000
H           27.85100000000000       29.55900000000000       17.39300000000000
H           29.41100000000000       28.67200000000000       17.69400000000000
N           26.78800000000000       27.33500000000000       15.92400000000000
H           25.93500000000000       27.62700000000000       16.35500000000000
C           28.04300000000000       27.68200000000000       16.36800000000000
C           26.89200000000000       26.56700000000000       14.85500000000000
H           26.04900000000000       26.14400000000000       14.31000000000000
N           28.17300000000000       26.41700000000000       14.58400000000000
C           28.92800000000000       27.11000000000000       15.51400000000000
H           30.01000000000000       27.12700000000000       15.47500000000000
C           32.66400000000000       22.78500000000000        9.68700000000000
H           32.32900000000000       22.49200000000000        8.66900000000000
H           33.25800000000000       21.95400000000000       10.12400000000000
H           33.29000000000000       23.70000000000000        9.61100000000000
N           30.52000000000000       22.08200000000000       10.79400000000000
H           30.56100000000000       21.15000000000000       10.43300000000000
C           31.46000000000000       23.06200000000000       10.55300000000000
C           29.57100000000000       22.58100000000000       11.57300000000000
H           28.69700000000000       22.02800000000000       11.91400000000000
N           29.87700000000000       23.83599999999999       11.84800000000000
C           31.06800000000000       24.18000000000000       11.20000000000000
H           31.49900000000000       25.17000000000000       11.27000000000000
87
 energy: -128.245819521117 gnorm: 0.171490888849 xtb: 6.7.1 (edcfbbe)
Fe          29.01755358062491       25.21910741671779       13.17555001346700
N           27.60345869010480       25.86022932287587       11.86396398142676
N           30.20042997942560       26.74344736539053       12.63320618271688
N           30.42342010511654       24.63854020609660       14.51620778596344
N           27.79634728146803       23.75184258013363       13.77830533538092
C           26.34231577446283       25.34581926012486       11.72254762059509
C           25.55267682131981       26.21288566923014       10.87214807236927
C           26.34499042617487       27.23955630714631       10.50040640075992
C           27.63989601146063       27.01056564462350       11.10250515817147
C           29.95827151632924       27.64458027206122       11.62543383086918
C           31.13318873993154       28.41528331256704       11.38057398448599
C           32.08810865970883       28.00535432682599       12.26838281082106
C           31.49444611948658       26.97447032710619       13.05302504432129
C           31.66393099188815       25.18312339167838       14.70430826719020
C           32.36756327894818       24.47302744580297       15.75461167241797
C           31.52485694461565       23.49244529693270       16.17701828642838
C           30.31450427384730       23.58768967278633       15.39674512232927
C           28.07984298807379       22.78086081599792       14.70908471090203
C           27.01123066259482       21.82019346463628       14.75994985449588
C           26.06548914735996       22.24855842836481       13.86383399258974
C           26.55672154598030       23.43902391333356       13.25678233900415
C           25.87269877722269       24.17502909233577       12.29927085695077
H           24.90115719145098       23.81224190047496       11.98532257823984
C           28.76479035335807       27.79493524112417       10.93326771257676
H           28.71391055865324       28.58996483802191       10.19776155926884
C           32.16962750947165       26.28670085000033       14.04524290704524
H           33.16048156341957       26.62994832658800       14.31606714946369
C           29.22003879079512       22.74400100090247       15.49916699182962
H           29.25719917756894       21.98328745423543       16.26712253810309
C           24.09730705979211       25.92050368669560       10.55682882671770
H           23.67906054882117       25.83723675983367       11.56671727647015
H           24.18300604291110       24.92617191508502       10.10310477258293
H           23.40749486776564       26.52957508007513        9.94814768838394
C           26.02844932009429       28.42425781201533        9.60025025229381
H           26.79461266971079       28.30583186352433        8.82576093735359
H           26.28880132672241       29.25608228226621       10.26466976707957
H           25.07101527957957       28.65548732787123        9.10030272605002
C           24.74244521506670       21.53671598105584       13.56828764852541
H           23.96752511877724       21.63756484565584       12.78571683296865
H           24.25591814103061       21.69857532091024       14.53940946065187
H           25.15403609270392       20.52199347534239       13.50155822104577
C           26.97278871706932       20.57427221845283       15.59829755569961
H           25.93631496889424       20.36566378000466       15.81311978719663
C           28.03194357744299       19.80543431781722       15.85242080279508
H           29.03452192473426       20.14560184032414       15.61364987074259
H           27.93109900206496       18.81003776120077       16.28572096795282
C           31.68700616662365       22.40896846490749       17.22920935410022
H           31.54087590427158       21.50155044218453       16.63053339898384
H           30.79983470538237       22.59377574367834       17.84686927902552
H           32.55250479817595       22.24344303892018       17.89082260522312
C           33.74536851753358       24.84652700138356       16.18163461571304
H           34.28810059234878       25.29328767899774       15.35419812057483
C           34.20469360110927       24.81368747191129       17.42585565864801
H           33.64117895354321       24.32758147026037       18.21548648748575
H           35.15014684237342       25.28524273625756       17.69155279727626
C           33.50334318300305       28.57991695561824       12.39572794669340
H           34.43631836612283       28.23966232889519       12.88500460092237
H           33.25755842880421       29.56722595180082       12.80904507606838
H           33.70468750377693       28.65026337276068       11.31939044714308
C           31.31507423149289       29.50090393413162       10.31194270352738
H           32.30173010182276       29.18110607704370        9.95223234854391
H           31.41962674873938       30.34556160830031       11.00478308147732
H           30.73745471262700       29.84176964755397        9.43204067912051
C           28.30877512181901       28.56129717438739       17.55319531411245
H           27.88223461113590       28.11184749405408       18.45901386748658
H           27.85818181902557       29.55054065125000       17.40132682808069
H           29.39045385450746       28.67123209402755       17.69028807377846
N           26.78903106530222       27.34438807380981       15.93807714248305
H           25.92905674751990       27.63408098119152       16.36711518608174
C           28.04377414728195       27.69093070254010       16.37274348590125
C           26.90744810586516       26.56775764496452       14.85569484861974
H           26.07148075108959       26.14791579872394       14.31382926891097
N           28.18226406927199       26.40825992255085       14.57624565181260
C           28.91527825199302       27.10501526992099       15.50683928396221
H           29.99111917909210       27.12280755444464       15.47179150028054
C           32.66207911984821       22.78345640432441        9.68569771381936
H           32.33807403401216       22.49386223973490        8.67775022646017
H           33.25520826358696       21.96572499068279       10.11491346012814
H           33.28101644253308       23.68432349550126        9.61371908290905
N           30.52952595693726       22.08132137615893       10.78701878666727
H           30.56476703161948       21.14366103468693       10.42841320055282
C           31.46854910897648       23.05355485098810       10.54345787079009
C           29.57897556706054       22.59999842352229       11.57605211686022
H           28.71201738053788       22.04987892282515       11.91509832387275
N           29.87005249763403       23.85440647496652       11.84897547835157
C           31.05532060059466       24.16544057015101       11.20390074898085
H           31.48732558096047       25.14910451774052       11.27273718387659
87
 energy: -128.311718681872 gnorm: 0.065666807319 xtb: 6.7.1 (edcfbbe)
Fe          29.01079096938290       25.22361888872156       13.17733579531782
N           27.58774192936148       25.86911531935508       11.85807433043152
N           30.20440677221381       26.73714125863312       12.62503947253765
N           30.43702214123522       24.63265704516076       14.52122791501022
N           27.79430667308336       23.74558240918007       13.77851235993922
C           26.33101070961226       25.35864987770706       11.71215550470933
C           25.53717482705922       26.21176448674610       10.86572978541006
C           26.33884035995960       27.24328386931206       10.48515867430607
C           27.62320960760599       27.01190439879018       11.09888790074220
C           29.96245275288653       27.63337167524134       11.61688958561317
C           31.11840568607898       28.40610839947830       11.35990798015117
C           32.09016561899316       27.99398488323794       12.27221595357385
C           31.49398820672480       26.97037249910545       13.04366066421796
C           31.67223600157806       25.17193209508550       14.71662360762329
C           32.38636061151421       24.47807893916121       15.75501172560604
C           31.52826045301158       23.48781569203124       16.19337617414588
C           30.33182033609905       23.59361223759360       15.40661487279651
C           28.08210920814536       22.77852204955696       14.70085567468878
C           27.02195171589733       21.81984283976446       14.76675362212376
C           26.06072146684423       22.25829417000548       13.84136185649791
C           26.56131520728222       23.43561656392340       13.25426281494527
C           25.87275436491456       24.17886559587629       12.29578340146931
H           24.90346675802202       23.81389904918852       11.99411534332647
C           28.75772072773309       27.79502275258182       10.92925117575103
H           28.71367050161025       28.59219954834274       10.20384740454810
C           32.16971985710667       26.28480579434898       14.04458851600390
H           33.15552000714739       26.63216222938330       14.30713149673762
C           29.22567344276886       22.74802244192075       15.50309995923880
H           29.25427567298471       21.99278309815986       16.26867376825970
C           24.10864441479927       25.88825414696189       10.58065521123294
H           23.63679541748778       25.81351936400432       11.55924809661493
H           24.13580566646652       24.90966956250276       10.10393099061742
H           23.48680833317390       26.55030961731689        9.95943271912635
C           26.07454701506526       28.42797367542791        9.61285515334142
H           26.80049616358360       28.34938935934560        8.80578076999869
H           26.29607570683306       29.29308707216973       10.23505599833178
H           25.08493611556598       28.58659103916418        9.15313208225123
C           24.77169319865596       21.51425612914191       13.61425362276226
H           24.05598141970071       21.70221237271632       12.78938912586062
H           24.22202027038041       21.65534700280960       14.54623159222828
H           25.10664384363603       20.48251895331311       13.51746773912978
C           26.97244507918088       20.60128357001541       15.55452987044573
H           25.94825181728469       20.33439015839877       15.81469813486594
C           28.01623299410695       19.81962463468296       15.84716336960140
H           29.01962314500550       20.12195598370658       15.59524585720417
H           27.91941444788448       18.84176165431977       16.30111567209920
C           31.65182385485448       22.40335032721784       17.21365846448620
H           31.53169950221729       21.47239996810049       16.66063741097536
H           30.79833400834712       22.55346978188225       17.87381880501986
H           32.55115782680512       22.30226728917589       17.83646634792848
C           33.71236660417650       24.85697808002895       16.17512703422676
H           34.29643442512724       25.30132455271108       15.37452625505922
C           34.19837933350087       24.80550768342045       17.41690856599222
H           33.64108335382566       24.34656199619785       18.21474714651881
H           35.14531765735693       25.25549077170143       17.68014269703610
C           33.46323024933303       28.60924771833177       12.36023456972746
H           34.33777930303592       28.18098681849267       12.89210251217931
H           33.29024320972992       29.59736289669272       12.79017524570966
H           33.74912437892708       28.69702020837819       11.31212619946470
C           31.35965736167663       29.49919103750268       10.35404210460793
H           32.32765539549760       29.23131988189452        9.92986423356102
H           31.45232695779175       30.38985277823545       10.97606612459244
H           30.70158586148797       29.75902479508234        9.50034596423828
C           28.30482797069154       28.56103272260959       17.55350385803115
H           27.88338849054071       28.11800268654131       18.45466621466493
H           27.86198042482801       29.54561242268438       17.40787771964432
H           29.37717522541582       28.67146775795826       17.68834873394061
N           26.79033989485523       27.35137723637731       15.94805785245977
H           25.92439130547046       27.63753368437789       16.37348033931814
C           28.04621028895204       27.69777842628217       16.37494802620744
C           26.92105884715579       26.56731041581333       14.85760454375730
H           26.09073068851917       26.15103899744993       14.31788420033793
N           28.19057050292312       26.39944674217429       14.57165558476347
C           28.90506526094901       27.09921588487967       15.50027998482325
H           29.97693149856381       27.12098723879894       15.47183674185194
C           32.66063199707711       22.78360241389011        9.68535438838638
H           32.34531903296440       22.49486899675096        8.68305762143845
H           33.25451630346849       21.97377434010490       10.10840508340681
H           33.27510650134094       23.67545720797657        9.61638107692089
N           30.53407697286438       22.08212464372796       10.78362907231919
H           30.56266223157682       21.13991376737384       10.42916656599084
C           31.47420233139715       23.04781214970020       10.53621002027738
C           29.58422798724439       22.61817867381764       11.57822989290026
H           28.72430601334015       22.06966146231496       11.91662655339611
N           29.86897221501423       23.87034502602410       11.85015300695852
C           31.04259714242265       24.15477554153734       11.20563732577542
H           31.48200395306544       25.13115057219673       11.27168256967095
87
 energy: -128.337409176994 gnorm: 0.049043525980 xtb: 6.7.1 (edcfbbe)
Fe          29.00840213914316       25.22753133400491       13.17711885174542
N           27.58229469549735       25.87219742298576       11.86036609311388
N           30.21048468162702       26.72955844480920       12.60986380903439
N           30.44422799435007       24.62952471509850       14.51940223952615
N           27.79594475924486       23.74318896312165       13.77387640464702
C           26.32780358670992       25.36120528543333       11.71165373353624
C           25.53487676679269       26.20554815270206       10.86424479969331
C           26.34309658834783       27.24042981219652       10.48019909093592
C           27.61967765364891       27.00794408020847       11.09933954707657
C           29.96732517277074       27.62742305864590       11.60191296230678
C           31.11592305446797       28.40834973591576       11.34962461501767
C           32.08958709536657       27.99521606036041       12.26645024124285
C           31.49718050669084       26.96621934021518       13.03084712706339
C           31.67716555490837       25.16527238354247       14.71470731489362
C           32.38488771148018       24.47639598775563       15.75464253607044
C           31.51543714654403       23.48422395419550       16.19952578559690
C           30.33493258069406       23.59897730848596       15.40840534736954
C           28.08866251968411       22.77939307266962       14.69489306738827
C           27.03359303943601       21.82246268588196       14.76914386324849
C           26.05901635461264       22.25966752237314       13.84398396874557
C           26.56152296659864       23.43034492976608       13.25425743455918
C           25.87313998788801       24.18154595796256       12.29593464669926
H           24.90114719685280       23.81761494466172       12.00419450453639
C           28.75418287316816       27.79136343743776       10.92572117208677
H           28.70887061454356       28.59601681998023       10.20954781507155
C           32.16937945300246       26.27983698550883       14.03846006144831
H           33.15375908203039       26.63255060545674       14.29727733145626
C           29.22644079970372       22.75506753117430       15.50422252248381
H           29.24761143954414       22.00595293734613       16.27603075143366
C           24.11233590046298       25.87185345161791       10.58933256297929
H           23.59116903817002       25.79249217835950       11.54680849382663
H           24.08410863780591       24.89490158958838       10.10035106379843
H           23.55605732104408       26.58187935146005        9.96033369384791
C           26.10010164065704       28.42862209267619        9.61870198567872
H           26.80403545104242       28.39414321667061        8.78399101885129
H           26.30222536207313       29.32763546592687       10.20510331037269
H           25.08706672263394       28.52123984166518        9.19750988478672
C           24.79032134716217       21.50483515103652       13.64177377559986
H           24.13527051079124       21.76651216788168       12.78736070739290
H           24.19021560134510       21.61371041906473       14.55132696277571
H           25.05966917984263       20.45005709768323       13.53271952533630
C           26.97283305624309       20.60762464031544       15.52992508891468
H           25.96211977376099       20.30192359869247       15.80273703735710
C           28.00670418381046       19.82004662543542       15.83958337097424
H           29.01351150219088       20.09127803854820       15.56256867101833
H           27.89917360511086       18.86708122601521       16.33677710886192
C           31.63338087297499       22.39931765038454       17.20891023509497
H           31.52523398182661       21.44131910342766       16.69448594135297
H           30.79975800814738       22.50882710982610       17.90842804807912
H           32.56527161529101       22.36104919549845       17.78937331015822
C           33.69901711072426       24.86631335074982       16.18014203658407
H           34.30706948357328       25.31747703877474       15.40010240943995
C           34.19283752834794       24.80254355388917       17.41822569000630
H           33.63130654126152       24.36371159430065       18.22423804567987
H           35.15842822744900       25.21397633550668       17.67006991347039
C           33.43685465213016       28.62522542617501       12.34151354156212
H           34.24718955848574       28.12050522706472       12.90677060363509
H           33.32138043912060       29.62491708126640       12.77197873522913
H           33.79321615867494       28.74056551954176       11.31170054263501
C           31.37986241620526       29.50030376496193       10.37639667307770
H           32.34459200696504       29.28515332869208        9.90486046078674
H           31.48196726930202       30.42988169031409       10.94522175177410
H           30.65812732120930       29.68734640434674        9.55727249225711
C           28.30231290241006       28.56309921109285       17.55433701069378
H           27.88028479413871       28.12050794958697       18.45527205744567
H           27.86088968714560       29.54876947903105       17.41343386016188
H           29.37357301491707       28.67425293319543       17.68991691164834
N           26.79178933754049       27.35403155262774       15.95078149683104
H           25.92352966256628       27.63775887353961       16.37467893239594
C           28.04826599902612       27.70170073503774       16.37476866079344
C           26.92745056114707       26.56610933057694       14.86119339557650
H           26.10115383031444       26.15008177095649       14.31998461708140
N           28.19550134556956       26.39530387903821       14.57358877240937
C           28.90392558329182       27.09792157020896       15.50021947354797
H           29.97435982993013       27.12223275194366       15.47659454514353
C           32.66075272014022       22.78241714013733        9.68405642467226
H           32.35192597065505       22.49358915452083        8.67978813144633
H           33.25885623844759       21.97489705690057       10.10508071070647
H           33.27377566004527       23.67504221991630        9.61868223001224
N           30.53095823037458       22.08405178179513       10.78473960827882
H           30.55454351684914       21.13926306014015       10.43549403050588
C           31.47444772112950       23.04533550651643       10.53293836827755
C           29.58453017717733       22.62985618348857       11.57917638474296
H           28.72756146982637       22.08572393307605       11.92270293501916
N           29.87126813207759       23.88190712156182       11.84524519461897
C           31.04175799127877       24.15299604132387       11.20199614660495
H           31.49059958281583       25.12285776653270       11.26488777016237
87
 energy: -128.346764469574 gnorm: 0.038968270117 xtb: 6.7.1 (edcfbbe)
Fe          29.00866600559029       25.22942362293888       13.17384526498493
N           27.58355608821244       25.86923327932196       11.86600710745757
N           30.21953985660941       26.72187323189477       12.58964841558641
N           30.44667471408385       24.62749377552916       14.51301528953710
N           27.79698528910797       23.73923335440091       13.76667682189293
C           26.32798945631687       25.35755732179280       11.71680820991133
C           25.53777628831494       26.19649449329615       10.86430124671889
C           26.35155231980847       27.23307431381600       10.47881981496507
C           27.62286152386133       27.00022621300065       11.10178550150702
C           29.97288277125254       27.62526304421951       11.58459689172780
C           31.11989581893496       28.41748722756828       11.34361478642466
C           32.08925045184679       28.00328779447609       12.25702931047172
C           31.50392503724664       26.96082846581840       13.01465420579865
C           31.67946860521178       25.16336660228097       14.70977268954180
C           32.37586109618947       24.47844143636685       15.76034457037029
C           31.49976111365244       23.48607217205696       16.20503544240129
C           30.33085634532072       23.60472808738682       15.40813145952341
C           28.09558839242439       22.77741933767076       14.68940247043575
C           27.04403193846328       21.81972067508465       14.76687193246182
C           26.05837211896268       22.25342245378251       13.85531461149640
C           26.55778292482309       23.42373323342236       13.25696743777310
C           25.87062908700964       24.18267532334439       12.30163803560087
H           24.89336327846567       23.82516745558031       12.01854198645809
C           28.75415860842302       27.78669192553670       10.92208317502735
H           28.69966971775031       28.59952638947489       10.21491814846228
C           32.17105100720264       26.27321812429507       14.02736824226827
H           33.15485230939617       26.63001916719577       14.28477202902053
C           29.22383445378328       22.76037364331882       15.50519715261164
H           29.23881122958250       22.01909680346504       16.28594175711468
C           24.11306258185360       25.87278409549755       10.58284891633502
H           23.55818718973768       25.79306427610742       11.52388717325112