72
 energy: -105.980474737812 gnorm: 0.000143637529 xtb: 6.7.1 (edcfbbe)
Fe         -16.70527920558107       -6.54387240344309       63.22604539548951
N          -16.07575743000659       -7.44311996824713       64.88612337579784
N          -14.89810378818662       -6.84307266324096       62.38186771861626
N          -17.30181571133382       -5.56176724677956       61.56841301068332
N          -18.46824372260379       -6.18224144752808       64.07189298342186
C          -16.80069525680270       -7.67225088942297       66.00883870292759
C          -16.00288681794423       -8.35627770456533       67.00424822773007
C          -14.77060844819501       -8.52234350800394       66.45652264347703
C          -14.83661077964012       -7.94611813956769       65.13040453162003
C          -13.81574368221121       -7.43976522395169       62.95694329126945
C          -12.71488552259204       -7.50120679416763       62.03329240243959
C          -13.15620386647150       -6.93137998960862       60.86718770739656
C          -14.52007408525570       -6.51343295565863       61.11671296294081
C          -16.60178015565854       -5.41387745524288       60.40719491069243
C          -17.37960112396484       -4.69905849829468       59.42993445776533
C          -18.57968498879944       -4.41403121786728       60.02689561047064
C          -18.50559517218498       -4.96797123358792       61.36244400117319
C          -19.51594483936397       -5.51020830322803       63.52976990168648
C          -20.63784907401551       -5.48614266608977       64.44493828547387
C          -20.24179188449884       -6.17063571578883       65.54920227906453
C          -18.88052060545139       -6.59413773342733       65.29690992630768
C          -18.11616802102151       -7.29887102735762       66.20455776071206
H          -18.57252107195444       -7.55727335623209       67.14738058379817
C          -13.77803613330483       -7.94636532076838       64.24509352195597
H          -12.85366410085179       -8.39352445351576       64.57584355091642
C          -15.31506051648078       -5.87261452821929       60.18545486366143
H          -14.89402913462436       -5.70626154823278       59.20645182575279
C          -19.54292850041961       -4.93435948880984       62.27525820520564
H          -20.45459544066012       -4.44241686717516       61.97477417852679
C          -13.55448331307306       -9.15784769153469       67.03681784510999
H          -13.74846765054988       -9.51176404836132       68.04612129687595
H          -12.73184917550041       -8.44371052233393       67.07647668259914
H          -13.23707890845330      -10.00691522133449       66.43062617684521
C          -16.50270024670673       -8.75889054489228       68.34840519871115
H          -17.36215563853133       -9.42301672981519       68.25503819943275
H          -16.81256396762316       -7.88277633599210       68.91812171903425
H          -15.72892481176691       -9.27647817304321       68.90989349950681
C          -11.35969888479005       -8.02799858675868       62.35097936408992
H          -11.33294773394424       -9.11552565928239       62.26323387586949
H          -11.07314944924295       -7.76499632850486       63.36808866192753
H          -10.62720966874889       -7.61051736046667       61.66318449972128
C          -12.44469834044775       -6.72549106827569       59.62478086908794
H          -12.70421892032670       -5.82606749708359       59.07851031862270
C          -11.52856574868304       -7.54436732132969       59.11919578747945
H          -11.26587366411847       -8.47382661274433       59.59348549212726
H          -11.02640532033987       -7.32302401613356       58.19227184596025
C          -16.90138887367855       -4.30267062005237       58.07736197426844
H          -17.00109953306879       -5.12940945005477       57.37220647115337
H          -15.85259554847330       -4.01076523453708       58.10759009301192
H          -17.48562291145597       -3.46288427496884       57.70699711019976
C          -19.71609108306837       -3.69088997174060       59.49927745225899
H          -20.26985234396763       -3.10028878202201       60.21991410099839
C          -20.11864629270143       -3.70839334808009       58.23327037213473
H          -19.63660685405260       -4.31545005054911       57.48705464783763
H          -20.96896622062226       -3.13410591317269       57.90520791206139
C          -21.94125713187507       -4.82491770364421       64.15742659458047
H          -22.40393694408852       -5.26125352472066       63.27206695975084
H          -21.79888951876135       -3.75950833431066       63.97519751309866
H          -22.62562984461177       -4.94026995872160       64.99406465518157
C          -20.99217247709057       -6.46109950866528       66.80265555128203
H          -21.99677087151976       -6.04839936963360       66.75614902264989
H          -20.48200072013387       -6.02749201145818       67.66292833876950
H          -21.06968279967724       -7.53675959922520       66.96123912013628
O          -15.92729101961460       -4.56251434046811       63.93252187690490
H          -15.05538335685299       -4.55186174549835       63.52108653019368
H          -16.48490025102084       -3.95532783880459       63.43272999972953
C          -16.46528146890829       -9.91299652245974       62.81900502370201
H          -16.63188278309149      -10.76800530581639       62.17103278147169
H          -16.76908137369273      -10.14671187514046       63.83402226094338
H          -15.42524868968644       -9.60575926353170       62.80858782411912
S          -17.52018337060127       -8.52770867957835       62.26457472434179
H          -16.92386719472756       -8.39274470723043       61.07500293924568
