72
 energy: -105.827575490334 gnorm: 0.348564469694 xtb: 6.7.1 (edcfbbe)
Fe         -16.61900000000000       -6.43300000000000       63.13000000000000
N          -16.04700000000000       -7.38400000000000       64.80000000000000
N          -14.80900000000000       -6.70400000000000       62.33199999999999
N          -17.20700000000000       -5.46200000000000       61.45699999999999
N          -18.43900000000000       -6.15500000000000       63.98600000000000
C          -16.77400000000000       -7.64300000000000       65.94199999999999
C          -16.01500000000000       -8.36700000000000       66.91800000000001
C          -14.78700000000000       -8.55300000000000       66.40000000000001
C          -14.79500000000000       -7.93600000000000       65.05300000000000
C          -13.69500000000000       -7.35500000000000       62.90900000000000
C          -12.58300000000000       -7.34700000000000       62.01500000000000
C          -12.95800000000000       -6.70100000000000       60.89200000000000
C          -14.37200000000000       -6.29600000000000       61.08600000000000
C          -16.48200000000000       -5.22000000000000       60.34499999999999
C          -17.25600000000000       -4.50500000000000       59.36200000000000
C          -18.48000000000000       -4.30600000000000       59.91700000000000
C          -18.45100000000000       -4.91200000000000       61.23799999999999
C          -19.51000000000000       -5.49200000000000       63.38600000000000
C          -20.62700000000000       -5.52500000000000       64.37600000000000
C          -20.25300000000000       -6.16600000000000       65.48000000000000
C          -18.84300000000000       -6.56600000000000       65.21899999999999
C          -18.10200000000000       -7.25600000000000       66.13700000000000
H          -18.57700000000000       -7.52100000000000       67.08100000000000
C          -13.71600000000000       -7.90900000000000       64.15300000000001
H          -12.79400000000000       -8.38400000000000       64.48800000000000
C          -15.15000000000000       -5.60400000000000       60.15400000000000
H          -14.68300000000000       -5.34300000000000       59.20400000000000
C          -19.51300000000000       -4.93700000000000       62.15600000000000
H          -20.43900000000000       -4.45700000000000       61.84100000000000
C          -13.59300000000000       -9.25600000000000       67.01800000000000
H          -13.91100000000000       -9.78500000000000       67.94100000000000
H          -12.81300000000000       -8.51000000000000       67.28100000000001
H          -13.18200000000000       -9.99800000000000       66.30100000000000
C          -16.48100000000000       -8.87000000000000       68.31200000000000
H          -16.73200000000000       -9.95100000000000       68.25100000000000
H          -17.38400000000000       -8.30800000000000       68.63100000000000
H          -15.66500000000000       -8.73100000000000       69.05300000000000
C          -11.23800000000000       -7.98400000000000       62.35700000000000
H          -11.38000000000000       -9.06900000000000       62.55000000000000
H          -10.81800000000000       -7.50800000000000       63.26800000000000
H          -10.53600000000000       -7.85900000000000       61.50500000000000
C          -12.15500000000000       -6.38300000000000       59.59399999999999
H          -12.00600000000000       -5.36600000000000       59.20700000000000
C          -11.55900000000000       -7.63700000000000       58.85900000000000
H          -11.71800000000000       -8.64800000000000       59.26199999999999
H          -10.97600000000000       -7.51700000000000       57.93399999999999
C          -16.74400000000000       -4.08000000000000       57.99000000000000
H          -16.27200000000000       -4.95000000000000       57.48500000000000
H          -15.98700000000000       -3.27500000000000       58.10499999999999
H          -17.59100000000000       -3.71900000000000       57.36899999999999
C          -19.71400000000000       -3.60100000000000       59.35899999999999
H          -19.93300000000000       -2.53500000000000       59.49600000000000
C          -20.64200000000000       -4.53600000000000       58.57100000000000
H          -20.39200000000000       -5.60100000000000       58.45200000000000
H          -21.56700000000000       -4.15100000000000       58.11700000000000
C          -22.01300000000000       -4.86100000000000       64.04800000000000
H          -22.45000000000000       -5.34100000000000       63.14699999999999
H          -21.87200000000000       -3.77800000000000       63.84600000000000
H          -22.70800000000000       -5.00000000000000       64.90400000000000
C          -21.06700000000000       -6.42100000000000       66.70699999999999
H          -22.14000000000000       -6.50300000000000       66.43000000000001
H          -20.94300000000000       -5.57900000000000       67.42100000000001
H          -20.74300000000000       -7.37200000000000       67.18100000000000
O          -15.74800000000000       -4.52500000000000       64.26400000000000
H          -15.42800000000000       -4.84300000000000       65.10800000000000
H          -15.72000000000000       -3.68500000000000       63.97400000000000
C          -17.08200000000000       -9.85100000000000       63.08599999999999
H          -17.42800000000000      -10.80700000000000       62.63800000000000
H          -17.71900000000000       -9.63700000000000       63.97100000000000
H          -16.03100000000000       -9.98900000000000       63.42000000000000
S          -17.18700000000000       -8.48900000000000       61.89500000000000
H          -16.19800000000000       -8.92800000000000       61.13000000000000
72
 energy: -105.932257565939 gnorm: 0.161545856059 xtb: 6.7.1 (edcfbbe)
Fe         -16.60714932527422       -6.43871397904378       63.13210285772294
N          -16.03824571588776       -7.39422453226931       64.81600314364954
N          -14.78776451406292       -6.69435483798967       62.32140483878978
N          -17.21053229956198       -5.44955925165129       61.46368660377063
N          -18.44248331211724       -6.15558859556901       63.98315175610350
C          -16.77732836358666       -7.64601229466695       65.94377674248562
C          -16.01135519534702       -8.37032870923660       66.92367996048804
C          -14.77589327008690       -8.55390100486548       66.38787897455138
C          -14.79530178887645       -7.93791641745706       65.05824929674843
C          -13.70521900366283       -7.34610916858207       62.90226085877612
C          -12.57995635190463       -7.34699490135247       62.00323018244099
C          -12.95459076915952       -6.69831393479200       60.86123190005352
C          -14.35913747437288       -6.28779684494769       61.08291231722767
C          -16.47833786071605       -5.21975788047862       60.34556417597553
C          -17.26188918263422       -4.50007323331860       59.36128944041332
C          -18.49815731311053       -4.30404304908147       59.91532729914378
C          -18.44976052982893       -4.90874062074649       61.23985318370493
C          -19.50862377303658       -5.49925190207230       63.40066778140505
C          -20.63991149307367       -5.50875024425346       64.34955426633853
C          -20.25140820040198       -6.16055186454452       65.46272453804842
C          -18.85196215017622       -6.56095010377578       65.21310180941758
C          -18.10053424301111       -7.25599209028891       66.13227816656732
H          -18.57164323427777       -7.51869969488716       67.07255553776093
C          -13.72437673472248       -7.90964826382709       64.16199465791364
H          -12.80362192999431       -8.38227264507238       64.49206142767900
C          -15.14748014930035       -5.60647394169179       60.15924277944620
H          -14.68494758161616       -5.34700183318569       59.21279650937725
C          -19.51034341503864       -4.93598212811366       62.15196816866762
H          -20.43236634030794       -4.45823710327915       61.83501840147471
C          -13.59844750239859       -9.25172397133324       67.00994128016656
H          -13.90536404478710       -9.77621127371581       67.92384976125811
H          -12.81993446425686       -8.52309509929599       67.27378108000487
H          -13.18169241932471       -9.98723889498891       66.31128789469193
C          -16.47796236298049       -8.86163972408697       68.29153155261770
H          -16.72791574348756       -9.93169846739201       68.24750388548621
H          -17.36725731312932       -8.31567532372630       68.62655817091860
H          -15.68131747510730       -8.72955985205348       69.03557597929297
C          -11.25014920723968       -7.97794440200872       62.35006806259167
H          -11.37806132967838       -9.05191350106819       62.54657020980052
H          -10.82510551996913       -7.51438171774192       63.25125339184195
H          -10.54701489343517       -7.85756951249740       61.51747668263439
C          -12.15138572377398       -6.47581771859834       59.59106908259261
H          -12.01434167920066       -5.44718953288076       59.22132830668798
C          -11.58800004510386       -7.57008713552754       58.90158110301665
H          -11.72825548774841       -8.58929520577609       59.26665700439146
H          -11.00704834651081       -7.48310258420815       57.97916289481113
C          -16.75164880303021       -4.08444855930134       58.00242321709255
H          -16.28012031987244       -4.93634371067193       57.49328995706176
H          -16.00111079754688       -3.28722889490405       58.10239054806857
H          -17.57957030396360       -3.72221725715799       57.38132864159024
C          -19.73328622444337       -3.67734865945048       59.32520785792043
H          -19.93336158008035       -2.60710090148848       59.47743616114293
C          -20.60289284192317       -4.49170473661623       58.60485151021666
H          -20.38114631096702       -5.55134937490404       58.47104243050486
H          -21.52652130719642       -4.13620898238661       58.14527368264898
C          -21.99663135880060       -4.86913906950393       64.04766310323099
H          -22.43997602432707       -5.33528659900708       63.15889211609775
H          -21.87162029382563       -3.79705213431221       63.85114326420034
H          -22.68962280588318       -4.99704787891065       64.88903316117306
C          -21.05791611794369       -6.42189463064285       66.69643318325802
H          -22.12211923903858       -6.50294794868419       66.43725334705574
H          -20.94350330168082       -5.59572885014595       67.41339512781785
H          -20.74916116516044       -7.35782265173875       67.17838564601531
O          -15.76139829283967       -4.55871742592716       64.25678357727912
H          -15.42773083197947       -4.83951741427128       65.10706529464906
H          -15.71846980677127       -3.66587618893529       63.96996260621248
C          -17.07813723064187       -9.86654076895503       63.09357441755712
H          -17.42655511286181      -10.80018428032259       62.63713058226676
H          -17.71009127125150       -9.63314701700698       63.95755345961452
H          -16.03986277100908       -9.98345003623686       63.42183843496828
S          -17.21184347420762       -8.50203342197579       61.90425764501203
H          -16.19812733947424       -8.91527761860202       61.14062710839710
72
 energy: -105.952914009716 gnorm: 0.152384459114 xtb: 6.7.1 (edcfbbe)
Fe         -16.59949837045399       -6.43539975120417       63.13307365823108
N          -16.03162464751892       -7.40397672611215       64.82486110916817
N          -14.76706942328102       -6.68731675902135       62.31250860034817
N          -17.20988954197359       -5.43499598169128       61.47148293584412
N          -18.44965736751039       -6.15445546470657       63.97880794453617
C          -16.77946285332048       -7.64833950023505       65.94105666827910
C          -16.00615444253475       -8.37305747813610       66.92461537131251
C          -14.76840265691517       -8.55359294280901       66.37417681407123
C          -14.79717686518971       -7.93863790076197       65.05921305722484
C          -13.71534851205613       -7.33258935763658       62.89787862501478
C          -12.58236283682002       -7.35583308805411       61.99368911704210
C          -12.95838827555389       -6.71319340179298       60.83854512886082
C          -14.34832759155027       -6.28751609966788       61.07801864490012
C          -16.47086651377439       -5.21165856913028       60.35135012792040
C          -17.26794822027746       -4.50370211180601       59.36235236246654
C          -18.50898431179681       -4.31483443020692       59.91459274919612
C          -18.44558721175964       -4.90969117176964       61.24405169686518
C          -19.50614415263458       -5.50492201961425       63.41021548100262
C          -20.64407948927237       -5.49804480325662       64.32536002692976
C          -20.24544530181173       -6.15824148865581       65.44582359009095
C          -18.86239792789180       -6.55791135870948       65.20759433965695
C          -18.09790505177528       -7.25647814843803       66.12453211094422
H          -18.56496587248837       -7.51672524387447       67.06307946362134
C          -13.73120511197973       -7.90537535850101       64.16682711165737
H          -12.81321877611169       -8.37843028224662       64.49172454833004
C          -15.14451113177307       -5.60424735360093       60.16582521264066
H          -14.68762690406560       -5.35007549236171       59.21921884612813
C          -19.50555461535167       -4.93496984086750       62.14738510075605
H          -20.42455615729276       -4.46067316675624       61.82754948347078
C          -13.60243963901516       -9.24717239864461       66.99895852283116
H          -13.90591085096248       -9.76670464849228       67.90647579420614
H          -12.82327153602298       -8.53054658603433       67.26346188963753
H          -13.17840001350419       -9.97952317179292       66.31398601477616
C          -16.47168184316602       -8.85293062621953       68.26871813801935
H          -16.72344465403994       -9.91599738580891       68.23482603416424
H          -17.35266561932820       -8.31495961555657       68.61101974915597
H          -15.68858435016884       -8.72488101644421       69.01665977635157
C          -11.26273117064992       -7.97308470352229       62.34025542969381
H          -11.38049150685831       -9.03950495466500       62.54100416152381
H          -10.83850196258911       -7.51363126740377       63.23533195586506
H          -10.55711529171347       -7.85310199964866       61.52162046144489
C          -12.15680418934875       -6.54583732211852       59.59722531891983
H          -12.03686250462588       -5.51259884409091       59.24085710437702
C          -11.63879681617918       -7.51504421335272       58.95946655141307
H          -11.74458035659027       -8.54803498808655       59.28374652201766
H          -11.04732434733629       -7.43350653377150       58.04786226879731
C          -16.76287203701104       -4.08907203603510       58.01587200512559
H          -16.29058264400488       -4.92912730258351       57.50498680780188
H          -16.01601554457547       -3.29693238774228       58.10797432106494
H          -17.57834007509633       -3.72391629307115       57.39514305990338
C          -19.74052814594515       -3.74053788865998       59.30544887322225
H          -19.91967765878674       -2.66969618778651       59.46967313625294
C          -20.55621325641264       -4.46385275595831       58.63707402832392
H          -20.37082348169402       -5.52235692417443       58.48474973613229
H          -21.47657717036272       -4.11676655973183       58.17785350847759
C          -21.97354845397525       -4.87681991074844       64.04179847532168
H          -22.42891922077207       -5.33181855000124       63.16190985335077
H          -21.86655765272384       -3.80887110558725       63.85116011866531
H          -22.66002861635773       -5.00093060697185       64.87845839953707
C          -21.04794376990251       -6.42203939376405       66.68300190407759
H          -22.10653423971242       -6.50229688786681       66.43631412427725
H          -20.93588209890022       -5.60697721204542       67.40220216862549
H          -20.74632384287763       -7.34782580042139       67.16851234236667
O          -15.78610811773378       -4.58968491127504       64.23820217508042
H          -15.42788829414255       -4.82271996841023       65.09701214439902
H          -15.71537737695057       -3.67188870421635       63.97515076041520
C          -17.07713920401789       -9.88111197878529       63.10243773946671
H          -17.42347957917265      -10.79938384204377       62.63767572517679
H          -17.70532064439048       -9.63327264505900       63.95170469527334
H          -16.04620745196102       -9.97668770051262       63.42425848339132
S          -17.23974214552751       -8.50975661246850       61.91479271506388
H          -16.19940249015856       -8.88971026680166       61.15474707950170
72
 energy: -105.963927882453 gnorm: 0.026148270941 xtb: 6.7.1 (edcfbbe)
Fe         -16.60208805982122       -6.44251454722312       63.13401672553827
N          -16.03123486217201       -7.40622002370603       64.82147520576895
N          -14.76872366705161       -6.67790429213828       62.32426667769316
N          -17.19686087297140       -5.42671291665055       61.48586749661968
N          -18.44732929298054       -6.15669568551905       63.97277321043681
C          -16.77901579400543       -7.65004443727837       65.93502539767786
C          -16.00234885302964       -8.37183903062888       66.91619629280176
C          -14.76651249255938       -8.55360770627546       66.36748147718403
C          -14.79791973906854       -7.93793234528257       65.05748670692471
C          -13.72107371075412       -7.32903161475849       62.90577140879685
C          -12.59334626525126       -7.36071473504667       62.00112660551902
C          -12.97885858953416       -6.71674897715429       60.85810160229704
C          -14.35468494760971       -6.28399291805411       61.08956731457983
C          -16.46138392950674       -5.20678048717239       60.36383513015175
C          -17.25901748579632       -4.51060126785464       59.37208101576427
C          -18.49222595952392       -4.32675527923018       59.92651313275851
C          -18.43335891410096       -4.91183972683665       61.25374010179113
C          -19.50037369637202       -5.50597520401992       63.40459376333133
C          -20.63629935021485       -5.49893610196065       64.31403655056975
C          -20.24018234903297       -6.15940287815817       65.43380387898533
C          -18.86113412080199       -6.56033272074882       65.20035339388257
C          -18.09643329891527       -7.25834323090335       66.11657181521875
H          -18.56224533034640       -7.51580997153872       67.05568567548808
C          -13.73282136379109       -7.90363704454461       64.17000070950819
H          -12.81667569470703       -8.37754461674589       64.49459190921903
C          -15.14134183024680       -5.60084547459236       60.17459828446140
H          -14.68584862327972       -5.35472795644720       59.22553494179222
C          -19.49834963801319       -4.93554272398892       62.14477457902790
H          -20.41610628065033       -4.46445311756043       61.81743224704625
C          -13.59917717078347       -9.24471522093513       66.98770894319144
H          -13.90499634769891       -9.76194540387137       67.89416674859538
H          -12.81934377453663       -8.52957691801224       67.25097355551051
H          -13.17170417043359       -9.97719248483738       66.30576285800811
C          -16.46867373442965       -8.84669815468066       68.25556201684911
H          -16.72163246811553       -9.90804503493634       68.21920121778216
H          -17.34736402533497       -8.30532162864897       68.59448620648566
H          -15.68640541699178       -8.71709789631618       69.00172279236494
C          -11.27162007577232       -7.97112899125276       62.33472518773537
H          -11.38273906737919       -9.03739953937450       62.53448377869711
H          -10.84892535358862       -7.50895277428918       63.22734440942317
H          -10.56899196060284       -7.84409627357249       61.51541328876336
C          -12.20313970761788       -6.52976873410948       59.63061700637935
H          -12.08531588767295       -5.50885591545853       59.27231394304092
C          -11.62577824724486       -7.53366923218255       58.96489187339338
H          -11.74602967361035       -8.56094785759001       59.28190683743348
H          -11.04754706717777       -7.40520329600417       58.06048286102011
C          -16.76833034086138       -4.09333652879004       58.02515228640996
H          -16.29860226722796       -4.93119661364064       57.51090752586686
H          -16.02440669477802       -3.30021274447454       58.11555320876602
H          -17.58799098040586       -3.72662702949968       57.41200200917175
C          -19.70683375715841       -3.74774766034656       59.32582421454753
H          -19.88601232747403       -2.68627477773958       59.48529912394881
C          -20.56391641210147       -4.47870246654456       58.62843234190071
H          -20.38296536494628       -5.53303123397312       58.47496871462469
H          -21.46920571044033       -4.09512341892275       58.18286485432502
C          -21.96168474824575       -4.87760670163812       64.03060670004002
H          -22.41915153466709       -5.33178584734091       63.15220551374377
H          -21.85577533115726       -3.80978384012105       63.84434401660504
H          -22.63798463547144       -5.00608311007782       64.87284795680881
C          -21.03849973041992       -6.42246750235042       66.67063314109751
H          -22.09726954363477       -6.50167483238195       66.42960696063206
H          -20.92205248219648       -5.61082431402388       67.39122886913616
H          -20.73688813333377       -7.34744047079764       67.15594938893649
O          -15.81345806127563       -4.60045409057316       64.22811697528712
H          -15.43142623921219       -4.82045577380276       65.08148299300335
H          -15.72134212863022       -3.68614866124169       63.96125333224447
C          -17.08128991141077       -9.88931865530398       63.10908546916787
H          -17.41689809911183      -10.81038626666292       62.64147619963125
H          -17.70913512431329       -9.64435320820339       63.95833335383659
H          -16.04695365788342       -9.96547488795789       63.42882638225534
S          -17.28126384533665       -8.51586880028853       61.92721655293162
H          -16.20948377720557       -8.84751817521183       61.18171513957312
72
 energy: -105.967388861193 gnorm: 0.020966250882 xtb: 6.7.1 (edcfbbe)
Fe         -16.60474657993547       -6.43879381490858       63.13893244877475
N          -16.03094251131770       -7.41073207815966       64.81481665202550
N          -14.77432670042121       -6.67859098908614       62.33574602382218
N          -17.18392463448358       -5.42348316201562       61.49977120860559
N          -18.44369363370925       -6.16070170322468       63.96628652131073
C          -16.77804747758966       -7.65401416422242       65.92634255559017
C          -15.99830660706970       -8.37280426540272       66.90760102654860
C          -14.76373710634370       -8.55486767716470       66.35909115453967
C          -14.79938962395787       -7.93990853756944       65.05352518463198
C          -13.72908190951350       -7.32935903976360       62.91261410886337
C          -12.60419214086062       -7.37039257431882       62.00793401382536
C          -12.99521162541537       -6.72424920448338       60.87051210295083
C          -14.35920018591119       -6.28338729428111       61.10396770932117
C          -16.44968209947102       -5.20255931269563       60.37765599478558
C          -17.24919811371507       -4.51781659542610       59.38245089086114
C          -18.48046250432234       -4.34209936846255       59.93506337163161
C          -18.42005138346412       -4.91715194553149       61.26285753392871
C          -19.49297585957448       -5.51090583707232       63.39949773031139
C          -20.62759248269572       -5.50174244798707       64.30082277653641
C          -20.23344475218098       -6.16480382494519       65.42114839667929
C          -18.86006792220992       -6.56651632958498       65.19228853343505
C          -18.09381047311682       -7.26409240506046       66.10716524254028
H          -18.55890936448650       -7.51983328799449       67.04665166667574
C          -13.73295991535860       -7.90539114673400       64.17327193327199
H          -12.81682184233650       -8.37732610666756       64.49718421109552
C          -15.13517781699221       -5.59651899814898       60.18665272533583
H          -14.67931296286809       -5.35737083843103       59.23636166909857
C          -19.49031378715510       -4.93843374615231       62.14073318269952
H          -20.40647439053995       -4.47152720286798       61.80514548408057
C          -13.59333589475485       -9.24297425211571       66.97331803213531
H          -13.89728974762811       -9.75958167903154       67.88020003685590
H          -12.81300037541020       -8.52629687898101       67.23168496887612
H          -13.16565321024376       -9.97443548373689       66.28989865042877
C          -16.46600654492295       -8.84125460035325       68.24350121799921
H          -16.72334026375513       -9.90135766174715       68.20632572631095
H          -17.34276994285459       -8.29278982189008       68.57547430437984
H          -15.68344298877350       -8.71162062155518       68.98914982707699
C          -11.28039537801497       -7.97242404363859       62.33037759812764
H          -11.38085846839837       -9.04063877296709       62.52449922147268
H          -10.85905961395902       -7.50781362704996       63.22229370562024
H          -10.58626933853355       -7.83235160117846       61.50573538902984
C          -12.22973104810088       -6.53008787725091       59.65111489518947
H          -12.14414946479595       -5.51412483403985       59.28079064756609
C          -11.65832457930246       -7.52716469031804       58.98169083032656
H          -11.74073957086401       -8.55122152897326       59.31155652628336
H          -11.06360674281033       -7.36301128194624       58.09695175479109
C          -16.77187994090914       -4.09844470715918       58.03514960014701
H          -16.30709436919038       -4.93463654918731       57.51427897406418
H          -16.03019493547753       -3.30318346507515       58.12301577926830
H          -17.60162428363745       -3.73163089114801       57.43549867555225
C          -19.68531690816518       -3.76295771828473       59.33681675886368
H          -19.85693945889415       -2.70434914115460       59.50087515998724
C          -20.55096045575651       -4.48481126706938       58.63287583905259
H          -20.38836784073245       -5.53992179571519       58.47106853984290
H          -21.44283706288827       -4.06726357782136       58.19474808479531
C          -21.94828753802433       -4.87744767320893       64.01569393998882
H          -22.40671050012989       -5.32844243828204       63.13590994119932
H          -21.84085356202963       -3.80929201221331       63.83082844269746
H          -22.62050715150854       -5.00860428464190       64.86040952944717
C          -21.02802585225819       -6.42622491606913       66.65752206419424
H          -22.08754562271048       -6.50086349960455       66.42001428985118
H          -20.90125426780519       -5.61578467418624       67.37753380034383
H          -20.72410429520445       -7.35341383037956       67.13687625141016
O          -15.88436893159052       -4.60600852208544       64.22567161933829
H          -15.42228296832202       -4.81052816767996       65.05141830601742
H          -15.71359391634889       -3.70303365087778       63.93299519663221
C          -17.08840318199983       -9.89369231891300       63.12366038266783
H          -17.40324322002350      -10.81771026469540       62.64712140093967
H          -17.71750734718870       -9.67106944296665       63.97742792322673
H          -16.05049663006785       -9.94716164201025       63.43622718832219
S          -17.31859721763949       -8.50690039215554       61.95611231357637
H          -16.23097296135802       -8.78810000227935       61.20859461232652
72
 energy: -105.967827404188 gnorm: 0.048537477477 xtb: 6.7.1 (edcfbbe)
Fe         -16.61456510192369       -6.43864394171742       63.14578865158794
N          -16.03086688366687       -7.41224787703811       64.80734259837290
N          -14.78533301483837       -6.67605172344677       62.35676071909697
N          -17.17109487012866       -5.42461796316139       61.51801894247586
N          -18.43790343190177       -6.16747904129393       63.95786197752421
C          -16.77671783838228       -7.65763120132040       65.91733285449395
C          -15.99540457288403       -8.37445910721449       66.89922464090687
C          -14.76218580744676       -8.55655087373006       66.35184287474587
C          -14.80125435665286       -7.94155700710359       65.05003863601794
C          -13.73913199526476       -7.33100784512171       62.92313687430266
C          -12.61818178859781       -7.37991274534907       62.01838900603479
C          -13.01674302787244       -6.73041841487184       60.88640036856496
C          -14.36837790359058       -6.28263413698135       61.12566795032209
C          -16.43858012191367       -5.19929586913265       60.39564285720190
C          -17.23761981125563       -4.52465278620648       59.39707595768378
C          -18.46913861494583       -4.35930851555001       59.94576856203816
C          -18.40638564898714       -4.92531188774977       61.27446627585398
C          -19.48437775914286       -5.51775488457882       63.39366298359382
C          -20.61782860039013       -5.50707639721713       64.28729958893518