87
 energy: -128.380838980673 gnorm: 0.234092565484 xtb: 6.7.1 (edcfbbe)
Fe          17.43600000000000       36.63200000000000       62.33499999999999
N           16.18200000000000       35.00999999999999       62.47699999999999
N           17.53700000000000       36.38600000000000       60.24999999999999
N           18.72500000000000       38.22500000000000       62.15700000000000
N           17.31000000000000       36.88300000000000       64.41600000000000
C           15.66600000000000       34.46700000000000       63.63300000000000
C           14.80600000000000       33.36600000000000       63.26900000000000
C           14.83700000000000       33.23900000000000       61.93500000000000
C           15.71300000000000       34.26600000000000       61.40700000000000
C           16.94700000000000       35.35599999999999       59.55300000000000
C           17.45300000000000       35.39999999999999       58.19100000000000
C           18.31000000000000       36.43400000000000       58.10499999999999
C           18.38100000000000       37.06900000000000       59.40299999999999
C           19.24500000000000       38.75100000000000       60.98100000000000
C           19.88700000000000       40.01700000000000       61.29000000000000
C           19.74500000000000       40.22400000000000       62.60600000000000
C           19.00500000000000       39.10600000000000       63.18900000000000
C           17.86600000000000       37.95900000000000       65.09699999999999
C           17.49400000000000       37.85500000000000       66.50000000000000
C           16.64900000000000       36.59300000000000       66.59699999999999
C           16.59200000000000       36.05200000000000       65.26300000000001
C           15.90900000000000       34.91399999999999       64.91600000000000
H           15.52100000000000       34.30399999999999       65.73200000000000
C           16.02000000000000       34.47300000000000       60.07800000000000
H           15.46800000000000       33.87000000000000       59.35699999999999
C           19.15700000000000       38.16600000000000       59.73000000000000
H           19.75200000000000       38.60900000000000       58.93200000000000
C           18.64600000000000       38.95000000000000       64.51900000000001
H           19.02800000000000       39.70800000000000       65.20200000000000
C           14.06200000000000       32.19800000000000       61.09000000000000
H           13.15700000000000       32.67300000000000       60.65499999999999
H           13.74900000000000       31.34900000000000       61.73500000000000
H           14.70700000000000       31.82900000000000       60.26400000000000
C           14.02000000000000       32.49200000000000       64.28000000000000
H           13.76500000000000       33.09900000000000       65.17500000000000
H           14.64500000000000       31.63000000000000       64.59600000000000
H           13.08100000000000       32.12900000000000       63.81100000000000
C           17.06600000000000       34.42100000000000       57.05299999999999
H           16.30500000000000       34.89600000000000       56.39800000000000
H           16.63800000000000       33.49200000000000       57.48600000000000
H           17.96400000000000       34.17800000000000       56.44499999999999
C           19.14000000000000       36.92400000000000       56.89800000000000
H           20.17200000000000       37.27200000000000       57.05100000000000
C           18.65500000000000       36.94600000000000       55.65400000000000
H           17.62800000000000       36.60799999999999       55.44900000000000
H           19.27600000000000       37.30200000000000       54.81900000000000
C           20.59100000000000       40.95300000000000       60.26400000000000
H           19.82700000000000       41.55100000000000       59.72300000000000
H           21.15900000000000       40.34400000000000       59.52900000000000
H           21.27900000000000       41.64400000000000       60.79699999999999
C           20.26800000000000       41.45000000000000       63.37300000000000
H           20.02500000000000       42.47200000000000       63.04700000000000
C           21.02900000000000       41.27600000000000       64.45099999999999
H           21.28500000000000       40.26300000000000       64.79600000000001
H           21.41100000000000       42.14300000000000       65.01100000000000
C           17.84300000000000       38.79000000000000       67.69300000000000
H           17.78700000000000       39.84900000000000       67.36300000000000
H           18.87400000000000       38.57700000000000       68.04799999999999
H           17.11700000000000       38.63200000000000       68.51900000000001
C           15.99900000000000       36.00400000000000       67.85799999999999
H           14.92300000000000       36.28100000000000       67.88499999999999
H           16.49800000000000       36.41100000000000       68.76299999999999
H           16.08600000000000       34.89700000000000       67.84300000000000
C           22.26000000000000       33.88600000000000       63.87400000000000
H           22.96800000000000       33.70100000000000       63.03899999999999
H           22.11400000000000       32.94100000000000       64.43899999999999
H           22.68600000000000       34.66499999999999       64.54100000000000
N           20.19500000000000       33.59100000000000       62.45300000000000
H           20.45600000000000       32.68200000000000       62.12899999999999
C           20.94400000000000       34.35500000000000       63.32099999999999
C           19.09500000000000       34.24700000000000       62.12600000000000
H           18.32900000000000       33.87000000000000       61.44900000000000
N           19.09900000000000       35.41000000000000       62.75500000000000
C           20.24700000000000       35.50300000000000       63.50800000000000
H           20.45900000000000       36.38000000000000       64.10700000000000
C           14.68600000000000       41.01900000000000       60.32200000000000
H           14.95900000000000       41.94500000000000       60.87100000000000
H           13.59100000000000       41.02000000000000       60.13500000000000
H           15.23600000000000       40.99700000000000       59.35699999999999
N           14.53800000000000       39.59200000000000       62.39300000000000
H           13.86400000000000       40.17400000000000       62.84800000000000
C           15.05600000000000       39.82900000000000       61.13900000000000
C           15.07100000000000       38.48799999999999       62.88399999999999
H           14.82700000000000       38.06499999999999       63.85699999999999
N           15.92900000000000       38.00900000000000       62.00100000000000
C           15.93900000000000       38.83100000000000       60.90100000000000
H           16.57600000000000       38.62700000000000       60.04999999999999
87
 energy: -128.434836154210 gnorm: 0.100976934373 xtb: 6.7.1 (edcfbbe)
Fe          17.44454924555268       36.63836916137139       62.33763019735500
N           16.18550229807003       35.01987462361956       62.47385353208654
N           17.57488637629432       36.36005657320810       60.26614630822043
N           18.70215805932757       38.24240137890224       62.15944660023351
N           17.30004712566586       36.89614695375692       64.39625232705586
C           15.67151014778113       34.47515950225918       63.62231511613733
C           14.80845945114048       33.35933156295076       63.27869131462491
C           14.82912644333534       33.23791292457494       61.92845295143101
C           15.70408704091498       34.28189202748776       61.41706023008957
C           16.95888076521312       35.36907685996474       59.55007485036846
C           17.44469484940737       35.40366671662006       58.17800766476927
C           18.32596136557924       36.44113615311835       58.09233086702569
C           18.39595993144269       37.04552052360886       59.41210493115903
C           19.23892231953431       38.75371903749362       61.00017039490976
C           19.88842863047376       40.02112830492366       61.29096230107893
C           19.74218834927020       40.23879031090669       62.62390744815593
C           19.00259864110529       39.10553448392744       63.18558078458489
C           17.84959031670514       37.93669640176170       65.10337004570074
C           17.47132423948104       37.81980742906546       66.50151053313341
C           16.68751039226482       36.62854161022150       66.59854007175922
C           16.61356052410222       36.08601150405229       65.26483959366504
C           15.91827694509469       34.93232273394898       64.90955878556707
H           15.51581317765651       34.33079441765804       65.72104798915731
C           16.02422535436740       34.48059789041944       60.08021794318658
H           15.48988511652047       33.86072881753005       59.36471751794214
C           19.15704873774680       38.15900239992035       59.74587531154395
H           19.73374246847833       38.61287449275169       58.94472384798584
C           18.63737795314889       38.94082893161144       64.52112587569835
H           19.01204864100950       39.70258988226136       65.19990848343841
C           14.07402023443851       32.21561666085297       61.09690007280084
H           13.17522859564037       32.66879411152622       60.66127515504490
H           13.76312619228973       31.37063014689848       61.72032493775945
H           14.69804427310644       31.83754809052336       60.28045146859528
C           14.03245715483445       32.50700037260920       64.26906758313841
H           13.77076642827017       33.09078164017509       65.15709568030978
H           14.63449874512344       31.64733096504773       64.58743905737781
H           13.10530559166367       32.13809566967324       63.81804138549489
C           17.06641861797574       34.43426821130521       57.07163631797668
H           16.31457132298869       34.88615204703134       56.41393791382873
H           16.64907757253510       33.50968914964120       57.48251035859855
H           17.94527313898020       34.18872489598769       56.46378915853057
C           19.11910757735384       36.90982046898448       56.91139565706668
H           20.13837195423771       37.25830215301354       57.08214988908250
C           18.65074768319486       36.93793574172035       55.66806811969715
H           17.64095996327292       36.61813889452100       55.44366940497181
H           19.25974424997441       37.29266167275748       54.84055325470973
C           20.57611020041994       40.93275739295596       60.28169746871730
H           19.83575538071947       41.53183053054234       59.73641028049978
H           21.14626617709803       40.35078762607239       59.54987378839457
H           21.26001228814797       41.61974623661895       60.79221153529150
C           20.25880673780124       41.42113544563801       63.38053449539413
H           20.01934624341249       42.42674934322206       63.03086352570796
C           21.02305227672635       41.27062494102901       64.45334621790182
H           21.29372385467886       40.28102055462274       64.80153152300298
H           21.40698791162293       42.12506216191324       65.00345564042847
C           17.82847597577262       38.75872259834587       67.65376403316354
H           17.78399581194460       39.81387259644922       67.35216452769362
H           18.84515651301238       38.57022268799296       68.02706982987539
H           17.13256312529508       38.62561334561593       68.48998246796845
C           16.02345769173863       36.03191331011784       67.82835709660766
H           14.95300014817710       36.28340836290125       67.87380109865276
H           16.49355104434139       36.40613714991486       68.74332748717643
H           16.09595571162441       34.93583411322141       67.83303429101900
C           22.25630421144102       33.88615028648578       63.87040603547430
H           22.96469447476009       33.70046128488446       63.05456898885993
H           22.12419901998597       32.95575131845045       64.43458052967134
H           22.67550944960842       34.64970315712670       64.53034705021774
N           20.21281511678828       33.57875935416376       62.45683355274944
H           20.47379434383804       32.66520922643651       62.13171072288327
C           20.94877068748018       34.34952417499763       63.32120684570214
C           19.10270795106094       34.25034094952210       62.12832002738135
H           18.34358375353477       33.87830600406072       61.46057415085663
N           19.08843540418032       35.41504512931078       62.73639905680972
C           20.22983324526223       35.49637443356976       63.49105288763302
H           20.44014830478704       36.36619272865429       64.08770602152033
C           14.68238051785444       41.02298562331998       60.32561392150947
H           14.95019683830206       41.94320940372663       60.85732812312389
H           13.60410279197601       41.03090131235016       60.12966205923266
H           15.22166024756500       40.99777006172621       59.37483875810901
N           14.52803208718235       39.60366542258406       62.38728117279928
H           13.85147244104850       40.18668509197741       62.84731545722587
C           15.05318400675106       39.83886291154140       61.14200276228194
C           15.07894322415430       38.48342422305574       62.87479411173378
H           14.84083246748559       38.06377177837882       63.83783546063179
N           15.93596298270353       37.99338944823554       62.00583114524964
C           15.93190040354867       38.82493226957983       60.91724856442605
H           16.56023473360326       38.62714150652197       60.06938805337384
87
 energy: -128.451838432035 gnorm: 0.035413821715 xtb: 6.7.1 (edcfbbe)
Fe          17.45157807732497       36.64363709960829       62.33981647920105
N           16.18807975542414       35.03458408361241       62.46912161641111
N           17.60815420625141       36.33684429421775       60.28738009538193
N           18.68639155574748       38.24565574101818       62.17015074515461
N           17.29701857686632       36.90536704742883       64.37315970626615
C           15.67808496816758       34.49136669062187       63.61015757910731
C           14.81519683423212       33.36603861356755       63.28369551289684
C           14.82755518221639       33.24898683503600       61.92411501637280
C           15.70397809061788       34.29955062228809       61.42547094758682
C           16.97874533781472       35.37187519425532       59.56032349494315
C           17.43404563302705       35.41030260184974       58.18025596037753
C           18.33572305626200       36.44561020832210       58.09570119712242
C           18.41705852316144       37.01853775346216       59.43310670878775
C           19.22467142852606       38.75058127271519       61.02355478372843
C           19.87987483764222       40.01539374795606       61.29899181409233
C           19.73808117715463       40.23761393927359       62.64296851714946
C           18.99070803956596       39.10138385664264       63.18469701139496
C           17.83503750096361       37.92600432146602       65.09434911329767
C           17.45934591485939       37.78876960489785       66.49510156886546
C           16.71823146139332       36.66103096268085       66.58801035782209
C           16.62578672694504       36.11286222128116       65.25084716570500
C           15.92205007362692       34.95674325880282       64.89715480761114
H           15.50373182110394       34.36972679253586       65.70696548692601
C           16.03992530002850       34.48054067912662       60.08635723555490
H           15.52167541437968       33.84752916583884       59.37494245740729
C           19.15580239116100       38.14965983119970       59.76831155271898
H           19.71108661614112       38.61978634348167       58.96455515574689
C           18.61986778382057       38.94002160984667       64.52103802514362
H           18.99069391633068       39.70067585471024       65.19876801908021
C           14.08912776460935       32.23934851284383       61.10326264971475
H           13.19276944343909       32.67860461751286       60.66344274767419
H           13.78047925637951       31.39640118791284       61.71784040627030
H           14.70472798951834       31.85550209491962       60.29277121410247
C           14.05094589653605       32.52556051129998       64.25778567078108
H           13.78311888377514       33.09664171379129       65.14265783238048
H           14.63928233644232       31.66443910902744       64.57897171129353
H           13.13116887804171       32.15284730366493       63.81121841442575
C           17.06162031452952       34.45320731611522       57.09414747589945
H           16.31002271703608       34.88492464724747       56.43264580523988
H           16.65864565042391       33.52759796188086       57.49691241003791
H           17.93356615695419       34.21217007817517       56.48598053623927
C           19.09329771780691       36.90013378529790       56.94004313514630
H           20.10369932187337       37.24947298361607       57.12832970212830
C           18.64325105510781       36.92805587213482       55.68949111678499
H           17.64376008690905       36.62172347362226       55.44104070727997
H           19.25049128581712       37.27757475048146       54.86908334101621
C           20.55795059863087       40.90726939214407       60.30481523558150
H           19.82866926544056       41.50552682229878       59.75492806147047
H           21.12917940034826       40.33658804467492       59.57528131705132
H           21.24007557483161       41.59274069027698       60.80454745485686
C           20.25130619372489       41.38294164498988       63.38524125186254
H           20.00873528901213       42.37376166534595       63.01000044220450
C           21.01965193436515       41.26169947731333       64.45928246571688
H           21.30176606528326       40.28969960832044       64.82253931113789
H           21.40059504653432       42.11360501265694       64.99771738579578
C           17.81793957628861       38.72791650404947       67.61408146902495
H           17.77448498598300       39.77373960966010       67.30728767195302
H           18.82934893082463       38.54534590397173       67.98660210434235
H           17.13465464688505       38.60486784628667       68.45378543319862
C           16.05363083280657       36.06044666871503       67.79724316147281
H           14.98767608736076       36.30470431386140       67.83678562841536
H           16.50724772294997       36.41982920384651       68.71841814777324
H           16.12517176086555       34.97138594827003       67.79895007795750
C           22.25055438311773       33.89204179053856       63.87063281044181
H           22.95947828828041       33.70393695773171       63.06492724152726
H           22.12679540382089       32.96820008984749       64.43418107184668
H           22.66528832178880       34.64833209081044       64.52686817100341
N           20.22609021083510       33.56574982080259       62.45675156366453
H           20.48890870911302       32.64952875964142       62.13421283368096
C           20.94800887444016       34.34783974436856       63.31913435300817
C           19.11030778226333       34.24463234663142       62.12016556963661
H           18.35706025067160       33.87259825625298       61.45852027558142
N           19.07615591662470       35.41041869391682       62.71261824877786
C           20.21151158600765       35.49203421898000       63.46825411786685
H           20.42018939792498       36.35728446015786       64.06458973664805
C           14.67951862981147       41.02492422676991       60.32767459880247
H           14.94284844309595       41.94382377438416       60.84899045082116
H           13.60975705376278       41.03703056062277       60.12693230837701
H           15.21343267046536       40.99608293337833       59.38432094666877
N           14.51964395133485       39.60933650847060       62.38667962358706
H           13.84195982761731       40.19078350023079       62.85165307038218
C           15.05052614348003       39.84410475939553       61.14617845509849
C           15.08409498242370       38.47872852541486       62.86900663065182
H           14.85064187410061       38.05980953179459       63.82559260066040
N           15.94223574401816       37.98500609253531       62.01109832994138
C           15.92505542020034       38.82015851463180       60.92970436831716
H           16.54569726671027       38.63065931872101       60.08011299492393
87
 energy: -128.457207228273 gnorm: 0.017550865041 xtb: 6.7.1 (edcfbbe)
Fe          17.45264552278458       36.64205741911429       62.33996255129880
N           16.19074559931275       35.04745536928216       62.46390405283414
N           17.63098503387297       36.31769333778553       60.31042837659527
N           18.67242424605999       38.23812844013227       62.18184046321693
N           17.29369578061634       36.91358756670462       64.35323581832347
C           15.67833206105731       34.50769051842168       63.60049056413367
C           14.82064148685825       33.38178844408052       63.27967996765636
C           14.83313904091075       33.26383807042691       61.92166323731147
C           15.70915016018531       34.31012867336784       61.42608573154241
C           16.99298240534671       35.36532212718372       59.57748099763718
C           17.42995970633918       35.41410762606034       58.19818289448238
C           18.33484565151710       36.44540907481666       58.11575130820936
C           18.43163337490996       37.00286710042051       59.45636801250805
C           19.21506688952201       38.73956546902725       61.03981432536423
C           19.86876420770771       40.00022236830682       61.31199773603481
C           19.73421970191017       40.22155824557540       62.65588718120062
C           18.98274762945037       39.09338464045085       63.18913730725360
C           17.83264302548049       37.93158966030004       65.07443242733488
C           17.46383386662367       37.79695897368499       66.47401292119032
C           16.72585881285903       36.65720968167430       66.56918880594904
C           16.62537661853689       36.11922230837411       65.22834853049777
C           15.91527338955189       34.97376943781386       64.88409100290946
H           15.47793060368971       34.40511300486457       65.69538635533507
C           16.05378909255597       34.47484592125075       60.09135961418345
H           15.55508406935061       33.82643911230603       59.38095100688253
C           19.15617321060673       38.14077602778016       59.78671015143258
H           19.69292785029442       38.62760248869416       58.98146178460438
C           18.61173159240100       38.94599374348804       64.52061844012024
H           18.96962800283847       39.71109169696366       65.19860371940111
C           14.10149333936827       32.25700443265253       61.09933414256709
H           13.20686774583832       32.69588564297063       60.65502177482056
H           13.79401631368275       31.41537705250035       61.71594418360430
H           14.72320770779618       31.87429076287797       60.29281471936039
C           14.06426332827253       32.54110386134571       64.25350808517960
H           13.79359842820251       33.11167871233836       65.13809156491556
H           14.65662464415835       31.68233316063274       64.57415102031034
H           13.14803273469118       32.16490487267686       63.80261000521097
C           17.05117867504410       34.46478854825320       57.11331663987117
H           16.28878324583077       34.89012461520889       56.45980089256684
H           16.66336393265545       33.53334681594461       57.51874893466137
H           17.92263494482889       34.23849808797808       56.49836979999655
C           19.08309100539476       36.90030279302972       56.96462191902403
H           20.08678222524871       37.25975329831308       57.16564431306409
C           18.64200683767881       36.91869966666548       55.71009298125777
H           17.64277717123447       36.61705747167612       55.45062932689105
H           19.25446179491480       37.26656684130761       54.89470904631880
C           20.54520341841650       40.88514876948716       60.31966700459708
H           19.81321727963368       41.47850061252644       59.76794235382408
H           21.11761805270783       40.30918531611010       59.59544176539436
H           21.22442964496936       41.57018478799305       60.82300575854734
C           20.24902061036736       41.35922523499643       63.39731282809107
H           20.00940370434179       42.34159541540563       62.99986506635521
C           21.01361588050034       41.25467945743694       64.47655394349552
H           21.30568653531080       40.28952071608730       64.85409621426334
H           21.39756651304608       42.11460131486451       64.99877238108110
C           17.82488597443455       38.72851006372660       67.58386627247532
H           17.77589007737881       39.76677182835741       67.26132657500720
H           18.83639669886843       38.53510482845694       67.94475801770758
H           17.14094761355601       38.59920990084544       68.42082679956580
C           16.07119877392695       36.06634405863466       67.77692598388074
H           15.00834877290078       36.31755570738284       67.80342602696123
H           16.52724885150297       36.43481647453666       68.69224732866749
H           16.15330166340921       34.98066110800273       67.77251913405610
C           22.24396768039207       33.90254596340907       63.87382366990641
H           22.95957269264379       33.71313379184768       63.07371100988826
H           22.12388246908083       32.98038762656071       64.44173602379273
H           22.65074101554954       34.66391306604814       64.52951028715735
N           20.23332716378664       33.55141141467379       62.44911061135446
H           20.50417889785964       32.63400130159118       62.13539691857078
C           20.94232225722469       34.34676474925977       63.31113719457023
C           19.11512533598919       34.22251905641828       62.09954926611628
H           18.36751582532678       33.84202780145550       61.43699208153161
N           19.06717685987050       35.39309340992672       62.68249670967653
C           20.19596362541585       35.48685400591896       63.44409274443399
H           20.39619367991473       36.35604180890692       64.03646040345168
C           14.67353199044731       41.02478949924450       60.33108463546483
H           14.93542825141221       41.94768188347891       60.84710195670118
H           13.60416662851900       41.03898991679959       60.12642373194402
H           15.20832861801351       40.99248042155677       59.38801226672548
N           14.51384815710900       39.60748557723384       62.39231075412938
H           13.83490143889774       40.18615381388646       62.85946037998039
C           15.04517785154633       39.84472327952608       61.15184834650465
C           15.08396585344277       38.47606960051793       62.87127753815784
H           14.85404345651031       38.05402402680791       63.82692155829278
N           15.94259283248822       37.98463718811522       62.01368583090386
C           15.92030921955553       38.82138750099015       60.93463670367815
H           16.53634542574117       38.63613451625080       60.08118128803238
87
 energy: -128.460321523483 gnorm: 0.011352076274 xtb: 6.7.1 (edcfbbe)
Fe          17.45608887180563       36.63444664745261       62.33281100392892
N           16.19589950427439       35.06226524708704       62.45808331288207
N           17.63777511643148       36.31062765078578       60.33440315829895
N           18.66397907878891       38.22058004211373       62.19631421348692
N           17.30057489579120       36.91333071266347       64.32311796117391
C           15.67607896885492       34.52682769263324       63.59074250357186
C           14.82342639502166       33.40171580686704       63.27454658182914
C           14.84069020280608       33.27889549641142       61.91923472152376
C           15.71732950783674       34.31888156062757       61.42602169065472
C           17.00350680824903       35.36084410569548       59.59768218047565
C           17.42555801683197       35.42051209543338       58.22112128106697
C           18.33164017096156       36.44829697622635       58.14073084641255
C           18.43637648772734       36.99541837495857       59.48064384532029
C           19.20434126895083       38.72630002814901       61.05654219593367
C           19.86018438197290       39.98056232033810       61.32676712447260
C           19.73510558296437       40.20002796096310       62.67003048788327
C           18.97966386837020       39.08041065067861       63.19565639272538
C           17.83220051263718       37.93245436878728       65.04788937193298
C           17.47122254604531       37.79845612773665       66.44413795739408
C           16.73264368057987       36.65694170304059       66.54061441590210
C           16.62853011071247       36.12462912632052       65.19990229335531
C           15.90248412539355       34.99469985717079       64.87143955834064
H           15.44484294018710       34.44829666947835       65.68526718968479
C           16.07048290119380       34.46407025562905       60.09628795169811
H           15.59071076716664       33.80288658567710       59.38724840842666
C           19.15074862238520       38.13623013847525       59.80386821915840
H           19.67618293702344       38.63318953461204       59.00040101481007
C           18.60358285930629       38.95316843473750       64.52176731914230
H           18.94538574073468       39.72293505949779       65.20077314114394
C           14.11591647543040       32.27336587845027       61.09078008912274
H           13.22648075176728       32.71513712380099       60.63769665008978