87
 energy: -128.467194481888 gnorm: 0.000060253689 xtb: 6.7.1 (edcfbbe)
Fe          17.48579146319525       36.68482628753834       62.30508897001831
N           16.21874876093292       35.13641523204356       62.43241595735515
N           17.63917003429546       36.39824174834102       60.32328883815777
N           18.76970359044006       38.22044628354725       62.18912815401541
N           17.31496478474379       36.97892370019338       64.27884915613588
C           15.64321894082492       34.64041290300375       63.55789578534409
C           14.80175807800353       33.50617522215836       63.24524162163630
C           14.87718425132788       33.33519684030559       61.89816572342007
C           15.76979520161422       34.36316345025755       61.40859683949187
C           16.98793277745609       35.46324732735599       59.58058771342193
C           17.33602577012250       35.58070432697406       58.18781356219440
C           18.22406799901226       36.62060553926150       58.09953470033413
C           18.40188680336220       37.10833793871269       59.45425729922704
C           19.38546738689596       38.67891689968082       61.06708266420330
C           20.25295717822141       39.78491902143392       61.37749145725984
C           20.17111359566093       39.97266977692939       62.73125047493422
C           19.21578223428467       38.99253692500222       63.21118852804243
C           17.88575864567899       37.97539892993943       65.00439732209036
C           17.48028301302488       37.89496403365403       66.39096439900710
C           16.66130711011245       36.81351579590014       66.48616761593971
C           16.56671543628104       36.25834540079204       65.15354607322131
C           15.79919455175273       35.15350864579779       64.83299486807404
H           15.26850673728520       34.66418000137872       65.63610075895822
C           16.11124584822778       34.51289788141398       60.07854376761806
H           15.65892144214254       33.83332640248865       59.37170747602656
C           19.21445159233346       38.17478757430073       59.78881406615292
H           19.75620494884451       38.66118674845889       58.99139555353396
C           18.76842263127208       38.92155446028120       64.51834568193658
H           19.13925952200279       39.66168925362263       65.21038043082829
C           14.20768587809727       32.31933876226526       61.03618041344738
H           13.58656058584428       32.80509154525814       60.28316122121462
H           13.57513707753574       31.66374531718825       61.62994343712212
H           14.94614118692559       31.70573944032420       60.51878322033578
C           14.02969191125832       32.72640907412490       64.25470778900406
H           13.30337781643896       33.36365361639004       64.76058421290917
H           14.69719477927684       32.31150717405989       65.01030739948510
H           13.49377396397725       31.90580956628565       63.78363768829681
C           16.85909593193528       34.67865295049226       57.10252563031815
H           15.87430389940013       34.98509588911833       56.74553995749886
H           16.78243035973377       33.65190027478785       57.45800772972084
H           17.55161607617324       34.70536395667963       56.26339146091933
C           18.90142303105726       37.14917893865677       56.93713902406972
H           19.89956591467335       37.53438044815267       57.11266837636678
C           18.40034758055655       37.20409189804068       55.70682257021622
H           17.39860839441360       36.88278981295190       55.48089985146885
H           18.97105635585665       37.60043383720404       54.88311297136694
C           21.10007335973046       40.51289271512685       60.39113142911533
H           20.49003369717040       40.91206883060389       59.58006929411604
H           21.84306522308451       39.84392104866532       59.95501996957556
H           21.62437441402819       41.33621322553239       60.87005872063170
C           20.90247511283940       40.94480211934258       63.51684532183699
H           21.04542165382061       41.91001341619513       63.04177529812746
C           21.43252679926226       40.73692293811030       64.71708783545188
H           21.37004330096095       39.78306044851924       65.21283224011553
H           21.97075756270589       41.51174877746283       65.23798432974219
C           17.92474478899603       38.84114922684688       67.45363117898499
H           17.66300658544532       39.86558830477438       67.18829960867748
H           19.00656459033475       38.79374266123698       67.58245914292088
H           17.45689006940289       38.60268979177189       68.40593061202037
C           15.96571670011200       36.25717011673766       67.68195921907123
H           14.88467839225627       36.26371573870047       67.53750057388640
H           16.19526852456753       36.84133661748865       68.56989419919209
H           16.27533796046738       35.22703076816631       67.86011846757982
C           22.19180765771480       34.24281533670639       64.08221894361289
H           23.00648673914041       34.12168075739942       63.36814707881690
H           22.10426162787158       33.32177944854280       64.65876933340887
H           22.44043225438926       35.05455431792382       64.75866845203439
N           20.35948584825391       33.70422739334198       62.46182468333671
H           20.73761701251505       32.81730975890088       62.17219921835061
C           20.91865186375032       34.55159614371859       63.38297496451747
C           19.21797368378895       34.27831213995148       62.01858720583859
H           18.56908997865839       33.83899632262142       61.28936515955337
N           19.02101212784634       35.43466102564251       62.60173025428235
C           20.06975405598068       35.61847253989417       63.45337946306771
H           20.14245509725439       36.50059501593229       64.05469885134696
C           14.04274792548538       40.66519905142119       60.41289478178156
H           13.80147528046337       41.49500769032618       61.07737071594200
H           13.12587876991466       40.34997287309965       59.91454953318102
H           14.74468523978752       41.01350804192688       59.66167511977721
N           13.98606443169861       38.89847039795049       62.18753743884832
H           13.05953435130876       39.11465393156760       62.51657123165359
C           14.64548806251031       39.53955167985950       61.17102994638311
C           14.80556009635989       37.93230820567754       62.66084800561560
H           14.55189882412395       37.26927811256171       63.46197009390053
N           15.94092759440698       37.92288508996008       62.00744550993605
C           15.85674579403990       38.91668389846709       61.07772084953786
H           16.66713587506978       39.11513702856956       60.40757731190450
