87
 energy: -124.431578129759 gnorm: 0.329803769151 xtb: 6.7.1 (edcfbbe)
Fe          11.00500000000000       23.81600000000000        1.79300000000000
N           11.61400000000000       25.77400000000000        2.14500000000000
N           12.42100000000000       23.63700000000000        0.32200000000000
N           10.66300000000000       21.82600000000000        1.69100000000000
N            9.87300000000000       23.96000000000000        3.50500000000000
C           11.16200000000000       26.61499999999999        3.12500000000000
C           11.72600000000000       27.92800000000000        2.90700000000000
C           12.47200000000000       27.86700000000000        1.79300000000000
C           12.41800000000000       26.51500000000000        1.30700000000000
C           13.10300000000000       24.69000000000000       -0.18100000000000
C           13.89800000000000       24.15200000000000       -1.26300000000000
C           13.66100000000000       22.84100000000000       -1.37900000000000
C           12.70800000000000       22.49100000000000       -0.33200000000000
C           11.26500000000000       20.96800000000000        0.82400000000000
C           10.72000000000000       19.65600000000000        1.07300000000000
C            9.82100000000000       19.75600000000000        2.05000000000000
C            9.76600000000000       21.14900000000000        2.45900000000000
C            9.07700000000000       22.93600000000000        3.94200000000000
C            8.36300000000000       23.44500000000000        5.10100000000000
C            8.74400000000000       24.71400000000000        5.29600000000000
C            9.71800000000000       25.05600000000000        4.26500000000000
C           10.32200000000000       26.29300000000000        4.17400000000000
H           10.13200000000000       27.03500000000000        4.94900000000000
C           13.06800000000000       26.01100000000000        0.20000000000000
H           13.60200000000000       26.72300000000000       -0.42900000000000
C           12.22800000000000       21.22800000000000       -0.13200000000000
H           12.61200000000000       20.40900000000000       -0.73900000000000
C            8.95500000000000       21.66300000000000        3.44400000000000
H            8.17200000000000       21.02400000000000        3.85200000000000
C           11.43800000000000       29.14800000000000        3.82600000000000
H           11.78800000000000       28.68400000000000        4.77300000000000
H           10.33000000000000       29.08800000000000        3.78300000000000
H           11.76200000000000       30.21099999999999        3.80400000000000
C           13.28300000000000       29.00900000000000        1.13300000000000
H           12.81000000000000       28.93500000000000        0.13000000000000
H           14.25700000000000       28.47500000000000        1.11300000000000
H           13.44300000000000       30.08100000000000        1.37700000000000
C            8.28100000000000       25.70300000000000        6.40400000000000
H            7.21600000000000       25.57700000000000        6.11500000000000
H            8.43300000000000       26.73800000000000        6.77700000000000
H            8.52600000000000       24.97100000000000        7.20300000000000
C            7.36000000000000       22.58400000000000        5.89700000000000
H            7.12100000000000       23.19100000000000        6.72500000000000
C            6.89500000000000       21.42899999999999        5.41600000000000
H            6.77900000000000       20.55600000000000        6.07500000000000
H            6.62200000000000       21.33599999999999        4.35500000000000
C            8.95100000000000       18.64200000000000        2.68300000000000
H            7.96600000000000       19.12400000000000        2.50300000000000
H            9.25400000000000       18.82500000000000        3.73600000000000
H            8.85800000000000       17.55000000000000        2.49800000000000
C           11.15700000000000       18.39800000000000        0.27400000000000
H           12.21500000000000       18.41400000000000        0.04000000000000
C           10.19200000000000       17.64800000000000       -0.30300000000000
H            9.14700000000000       17.72900000000000        0.03200000000000
H           10.44000000000000       16.94800000000000       -1.11400000000000
C           14.27800000000000       21.82900000000000       -2.36900000000000
H           13.94700000000000       22.43200000000000       -3.24200000000000
H           14.25100000000000       20.75300000000000       -2.64300000000000
H           15.31400000000000       22.12600000000000       -2.09900000000000
C           14.82700000000000       25.04799999999999       -2.12600000000000
H           14.31800000000000       24.67400000000000       -3.04000000000000
H           15.71000000000000       24.40600000000000       -1.91700000000000
H           15.15200000000000       26.09600000000000       -2.29800000000000
C           14.28500000000000       21.85600000000000        6.11400000000000
H           14.76500000000000       22.62000000000000        6.76200000000000
H           15.03300000000000       21.07400000000000        5.86500000000000
H           13.43100000000000       21.40400000000000        6.66200000000000
N           14.67900000000000       23.14600000000000        4.00900000000000
H           15.65900000000000       23.20500000000000        4.19700000000000
C           13.78500000000000       22.51400000000000        4.83700000000000
C           14.07900000000000       23.65600000000000        2.95100000000000
H           14.54700000000000       24.19600000000000        2.13200000000000
N           12.82300000000000       23.35600000000000        3.13500000000000
C           12.55900000000000       22.63300000000000        4.26200000000000
H           11.57100000000000       22.28900000000000        4.53400000000000
C           10.19600000000000       23.81900000000000       -2.12700000000000
H           10.02000000000000       23.12000000000000       -2.97200000000000
H           11.25200000000000       23.71700000000000       -1.79700000000000
H           10.01400000000000       24.85600000000000       -2.48100000000000
C            9.24800000000000       23.48900000000000       -0.96100000000000
H            9.44400000000000       22.44700000000000       -0.63000000000000
H            8.20200000000000       23.54700000000000       -1.32900000000000
S            9.45800000000000       24.61300000000000        0.43500000000000
C            7.88300000000000       24.44500000000000        1.27100000000000
H            7.70600000000000       23.39600000000000        1.59100000000000
H            7.05500000000000       24.74100000000000        0.59200000000000
H            7.85800000000000       25.08900000000000        2.17600000000000
87
 energy: -124.565324525072 gnorm: 0.186724747961 xtb: 6.7.1 (edcfbbe)
Fe          11.05393816715051       23.82382604374448        1.83283647573568
N           11.60592354434217       25.78761730989742        2.13858519128037
N           12.39200966011702       23.64177696211339        0.34260444347051
N           10.66064263776839       21.83601316150362        1.67598125818615
N            9.87922929918893       23.95555963134610        3.48192660235235
C           11.17155937851323       26.62530022092042        3.12183881170479
C           11.72953224244087       27.94951686110413        2.91112098429165
C           12.47671784241172       27.88811151556868        1.79564477138721
C           12.40973214609334       26.52366970443677        1.31184052096632
C           13.08786370147518       24.68151635022172       -0.17622591682580
C           13.89282337550238       24.17027742993228       -1.25470384928132
C           13.65933614373784       22.83603900219868       -1.36266893899399
C           12.70670161990366       22.50714061014761       -0.32592386060552
C           11.26564425701467       20.95671757775773        0.83229793608948
C           10.73561552412149       19.62900832809524        1.06448118431641
C            9.81719584434770       19.73443306763432        2.04263481661346
C            9.77576307623404       21.13819151890121        2.43879764286467
C            9.07189275213474       22.95294408393229        3.93439408067754
C            8.32027941045201       23.45634653502120        5.07504248357246
C            8.75186171252586       24.73325970840775        5.29162251908881
C            9.72287706489549       25.04300088758959        4.26723931385165
C           10.32952318495999       26.28475973276448        4.16580626996501
H           10.12755074212633       27.02347676402344        4.93575536879572
C           13.06235440564797       26.01115540118345        0.20484999974926
H           13.60661856940160       26.71318950654687       -0.42065088004724
C           12.22395839515853       21.23520226059832       -0.12275194369875
H           12.60567752836719       20.42390978493535       -0.73395151929983
C            8.97212707158526       21.66690885345618        3.43279194191360
H            8.21338377813951       21.02214501826848        3.85320795276051
C           11.41968287171417       29.11403596930546        3.84288992535363
H           11.77089425313933       28.70787527661994        4.79890796624294
H           10.32386150599978       29.11093176319851        3.81341519002166
H           11.77381062809367       30.15651668038301        3.76151043130757
C           13.28875126690401       28.97342936261152        1.10591959177782
H           12.83820922815907       28.95372175146306        0.10668110876752
H           14.27672960725795       28.49878648064361        1.08459224261053
H           13.40754023066090       30.02859729735919        1.40863545549866
C            8.25212601430478       25.65453624573092        6.40815256966167
H            7.18542403661108       25.59345776484378        6.16271409540659
H            8.46948328157110       26.69505342168215        6.71497625137287
H            8.49276934439838       24.98904691434154        7.24651439590279
C            7.37344034899545       22.61313672392513        5.87280656613826
H            7.15599551995192       23.15447791929863        6.77468096960274
C            6.88227422117764       21.44339877693231        5.42431578320560
H            6.72731630984655       20.58599468182721        6.08099561408925
H            6.64238940394983       21.31920505954004        4.37146717218254
C            8.94045861080525       18.67904203667188        2.70216676597966
H            7.94396976511266       19.10361545491331        2.52851558090462
H            9.22347451228194       18.80598151989842        3.75376048191907
H            8.89854735421862       17.59986554326025        2.47362892916729
C           11.13493714213050       18.43070400563264        0.25518900649370
H           12.19748521786483       18.40330949579937        0.03707079987257
C           10.20217600742293       17.65530101027836       -0.29909907712827
H            9.16428466836040       17.73459054157610        0.01497295699422
H           10.44143790513814       16.94149229140557       -1.08625089645510
C           14.29572158545571       21.88416190271746       -2.37672287620938
H           13.98392903834609       22.41712128252699       -3.28434517944249
H           14.21215537541942       20.79924469408763       -2.58179690832153
H           15.34429349503862       22.11000756097795       -2.14578907784608
C           14.82889402571010       24.99133523902680       -2.14796475642599
H           14.36387166226541       24.68252788763108       -3.09166408027131
H           15.74514838331039       24.41641225367088       -1.96350529963169
H           15.10042348964189       26.06049939495899       -2.23985768532604
C           14.28436225290306       21.85813694668874        6.11194343727111
H           14.76015329290497       22.60872699864024        6.75735881119980
H           15.02264537557063       21.08135063656753        5.87249281657070
H           13.44339625467048       21.40945215037325        6.65220157682139
N           14.69302507855205       23.13898879895906        4.02493063455056
H           15.67739951040579       23.20234189414024        4.20687901772515
C           13.79992225239713       22.50860865165567        4.84848229463352
C           14.05391826043011       23.64757782173958        2.96153384192756
H           14.52375738874732       24.18503736922547        2.14969793239926
N           12.78486279987675       23.35401060604915        3.10639192053398
C           12.57692110104516       22.64291622707281        4.25233098295972
H           11.59439774250868       22.29805297595352        4.52843315737480
C           10.19085044086696       23.82075895930847       -2.12399436234272
H           10.02086030020784       23.12940203649445       -2.95991298210904
H           11.23300612304232       23.72277956180675       -1.80467800376673
H           10.01791010996134       24.84512213199075       -2.47576772697464
C            9.24392488660046       23.47919366408635       -0.97080089631694
H            9.43998916087594       22.45275615728752       -0.63013884194105
H            8.20482581167475       23.54807312716148       -1.32280439463305
S            9.46366935635602       24.61051553609870        0.43740043541397
C            7.87051880322946       24.43730015394805        1.26691602218548
H            7.70839811008958       23.40161589447919        1.58857879904519
H            7.05866396604476       24.74177214580202        0.59495985985880
H            7.86438223402237       25.08108151747982        2.15665799331613
87
 energy: -124.643853228980 gnorm: 0.076709646211 xtb: 6.7.1 (edcfbbe)
Fe          11.10185849658370       23.82753686949316        1.86476361573688
N           11.60486281677035       25.79208330151820        2.13669354204200
N           12.37216954131027       23.64827693559016        0.36108091001046
N           10.66996168660088       21.84117760506677        1.67075800918067
N            9.89354789444867       23.95028670701315        3.46596472684486
C           11.18045087327347       26.63040326833853        3.11841146233052
C           11.73235733777694       27.96662974926227        2.91581616998362
C           12.48117557869286       27.90496365099284        1.79654088829280
C           12.40103121087978       26.52667627092442        1.31679767426112
C           13.07883086281696       24.67663347117623       -0.17708187948273
C           13.89053458004609       24.18906602515671       -1.25325074906200
C           13.66027136303709       22.83408521963864       -1.35155869208274
C           12.71114207945662       22.52209409213039       -0.32430575621846
C           11.26873639181165       20.94643586846806        0.84190383584344
C           10.74289065920735       19.60876832944812        1.05812711102804
C            9.80759105967559       19.72268910764421        2.03782968705296
C            9.78794799684369       21.13204269343010        2.42307901069155
C            9.06333876987749       22.97139544964337        3.92024135310842
C            8.28650121553689       23.46241209307984        5.05066754878638
C            8.75562901946390       24.74699641384679        5.28749515594685
C            9.72476900977620       25.03145558628177        4.27498669941403
C           10.33609720917825       26.27595388719950        4.15541654389481
H           10.12284160618269       27.01188241149863        4.92061777177121
C           13.05752731404688       26.01250528863391        0.21001725771600
H           13.61263326191341       26.70476770135452       -0.40988559805043
C           12.22052316767419       21.24430806530137       -0.11366159120705
H           12.60057216337965       20.43988568874615       -0.72895584448602
C            8.99149262970855       21.67506697508693        3.41957575925119
H            8.26082334739989       21.01888470557028        3.85780686976465
C           11.40358758045774       29.08046062303386        3.85666076666502
H           11.75210292295434       28.73139028292729        4.82714688889827
H           10.31599550940536       29.13315353259801        3.84631149023733
H           11.79166622609522       30.10009032028044        3.71040700653592
C           13.29215305433343       28.93763770347777        1.08184863373613
H           12.86785258230604       28.97092386206756        0.08076009191872
H           14.29741932994901       28.52116470011207        1.05324179215144
H           13.36550420320528       29.97412605007420        1.44789167763199
C            8.22616174142432       25.60307642923485        6.40520797765109
H            7.15499005612614       25.60466982226462        6.21143401702137
H            8.51423854849724       26.64728554409166        6.63728764943715
H            8.45846871369436       25.00413756602673        7.28663349553039
C            7.39152478846108       22.64693039935266        5.83639044154646
H            7.19895153068583       23.09696459840496        6.81828965357004
C            6.87062255906339       21.46757328315394        5.43545426969602
H            6.66582927431447       20.63355993253960        6.09695150191503
H            6.66113180406059       21.30269869780309        4.38994319002991
C            8.93248744996742       18.71765102991832        2.71815148149056
H            7.92006618783642       19.08507401656328        2.55641946889723
H            9.19264489920330       18.79041208128713        3.77281313821114
H            8.94740400667883       17.65220520789117        2.44065708074460
C           11.11754497781128       18.46302606643432        0.24917586689949
H           12.17995240048089       18.39606933968683        0.02437296468533
C           10.21152583362052       17.65835686588051       -0.29311042385486
H            9.17376995042017       17.74164552525543       -0.00735090715832
H           10.44702535472405       16.93017582949609       -1.05619199896676
C           14.31109411432526       21.94227360851096       -2.37865921710945
H           14.01917508327830       22.40692837824395       -3.32081991113488
H           14.16215951120475       20.85065582280110       -2.50478453041785
H           15.37346607460609       22.09991598117711       -2.19147231327827
C           14.82636558271008       24.93362916344493       -2.16536157693337
H           14.40993373263651       24.68762299031068       -3.14077091292917
H           15.77609361759865       24.42283339984802       -2.00981331141595
H           15.03635072893173       26.02237147562273       -2.16837563689555
C           14.27971187018835       21.86023706170813        6.10878484844118
H           14.75532696547616       22.60038383889696        6.75416970489539
H           15.01364833347741       21.08628389356910        5.87823235778902
H           13.44890992380235       21.41241963018854        6.64505145799727
N           14.70030556348661       23.13701829565109        4.03130177126739
H           15.68794285385631       23.20567241097365        4.20487210809306
C           13.80879980663160       22.50525698102015        4.85491918739594
C           14.02763166041327       23.63849399620346        2.97075658660985
H           14.49973360680771       24.17469069473586        2.16567860930797
N           12.75092704653103       23.35473028279374        3.08684010733067
C           12.59269663833837       22.64942303551089        4.24408324077961
H           11.61611662635929       22.30257625978316        4.52888675939512
C           10.18551457669302       23.82074207487258       -2.12342101642685
H           10.01924094505507       23.13497904638180       -2.95362542486120
H           11.21827073604561       23.72729107705448       -1.80849003927427
H           10.01618850154552       24.83803565914180       -2.46927221992790
C            9.24226792151482       23.46947845868909       -0.98023293174013
H            9.43762927773758       22.45641065123576       -0.62926750208296
H            8.20705229355528       23.55114047928923       -1.31421394265247
S            9.46748623828451       24.61479617779196        0.43796880692310
C            7.85813084869633       24.43065857563129        1.26563133883469
H            7.71150452977734       23.40342583794202        1.58432414417544
H            7.06323058000736       24.74167173600046        0.59359849212660
H            7.87036358128123       25.07613028358351        2.14179225823425
87
 energy: -124.679757769315 gnorm: 0.056015620188 xtb: 6.7.1 (edcfbbe)
Fe          11.13534430137022       23.82785865100724        1.88467927306534
N           11.60877493647458       25.78645978514485        2.13767439884666
N           12.37241471388078       23.65570419337179        0.36871652451483
N           10.68702318257738       21.84663212243388        1.67102929667109
N            9.90286516605928       23.95256580570650        3.45919709932408
C           11.18609068990702       26.62399367207752        3.11822572901417
C           11.73201728929523       27.96276390125361        2.91763794257842
C           12.48068156986559       27.90211790929259        1.79337957951775
C           12.39697440174286       26.52151934008461        1.31806314900140
C           13.07820913812490       24.68046618946752       -0.18143896038973
C           13.89090056593830       24.19749797760393       -1.25743216789254
C           13.66407101203191       22.84177943246364       -1.34822546041343
C           12.71812424209555       22.53080544989222       -0.32269718313467
C           11.27950565236222       20.94664720801886        0.84906607813239
C           10.74237897280575       19.61212274655371        1.05956887871156
C            9.80248181194852       19.73458203593539        2.03984013374707
C            9.80179502964917       21.14013449795052        2.41688468652037
C            9.05761328305889       22.98322611564724        3.89900586818418
C            8.27217792909154       23.46267675198102        5.02474198586758
C            8.74219612877368       24.74656134124810        5.27583866658208
C            9.72304919904975       25.02822846780046        4.27968749012988
C           10.34182209270609       26.26819355423989        4.15035145898738
H           10.11593602529038       27.00596360049772        4.90723439445915
C           13.05598531619906       26.01435360659161        0.21291155956728
H           13.62363555170873       26.70166679188782       -0.39744388548745
C           12.22480720832083       21.25370044787273       -0.10637773888694
H           12.60023067819440       20.45442557964294       -0.72802815539903
C            9.01017513340993       21.68400767778542        3.40973337656982
H            8.31274096980578       21.00940770596168        3.87396392384239
C           11.39506640619461       29.05969956938544        3.86477932219218
H           11.73390099285864       28.75664010653618        4.85767096465678
H           10.30741426411563       29.15668770377397        3.88064534499405
H           11.81735015348314       30.05325254664753        3.65457453429090
C           13.29329982818670       28.91468949899341        1.06699748254349
H           12.89831212664314       28.98915965191989        0.05259816581815
H           14.31918852541604       28.54370785791308        1.02023742982702
H           13.32181318185812       29.92950157445060        1.49192519491366
C            8.20871934001814       25.56932874694083        6.39955597575441
H            7.12447977058182       25.61499540161560        6.26254819555753
H            8.56193348571759       26.60729391990424        6.55875315460692
H            8.42153661734126       25.01665500681731        7.32056313692728
C            7.41256569097502       22.65125809118522        5.82987590853445
H            7.25459391876914       23.03993400319616        6.84890381269770
C            6.84873846620883       21.48791595610384        5.45187444419470
H            6.56261013286533       20.69273342310627        6.13462183835010
H            6.67914447459833       21.28529791582693        4.40411178030198
C            8.92751783397146       18.74621696767754        2.72786772422701
H            7.89236237067958       19.06629901480681        2.58631660233805
H            9.16086191267597       18.77750275063832        3.79410397758866
H            9.00037242679459       17.69781229695626        2.40102426282295
C           11.10802180415165       18.48051395554664        0.23637205525305
H           12.16546137932163       18.39091934142718        0.00001059153207
C           10.21236415882842       17.65661660583824       -0.29547792070847
H            9.16991065786456       17.75059938936083       -0.03429695436834
H           10.46025722143879       16.89801207526938       -1.02184369293606
C           14.32021837012006       21.98111955153313       -2.37614798292321
H           14.05519804302151       22.39792099694308       -3.35307339391006
H           14.10869408129386       20.89426581853424       -2.42476883717317
H           15.40062200552555       22.09232134836670       -2.23766968922578
C           14.82470419060466       24.90133214148716       -2.17687099324788
H           14.46018021757709       24.69448611815816       -3.18796046328983
H           15.80493041111763       24.43121311665856       -2.05825959250874
H           14.97519496688399       25.99578138369106       -2.10073570844635
C           14.27648392817373       21.85987950288380        6.10802849547935
H           14.75206895953963       22.59645089154632        6.75664699870826
H           15.00918766588672       21.08383287544693        5.88332198170744
H           13.44435609893370       21.41248665839037        6.64042100807806
N           14.70034756215770       23.13938555610159        4.02712971875263
H           15.69042023817806       23.21293200829142        4.19365989379369
C           13.81163258298032       22.50428409667940        4.85470855042717
C           14.00987088888653       23.63432838018267        2.97378038176141
H           14.47599840055998       24.17231485076160        2.17117383442636
N           12.73435728579303       23.35064458691257        3.08570750686913
C           12.59738797880813       22.64740816920785        4.24592771513959
H           11.62793109960289       22.29822837694025        4.54137663853474
C           10.17705433102253       23.82010678919303       -2.12389181074914
H           10.01359241861013       23.13716600180860       -2.95536199665831
H           11.20967697337602       23.73109010615704       -1.81020856434047
H           10.00685290040617       24.83819323859473       -2.46406786247382
C            9.23941858561078       23.46350744514003       -0.98296790657230
H            9.43541232419559       22.45450729982855       -0.62589869366617
H            8.20216170296770       23.55378644478346       -1.30400639053142
S            9.47168506735493       24.61620950780783        0.43700913682552
C            7.85406330958681       24.42568163358856        1.26017060769264
H            7.71395418321801       23.39864236148638        1.57790093860547
H            7.06500862244929       24.74108007442535        0.58493072476417
H            7.87551527226107       25.07410673721620        2.13089448000974
87
 energy: -124.696816276270 gnorm: 0.043251407385 xtb: 6.7.1 (edcfbbe)
Fe          11.15639664790903       23.82828241240537        1.89417786048698
N           11.61701627082370       25.77222370022650        2.14128979219959
N           12.38723571058279       23.66265605181417        0.37061033889088
N           10.70903648604005       21.85412983589692        1.67270214813616
N            9.90736000003866       23.95729846103293        3.45725363208287
C           11.19132823738758       26.61026212199548        3.11968420424411
C           11.73157996565547       27.94818726150541        2.91984467766513
C           12.47971765805243       27.88936071489022        1.79034209231768
C           12.39858549637769       26.51086356428541        1.32048873185781
C           13.08788622127703       24.68720784765468       -0.18795127994670
C           13.89795962300458       24.20278301844413       -1.26868629072221
C           13.67471046037955       22.85209080582435       -1.35201589637281
C           12.73142088681787       22.53663702191313       -0.32218439395703
C           11.29255305524285       20.95117104572053        0.85057120671836
C           10.73634116315114       19.62338071141227        1.05429079344275
C            9.80033057323707       19.75362397752360        2.03968834300363
C            9.82028139099557       21.15225674596184        2.41606901515646
C            9.06136596033167       22.98688314470207        3.88725688939673
C            8.27369848777995       23.45373748236349        5.01151890412717
C            8.72650124773906       24.73539820947743        5.27179481414206
C            9.71546348359850       25.02786778535333        4.28224340338080
C           10.34164731566202       26.26112718440761        4.14714020012954
H           10.10661865917903       27.00465962040704        4.89384357730228
C           13.06198872738830       26.01538100046271        0.21535402760656
H           13.63889483687525       26.70404402054026       -0.38294424533099
C           12.23595929495956       21.26262786491902       -0.10350991631215
H           12.60556254004724       20.46713242965034       -0.73164102964257
C            9.03405722048075       21.68756375011172        3.41129373204636
H            8.36901299054339       20.99666603897850        3.89920310086634
C           11.39657779521479       29.04909319019201        3.86339384466520
H           11.72835208422133       28.78093201690421        4.87065261603417