87
 energy: -124.720037691779 gnorm: 0.000186874469 xtb: 6.7.1 (edcfbbe)
Fe          11.13346316415463       23.81129333024725        1.92134764954884
N           11.59953101990077       25.74133046790161        2.14898230745346
N           12.37710021972919       23.69886816844233        0.35433232821108
N           10.70038691585675       21.86141331064875        1.71032846254822
N            9.92344171011499       23.90843846137119        3.51542177255729
C           11.15054851629836       26.57967841495634        3.11862392434037
C           11.70408451468544       27.90575346289897        2.94522114734927
C           12.49596905257722       27.84642922121823        1.84270557442334
C           12.42136788807377       26.48284272182829        1.36388886358367
C           13.11024918434033       24.70953140675158       -0.18195294296743
C           13.88981715384942       24.23622914780275       -1.30456662247420
C           13.61352430989161       22.91024776279528       -1.42820409248735
C           12.66820309186961       22.59396690604164       -0.38088605185725
C           11.23381923420029       20.99858228345175        0.80927411058128
C           10.70619215756228       19.66220855530687        1.00385689391025
C            9.86064879393712       19.74338426097511        2.07891362033859
C            9.87824505332207       21.11923871000391        2.50358111404114
C            9.14945014396968       22.91093887397482        4.01768988139729
C            8.39049047888453       23.38113537370208        5.15997648432621
C            8.77279731871517       24.68102996901689        5.35426735532625
C            9.71140829733335       24.99085201851424        4.30812190577053
C           10.28441761051166       26.23900279633880        4.13631617490718
H           10.02151674714080       27.00702722881441        4.84753258785661
C           13.12694286856637       26.01577885028435        0.27108372773252
H           13.74783400756304       26.72004728572882       -0.26153283075607
C           12.14021597107466       21.33296053789387       -0.18025746268730
H           12.46432861586081       20.54905622294600       -0.84735204583351
C            9.14485062236282       21.60263366522664        3.57402473069060
H            8.53481454110103       20.89981085834614        4.11945111451166
C           11.41102553711116       29.06255167098260        3.83765649688288
H           11.70606001556535       28.84053986071213        4.86358567571501
H           10.34424587849629       29.28679303091092        3.83380730370542
H           11.94836396252489       29.94959266614164        3.51110225318285
C           13.30557686507702       28.92025540607437        1.20007771863936
H           12.99035579860438       29.06930581633091        0.16729482975378
H           14.36369352707163       28.65586286835710        1.19548506885393
H           13.19106278483593       29.86154373758534        1.73192882296643
C            8.29266777620049       25.64191894007600        6.38608918469638
H            7.74130151246775       26.46029412753829        5.92142709405343
H            9.13338750686076       26.07005949422066        6.93264325242554
H            7.63245777665875       25.14595537130758        7.09350234342375
C            7.41546020742399       22.63570587459967        5.92920093268399
H            7.42246012471952       22.82757764924483        6.99703751210817
C            6.51389677705167       21.79671720087110        5.43161490347060
H            5.81211486484187       21.28177959691594        6.06666414990327
H            6.42590556518361       21.61208166805871        4.37420850993179
C            9.10895408002495       18.64757450630870        2.75042651323151
H            8.06937957883800       18.62611336522639        2.41826920829714
H            9.11286024106621       18.78180073320556        3.83114786628993
H            9.56303190027853       17.68670284571596        2.51648835463719
C           11.06631956354850       18.50967683705685        0.20860499733646
H           12.08109403315069       18.50247999207318       -0.17244956824057
C           10.26184250209508       17.49371835831645       -0.08692632495295
H            9.23166845058345       17.46865540554423        0.22283229867104
H           10.60283811249122       16.65845595627617       -0.67597985179897
C           14.13457045053870       21.92503506038341       -2.41719435979845
H           13.31748520078707       21.49690295399115       -2.99852627979720
H           14.65186483449067       21.10961405494767       -1.91083631224210
H           14.83193850430499       22.39807752168829       -3.10429915930566
C           14.79233771428590       25.09486355750691       -2.12289750221469
H           15.25846479893184       24.51810201447434       -2.91795775734109
H           15.58058246125076       25.52532056527457       -1.50430125414051
H           14.23398853833330       25.91445727958090       -2.57610859524040
C           14.38121072811877       21.61164902223591        5.88830654037713
H           14.73060552184302       22.27264050449674        6.68147829998298
H           15.21432964707323       20.98058203135364        5.57888152968901
H           13.59360858118677       20.97851064163727        6.28463378810652
N           14.63249680237511       23.28223081028810        4.03918561266954
H           15.60110312754051       23.48904861664818        4.21984263826492
C           13.85828962412535       22.39537331412259        4.74076773445200
C           13.86064366292521       23.82200476150467        3.06946515391072
H           14.20297480946641       24.55149199121626        2.36502117430714
N           12.64643165969620       23.33118121860864        3.11438402387281
C           12.62900829819990       22.44277027561595        4.14844600046923
H           11.74056933561690       21.90031922201500        4.39653348863506
C           10.12638404415721       24.51622700217973       -2.13309032189531
H           10.22530303794352       23.99152475916816       -3.08130799218427
H           11.11688832895723       24.79030002058444       -1.78230248722543
H            9.55264191848217       25.42625965544793       -2.29177608702009
C            9.43582519302969       23.62746048334549       -1.11702868740681
H            9.99083833193360       22.70486851175484       -0.95615195659778
H            8.41890972625021       23.39727774952317       -1.43474561677907
S            9.30158410336093       24.49648892585183        0.49909074296557
C            7.81253501600886       23.64922668852580        1.11132798927302
H            7.99773925804485       22.58173455717142        1.17551224447240
H            6.98336436361940       23.86328794919944        0.44193926659841
H            7.60379823090559       24.04574502655846        2.09877891292953
