78
 energy: -116.058078218312 gnorm: 0.000044215615 xtb: 6.7.1 (edcfbbe)
Fe         -18.25068908999190       -7.95508451237425       18.01088028617782
N          -17.16648319328744       -7.72798799485409       19.69244538688380
N          -16.62176724732435       -8.69083992312444       17.07750420560515
N          -19.32994071837703       -8.23942803507167       16.35945484948756
N          -19.86302322235637       -7.28105378247410       18.96604527123298
C          -17.59324904491373       -7.20750145962410       20.87388503937048
C          -16.51263889723542       -7.16044283922384       21.83209966855996
C          -15.41733424417747       -7.66294732041879       21.20015260149482
C          -15.84336539085611       -8.00692382363819       19.86253909226096
C          -15.37150348946738       -8.84396892835751       17.60030068053748
C          -14.45969064490706       -9.34847727824228       16.60824442163923
C          -15.18477923813245       -9.48586623879789       15.45271776929306
C          -16.53591978202554       -9.07494162039039       15.77653818360433
C          -18.88252454793857       -8.69731487820081       15.15874747770750
C          -19.95327284392722       -8.74030496700452       14.19403243992071
C          -21.07196255432111       -8.29141883612144       14.84276472957758
C          -20.65245383244259       -7.98991533206969       16.19871722198291
C          -21.11456448079681       -7.15239903916305       18.45604485916040
C          -22.02021197448440       -6.61138425544974       19.44756365756045
C          -21.28046583886073       -6.41359480193617       20.57001061533681
C          -19.93423243749370       -6.83801165151425       20.24819092508498
C          -18.88351228106459       -6.79107189693846       21.14363214022408
H          -19.08474666084110       -6.40323024051651       22.13039536756186
C          -15.00439657766862       -8.53546512168099       18.90053964196486
H          -13.97395895668260       -8.69741630376504       19.17790696177224
C          -17.58148064235752       -9.07060718699677       14.87400711259017
H          -17.36599489556765       -9.38204790922340       13.86351736526177
C          -21.49424338478947       -7.47718013569311       17.16818158901465
H          -22.52628518166224       -7.31197894412628       16.89856826419210
C          -14.03157286200559       -7.85067474720077       21.71637741920578
H          -13.74219488583700       -8.90088348405326       21.66795106612059
H          -13.95702403526010       -7.52353677831289       22.75044508176904
H          -13.31847148469589       -7.27698899895976       21.12346143270269
C          -16.64710388358405       -6.65076513949084       23.22591595001572
H          -17.38363717098846       -7.23493235648062       23.77814059930481
H          -16.97473416710099       -5.61100618953643       23.22317895912962
H          -15.69829798013254       -6.70978767958497       23.75364011039307
C          -13.03494847508928       -9.70556578158331       16.85447505650311
H          -12.91157815201795      -10.14233796865980       17.84449373432433
H          -12.39396583807872       -8.82424879807852       16.79260751229722
H          -12.69818496368389      -10.42620102368623       16.11194256610496
C          -14.75755906804213       -9.97029774026337       14.15915117193549
H          -15.50567539985731      -10.51190024166986       13.59200294294678
C          -13.55126375488281       -9.79638250742603       13.62878977414104
H          -12.78349280586555       -9.22708672506402       14.12301711105889
H          -13.29825854773427      -10.19879494756899       12.66193144725586
C          -19.83371246345899       -9.25476150698197       12.80201563025994
H          -19.18149775210564      -10.12619561644131       12.76798026908111
H          -19.41581751967571       -8.49436113250433       12.14002946285896
H          -20.81356921862105       -9.53919202185540       12.42412882216892
C          -22.42398843498239       -8.15303457998502       14.34831362361576
H          -23.20815399769249       -8.34696069139165       15.07095026665395
C          -22.76062006417099       -7.80822848922075       13.10963275758143
H          -22.02528930481277       -7.55885067731865       12.36455349319976
H          -23.79162495380630       -7.73862282697008       12.80442582905344
C          -23.46877210776438       -6.35386493612802       19.21115110808921
H          -23.98241787998136       -7.27834530745828       18.94685335979980
H          -23.60501821669381       -5.64576373797015       18.39328612383844
H          -23.93938408091087       -5.94354550682500       20.10124690528655
C          -21.69915138498100       -5.87853135035094       21.89644443739788
H          -22.75598160616399       -5.62340494729579       21.89434627445138
H          -21.13017180894180       -4.98244606140942       22.14561952190519
H          -21.52654437255138       -6.61730127422069       22.67940840817561
O          -18.64398132918753      -10.10086443368514       18.72102740830148
H          -18.28535732797873      -10.04050820795647       19.61318228851631
H          -17.99565648797209      -10.57217791341441       18.18653873611703
C          -18.32489920513281       -2.74970241746468       16.01730302151233
H          -17.77840135533193       -2.54901701017994       15.09592665777922
H          -18.13322811680143       -1.93215303027061       16.71225938482683
H          -19.38673578973997       -2.77480939238332       15.79368659397259
N          -16.61723984109475       -4.31155846872582       16.97442414577349
H          -15.84048030756990       -3.67668198005571       16.88993823391339
C          -17.91009990587398       -4.04915174423240       16.60372123943044
C          -16.57951402923320       -5.57048017496255       17.46575561791813
H          -15.69315126387410       -6.04489455931643       17.83299478213657
N          -17.76877553643529       -6.12046127570349       17.42913901736574
C          -18.60750850177598       -5.18621923917917       16.89564859341899
H          -19.64860106587825       -5.39371312351385       16.75791822530464
