72
 energy: -105.980558086732 gnorm: 0.000059025886 xtb: 6.7.1 (edcfbbe)
Fe           6.48125516712668       14.91466153224328      -63.71581576556700
N            5.10320090990131       14.77253406747307      -62.28490647257458
N            7.14060035423469       13.07745951085208      -63.27752989077042
N            7.92380416461993       15.09660583128381      -65.11290549800847
N            5.87586309208934       16.78412377376598      -64.11439882338055
C            4.16611909245775       15.69782802272485      -61.95736282368018
C            3.33452150089761       15.22316471903535      -60.87195395261922
C            3.80273963681100       13.99022227183544      -60.54478329607190
C            4.90879283335566       13.72645826261110      -61.44007954492167
C            6.68215023185420       12.26120143252930      -62.29043164801641
C            7.40527081887422       11.01545115621171      -62.27741621020275
C            8.32021593142907       11.09091978023670      -63.29329135378951
C            8.14550211228524       12.40016572315185      -63.89146962972713
C            8.80669993009598       14.13338416247251      -65.50238099124225
C            9.64889618828752       14.61262661172398      -66.56618775564613
C            9.25516412988421       15.90079363759705      -66.81845627497607
C            8.17268615525562       16.17743463610709      -65.89762025780126
C            6.38986640330520       17.63191349248883      -65.04534486742935
C            5.64445235957011       18.87074604199493      -65.07420924798760
C            4.65752385920801       18.74396871392320      -64.14756144014970
C            4.81842161243402       17.43308003833775      -63.55941842093629
C            4.01266231107597       16.93399887427886      -62.55534481607209
H            3.20991700950317       17.56239007340411      -62.20251813682425
C            5.64097247021997       12.55722421958246      -61.42811264455546
H            5.37414705608254       11.81151299556508      -60.69553727092201
C            8.90202691211382       12.86929668987472      -64.94770763672985
H            9.63945044512261       12.20169548648279      -65.36500948568889
C            7.46538202975362       17.36479480330659      -65.86965046368499
H            7.75572013244858       18.13356938478535      -66.56819568593646
C            3.32811075244034       13.04532133630461      -59.49546680156063
H            2.48484519973311       13.46362059807469      -58.95173696047858
H            4.12545043233071       12.83507895624775      -58.78259604347831
H            3.01473705333655       12.10091895657634      -59.94137089527970
C            2.20788767284211       15.99576483553145      -60.27783422193109
H            1.46473381283698       16.23674368666210      -61.03823875802441
H            2.56929796000699       16.93094360544584      -59.84981709076186
H            1.72059190408924       15.42528771839725      -59.49114176939496
C            7.20674969602197        9.92144234992160      -61.28820760894210
H            6.35721476274449        9.29409624240760      -61.56403641641581
H            7.01679783942471       10.33021668634756      -60.29706867745400
H            8.09519499753290        9.29512573542264      -61.24259785579684
C            9.30893917642239       10.11947146970238      -63.70697907471506
H           10.24396199469985       10.52765889157050      -64.07250710111066
C            9.14972062840251        8.80063960215090      -63.67642732598297
H            8.22685947784131        8.34170313381328      -63.36707220065325
H            9.93470402149243        8.13147824178296      -63.98700557845353
C           10.76690551947248       13.84892893093246      -67.18407889663216
H           10.39517819898169       13.16821710833124      -67.95160014565310
H           11.29138983789322       13.25748119952505      -66.43508135714049
H           11.47544151122081       14.53344696653438      -67.64583099124694
C            9.78496195931642       16.84966503679475      -67.77323559154358
H            9.76916097191077       17.88724119742723      -67.46004067027076
C           10.26655646601907       16.54535210731950      -68.97351833967690
H           10.26140578216426       15.53918976322853      -69.35465361756491
H           10.65871501284227       17.30309514870893      -69.63118967285570
C            5.95266098724370       20.01447972173756      -65.97732858195828
H            5.87621116210943       19.70777611087238      -67.02053824236049
H            6.96585320139014       20.37865804928463      -65.80509563047741
H            5.26074869037830       20.83602359986744      -65.81007932042949
C            3.59477400568864       19.71275524497095      -63.75928773378523
H            2.60718018091141       19.28709136910238      -63.93694984580415
H            3.68025866740646       20.63128721853407      -64.33432382175312
H            3.67059357093944       19.96172551790420      -62.70055655288827
O            7.95852607830527       15.82050419640171      -62.28772657363840
H            8.77790234752368       15.69637871380126      -62.78050877384057
H            7.72625190418064       16.75395432372807      -62.35449512225356
C            3.97333012769822       12.80366289249438      -64.63266467490033
H            3.52339086786333       12.20993180039608      -65.42242930490730
H            3.20608320258734       13.33693542945842      -64.08112683555710
H            4.55171962030911       12.18640622389741      -63.95372755798845
S            5.05488064039997       14.07256657827662      -65.38046173593203
H            5.90709725276946       13.19750755820995      -65.92676572259825
