72
 energy: -105.876317757887 gnorm: 0.266639050066 xtb: 6.7.1 (edcfbbe)
Fe           8.80700000000000       18.84300000000000       -1.95800000000000
N           10.36400000000000       18.97700000000000       -3.32000000000000
N            8.52000000000000       16.87900000000000       -2.58400000000000
N            7.03600000000000       18.78600000000000       -0.94700000000000
N            8.88200000000000       20.87800000000000       -1.74100000000000
C           11.08700000000000       20.11700000000000       -3.61100000000000
C           12.20300000000000       19.78700000000000       -4.47800000000000
C           12.15100000000000       18.45100000000000       -4.68800000000000
C           10.98900000000000       17.93300000000000       -3.96700000000000
C            9.43700000000000       16.13200000000000       -3.27600000000000
C            8.98100000000000       14.74700000000000       -3.24900000000000
C            7.83600000000000       14.70500000000000       -2.55000000000000
C            7.53000000000000       16.05600000000000       -2.11300000000000
C            6.19400000000000       17.69000000000000       -0.85200000000000
C            5.01800000000000       18.07500000000000       -0.10200000000000
C            5.14900000000000       19.36800000000000        0.25900000000000
C            6.41700000000000       19.81800000000000       -0.29000000000000
C            7.92500000000000       21.59500000000000       -1.02400000000000
C            8.18100000000000       23.01600000000000       -1.19800000000000
C            9.38200000000000       23.12000000000000       -2.12900000000000
C            9.74900000000000       21.74900000000000       -2.41400000000000
C           10.79300000000000       21.38000000000000       -3.19500000000000
H           11.46500000000000       22.17300000000000       -3.52300000000000
C           10.56400000000000       16.61000000000000       -3.90900000000000
H           11.18700000000000       15.87400000000000       -4.41700000000000
C            6.44100000000000       16.43900000000000       -1.37500000000000
H            5.69000000000000       15.67300000000000       -1.18100000000000
C            6.93700000000000       21.08800000000000       -0.21400000000000
H            6.53200000000000       21.74800000000000        0.55300000000000
C           13.09500000000000       17.57600000000000       -5.52900000000000
H           13.88600000000000       18.21200000000000       -5.98000000000000
H           12.52300000000000       17.08100000000000       -6.34300000000000
H           13.57400000000000       16.81100000000000       -4.88200000000000
C           13.22700000000000       20.82800000000000       -5.01400000000000
H           13.60900000000000       21.44100000000000       -4.17000000000000
H           12.73200000000000       21.49700000000000       -5.75000000000000
H           14.08100000000000       20.30300000000000       -5.49300000000000
C            9.74600000000000       13.59500000000000       -3.94500000000000
H           10.34500000000000       13.03900000000000       -3.19200000000000
H           10.43100000000000       14.01000000000000       -4.71500000000000
H            9.02300000000000       12.89600000000000       -4.41700000000000
C            6.93300000000000       13.49800000000000       -2.20500000000000
H            5.92800000000000       13.66900000000000       -1.79200000000000
C            7.32200000000000       12.23500000000000       -2.38800000000000
H            8.31800000000000       12.01100000000000       -2.79800000000000
H            6.65200000000000       11.40200000000000       -2.13100000000000
C            3.85200000000000       17.12100000000000        0.20400000000000
H            4.23400000000000       16.08000000000000        0.27800000000000
H            3.10100000000000       17.17200000000000       -0.61300000000000
H            3.38200000000000       17.40100000000000        1.17100000000000
C            4.15600000000000       20.23500000000000        1.08700000000000
H            4.53900000000000       21.11400000000000        1.62600000000000
C            2.84100000000000       19.98200000000000        1.19300000000000
H            2.39500000000000       19.11799999999999        0.67900000000000
H            2.19300000000000       20.63600000000000        1.79600000000000
C            7.36300000000000       24.17500000000000       -0.59600000000000
H            7.52400000000000       24.21099999999999        0.50300000000000
H            6.28200000000000       24.01500000000000       -0.79600000000000
H            7.69300000000000       25.13800000000000       -1.04100000000000
C           10.01700000000000       24.42500000000000       -2.64000000000000
H            9.87900000000000       25.22600000000000       -1.88300000000000
H            9.52600000000000       24.73600000000000       -3.58700000000000
H           11.10400000000000       24.27200000000000       -2.80800000000000
O            7.77900000000000       19.09000000000000       -4.37700000000000
H            8.52400000000000       19.14900000000000       -4.97500000000000
H            6.91900000000000       19.11500000000000       -4.60300000000000
C           11.74100000000000       18.36800000000000       -0.49500000000000
H           11.97800000000000       17.43300000000000       -1.04600000000000
H           12.39300000000000       18.41100000000000        0.40400000000000
H           11.97900000000000       19.22700000000000       -1.15800000000000
S           10.00600000000000       18.41900000000000       -0.00900000000000
H           10.03200000000000       19.68500000000000        0.38000000000000
72
 energy: -105.939774481121 gnorm: 0.112618626715 xtb: 6.7.1 (edcfbbe)
Fe           8.74184055534861       18.86484370888100       -2.05941619275432
N           10.38574185376142       18.97536002662689       -3.30266828020471
N            8.53732496805325       16.87466932886672       -2.54963689880156
N            7.01896408127211       18.79193807430423       -0.96438846990281
N            8.86521930266391       20.87714990464740       -1.75496646197324
C           11.09245625531754       20.11085855942570       -3.60790111688701
C           12.20901590971823       19.78519909045926       -4.47785748329696
C           12.15249254063347       18.44200743606175       -4.69085082941501
C           10.99536605694999       17.93815793700753       -3.95570483180451
C            9.42930717872972       16.12694546167037       -3.26316467872861
C            8.98592812977016       14.73571742101731       -3.25667093134287
C            7.82095348832154       14.68670400991230       -2.55022604610396
C            7.54168957993128       16.05040213899955       -2.11373798131005
C            6.18999204559095       17.70335887358336       -0.85093674806745
C            5.00846235201438       18.07181283085296       -0.09454837067758
C            5.14406078081181       19.37851933598900        0.27817100463567
C            6.42388480983315       19.81561364179917       -0.27858025042771
C            7.96358681675745       21.61435776622436       -1.02204198023563
C            8.21647512292940       23.02630347591958       -1.21293516510734
C            9.34047603870157       23.12320381574033       -2.08873305242066
C            9.71826608161012       21.76224423713339       -2.38636952460384
C           10.78488566232484       21.38760821528411       -3.18514993718746
H           11.44920094102674       22.17617094434254       -3.52379699267851
C           10.56180557318014       16.61508619678369       -3.90345904695882
H           11.18060232574837       15.88634820191428       -4.41771253863330
C            6.44305703532316       16.44398992851116       -1.37375904496614
H            5.69782819672798       15.68078388036953       -1.17761602475483
C            6.95012896529748       21.09659646688488       -0.21474228463557
H            6.51172842293410       21.76622610397246        0.51880899174093
C           13.08286533110274       17.58498229148219       -5.51996789800626
H           13.86894079771917       18.20002862845364       -5.97142150137205
H           12.53108233221668       17.08695162869630       -6.32587020810989
H           13.56079645284691       16.82226532008722       -4.89371745172781
C           13.20922358486332       20.80776662082709       -5.00264605126702
H           13.59816103602505       21.42371068117623       -4.18248112915806
H           12.73653734497934       21.47635764640955       -5.73351527683358
H           14.05783871797169       20.30990904009511       -5.48361706153308
C            9.73909992340064       13.61025921867727       -3.93970765350603
H           10.33512016988218       13.05212366890355       -3.20524149194692
H           10.41720792958282       14.00379526788500       -4.70267792395884
H            9.03846105308581       12.91836100333100       -4.41958304751711
C            6.95551702132535       13.51049771219042       -2.21991274100191
H            5.96348695414932       13.69672443358517       -1.80667779479491
C            7.32460967911103       12.24381825223457       -2.38842387252224
H            8.30085214400674       11.99377647896010       -2.77646802396228
H            6.66233448773078       11.42103776896364       -2.13492682777904
C            3.86767220173682       17.12513562924521        0.20270647787652
H            4.22973633584021       16.09441618640378        0.27587057384590
H            3.11584659154719       17.17057973543959       -0.59614375257203
H            3.39586300612526       17.39074942023753        1.15435310370578
C            4.17238835921141       20.21578307009049        1.06757753413753
H            4.56377103813727       21.08582706454521        1.59652294579208
C            2.86434426703960       19.97784999736659        1.18274876778750
H            2.39302474086060       19.14432781768448        0.67865555701622
H            2.22048573007031       20.62003955854129        1.78101077352132
C            7.39073190619863       24.15169985073830       -0.61335078442803
H            7.52842009319091       24.20320957605573        0.47676004467763
H            6.31708320621989       24.00909037022353       -0.79999157171445
H            7.68897851961924       25.11639596037826       -1.03699239919661
C            9.99202470824091       24.39220293908408       -2.61761831410738
H            9.87688696455779       25.20694883689703       -1.89335296121753
H            9.53199475004221       24.71802137627855       -3.56216464573815
H           11.06807893811902       24.26110978810530       -2.79920145963004
O            7.80169839963868       19.10111037496682       -4.33142780423708
H            8.51955091662044       19.14601554269236       -4.96119348314824
H            6.90150966026552       19.11402419199240       -4.60391414643764
C           11.75664637421896       18.37390105719193       -0.49775038231656
H           11.96293683592377       17.44407650654746       -1.03782661501981
H           12.38543649219256       18.41101035852842        0.39933555747897
H           11.98265373216717       19.21907214672320       -1.15411376199411
S           10.00105318080086       18.42062018987112       -0.04860946541035
H           10.03230702013244       19.68123977902854        0.38255733382936
72
 energy: -105.960473950997 gnorm: 0.044836921662 xtb: 6.7.1 (edcfbbe)
Fe           8.72160148526052       18.86812140984458       -2.11523086421781
N           10.38699081407174       18.97904200879173       -3.29580676221672
N            8.54554022808897       16.88254186842730       -2.53195987285609
N            7.00230550506745       18.80194349405997       -0.99943729958380
N            8.83905182379224       20.87262320396831       -1.78213937983648
C           11.08808995204217       20.10715687856617       -3.60050722951738
C           12.20683655915343       19.78374701532151       -4.46830229415659
C           12.14775977412063       18.43564039154805       -4.68286402570915
C           10.99462490333810       17.94494686314192       -3.93949341337116
C            9.42578553948803       16.13069346315234       -3.24736328101477
C            8.99476112427154       14.73989186994519       -3.26087595306649
C            7.81720512570451       14.68272268417912       -2.54837479235271
C            7.55452503139293       16.05410128339970       -2.11351286671139
C            6.18772627020331       17.71946350020837       -0.86578126319329
C            5.00905412561208       18.06763307073037       -0.09560435772625
C            5.14866427200126       19.38306622050810        0.28466225440432
C            6.42745297303360       19.81615970316517       -0.29063854735239
C            7.97877133150024       21.62055620682784       -1.03615010351461
C            8.25060840865524       23.03015431668634       -1.22066723049274
C            9.30699948888495       23.11998274769168       -2.05266387448964
C            9.68592478307675       21.76208738000384       -2.37947119313214
C           10.76882469139994       21.39097518235186       -3.17873658856959
H           11.42469000966110       22.17845536517910       -3.52343533299186
C           10.56129762477665       16.62284245300455       -3.89123644493403
H           11.17180269955748       15.90224085624022       -4.41967779647025
C            6.44856670552764       16.45189815145918       -1.37569025632267
H            5.71033534453919       15.68969222607323       -1.17161828053608
C            6.94959008462883       21.10340888288825       -0.23647172229553
H            6.48070811336374       21.78683200526915        0.46251198514785
C           13.06588476454454       17.59268238162926       -5.50624963521836
H           13.84810266222472       18.19759333315814       -5.95803432375386
H           12.52626158583902       17.09163308413527       -6.30848852673939
H           13.54420234848429       16.82868942048820       -4.89454745728626
C           13.18909202974713       20.78503680581898       -4.98930955341246
H           13.58121904495307       21.40269097329325       -4.18204225445407
H           12.72576809560580       21.45217199902906       -5.71732309293852
H           14.03284044747251       20.30012936291598       -5.47367793314256
C            9.73160800320187       13.63255294518214       -3.93666026697653
H           10.32362279280783       13.06855446904600       -3.21360372758965
H           10.40928767749318       14.01261886718628       -4.69467784268833
H            9.04224987858599       12.94436488245466       -4.42090786416140
C            6.98646824394458       13.53663488766744       -2.23588356946116
H            6.00227546582884       13.74114792420125       -1.82838802408508
C            7.33070966853008       12.25843191365087       -2.38739533722720
H            8.29402960516031       11.97105731079569       -2.75560799980074
H            6.66389282876406       11.45022115568795       -2.13512622279385
C            3.88796497116249       17.12960567852928        0.20299480054873
H            4.23934110891456       16.10425232847102        0.27102127448461
H            3.13206832302415       17.17215155850538       -0.58312983499956
H            3.41438096925463       17.38642678520471        1.14670298486615
C            4.20829026335459       20.19029637292705        1.04628672709160
H            4.61080314105168       21.05712877308628        1.55998140608004
C            2.89872417781075       19.97279417912684        1.16840555791436
H            2.39384272679990       19.16784716663501        0.66804216473476
H            2.26384807529288       20.61148649501857        1.76444449239981
C            7.42292594529974       24.13049460608507       -0.62545731352801
H            7.54675622833289       24.18257721871284        0.45878105262268
H            6.35824341941288       23.98358876413433       -0.81633920078162
H            7.70200246221404       25.09553670229689       -1.04034754433673
C            9.96644918578533       24.36114266905689       -2.59021625335551
H            9.86494651258442       25.18610492134070       -1.88688897978618
H            9.51927861439780       24.68102349312037       -3.53531196092632
H           11.03202387873670       24.22261161245357       -2.77766257344511
O            7.80572767581715       19.15747026735194       -4.25808707769966
H            8.49541535114211       19.13057651232548       -4.93061884746453
H            6.90270109607567       19.09724515886192       -4.59608414538491
C           11.76914492267553       18.37876464865300       -0.50531335167433
H           11.94988714986511       17.44864319325514       -1.03331293749495
H           12.37276085020097       18.41320479115982        0.39626333712946
H           11.99031850954495       19.21528366233775       -1.15590356282515
S           10.00071253989050       18.41620594515553       -0.06058164400715
H           10.02183196595699       19.67770407722133        0.38379184864605
72
 energy: -105.966816239349 gnorm: 0.045750999218 xtb: 6.7.1 (edcfbbe)
Fe           8.70188664856355       18.87655182008807       -2.15152009877217
N           10.38613861915617       18.97845323878150       -3.28025359539566
N            8.55548193741873       16.89152552677723       -2.52596314558273
N            6.99380574479189       18.80548712104744       -1.03159024107857
N            8.82116937073105       20.87044891718956       -1.80091489446684
C           11.08302135382002       20.10393203952045       -3.59098092434109
C           12.20053911704173       19.77821904862884       -4.45376216321289
C           12.14276927971518       18.43191142818835       -4.66692250286438
C           10.99488437834825       17.94626047874735       -3.92285480326096
C            9.43587003065356       16.13854922113888       -3.23804055198064
C            9.01054533363532       14.75393847149564       -3.26001577268157
C            7.83383487257271       14.69305931005246       -2.54785568938897
C            7.56664382049643       16.06050397545161       -2.11316161499274
C            6.18914528787798       17.72064599705593       -0.88724819502188
C            5.01824285949817       18.05810842218858       -0.10880068905824
C            5.15879943673529       19.37316910335494        0.26735098525411
C            6.42457451352307       19.81338538727039       -0.31736231497834
C            7.96570882572614       21.61166429521720       -1.04698566516808
C            8.24852791301503       23.02223300862760       -1.20623672117134
C            9.31255524960648       23.11196807108360       -2.04924613279568
C            9.67676465579667       21.75265997894684       -2.38948034157819
C           10.75901481355482       21.38870229668166       -3.18177865367497
H           11.40544634500911       22.18014971011860       -3.53271334315968
C           10.56746375578956       16.62748826264690       -3.88261054754785
H           11.17197639184368       15.91251073715135       -4.42293921397990
C            6.45602409758965       16.45216540665242       -1.38355213173001
H            5.72485594889720       15.68748506869081       -1.16789652442196
C            6.93075639323818       21.10322953513873       -0.26349920218754
H            6.42964593358594       21.80330514321546        0.39979902815792
C           13.05274855595858       17.58983830307692       -5.49399715313228
H           13.83234478769185       18.19710158746255       -5.94698740013367
H           12.50762170058383       17.09101333170091       -6.29434447544739
H           13.53089523726333       16.82320281948442       -4.88508065002222
C           13.17707470744247       20.77366464239163       -4.97914579233363
H           13.57061135044465       21.39058538962818       -4.17218866029225
H           12.70618996174534       21.43623396879886       -5.70618667126707
H           14.01539498240849       20.28294077442936       -5.46666034978308
C            9.73689856856614       13.65132219535848       -3.94563287807266
H           10.32152590364578       13.07680035189749       -3.22437580949456
H           10.41824343528822       14.03381739434046       -4.69969481961477
H            9.03949814062852       12.97523294339075       -4.43643439674628
C            7.00313934365805       13.55470779159234       -2.24519627190828
H            6.01928635856417       13.78023572076413       -1.85013151128827
C            7.32882908872473       12.26812719911053       -2.38029373667351
H            8.29733446408647       11.94717526711567       -2.71753232485300
H            6.64195059020987       11.47790178208483       -2.12768062086896
C            3.90542458640675       17.12100895710023        0.20455103751164
H            4.25925642806200       16.09574219106539        0.26705645783055
H            3.14128906887850       17.16589894017805       -0.57401491668231
H            3.44157431411359       17.37981714075010        1.15298192930770
C            4.23976940488287       20.18373364458028        1.02962412738093
H            4.66371048224016       21.04225624436847        1.53899615881033
C            2.92787244712708       19.98280860296189        1.15617166099809
H            2.40033983660215       19.19699122242008        0.64425463740879
H            2.31018171250663       20.62521764490829        1.76255087088864
C            7.43273783580682       24.12166336905181       -0.61584706288090
H            7.55950259307338       24.16586153442473        0.46623449571663
H            6.37474234938821       23.96314298182553       -0.82272807301240
H            7.71897797693680       25.08171737953586       -1.03626975664700
C            9.96431508441435       24.34704030273759       -2.57894645050822
H            9.85731514672407       25.16934187105585       -1.87492465231580
H            9.50759780532024       24.65019276443470       -3.52282733813460
H           11.02555743536684       24.19122561537690       -2.76024212731698
O            7.78552629540488       19.27320227597255       -4.18488783599140
H            8.46201391932401       19.09095046379628       -4.88311691034179
H            6.89235486607753       19.06489112124342       -4.55955787978266
C           11.76876610487206       18.38216295189705       -0.51291383832536
H           11.94252878712023       17.44831014114610       -1.03585778068822
H           12.35829566901040       18.41389352210442        0.39870476453291
H           12.00140299306265       19.21657890977259       -1.16253551109480
S            9.99064357422906       18.41979887531941       -0.08947519908031
H           10.00662317790807       19.67393884819702        0.37861837542850
72
 energy: -105.968998229528 gnorm: 0.046496030038 xtb: 6.7.1 (edcfbbe)
Fe           8.70088645914494       18.87789829282017       -2.16343572319959
N           10.37597816350758       18.97810455439793       -3.26349541574966
N            8.56445802245189       16.90752623230928       -2.52725443448458
N            6.98795163311483       18.80920441895785       -1.07469122403215
N            8.79997258268922       20.86104560547439       -1.82343799695349
C           11.07110748149456       20.10040447614455       -3.58074157662179
C           12.18862348890424       19.77195213505336       -4.43501546604226
C           12.13434296463258       18.42857732883528       -4.64511757060708
C           10.99135397031036       17.94854288090751       -3.90389332454779
C            9.44802545388664       16.15037799108442       -3.23126065353801
C            9.03196839523750       14.77367992833486       -3.25692826899328
C            7.85847380573813       14.70909082642096       -2.54603775735196
C            7.58143829374594       16.07064736175549       -2.11487246176144
C            6.19329730205204       17.72083806989857       -0.91711384124556
C            5.03252450250317       18.04615666788080       -0.12924048406174
C            5.17304838890918       19.35995655895965        0.23794673913545
C            6.41969681892780       19.81030875806115       -0.36020584926841
C            7.94606671198794       21.59609686875510       -1.06562586522981
C            8.24323380244537       23.00677755600820       -1.19357648552672
C            9.31991079433146       23.09667131548345       -2.04661609495670
C            9.66391425529121       21.73630185556162       -2.40394199842389
C           10.74298289871611       21.38535940678804       -3.18815489967467
H           11.37703889753348       22.18295071439059       -3.54625007923011
C           10.57542426513479       16.63320474741265       -3.87423158228256
H           11.17683941811377       15.92504545096638       -4.42354328921548
C            6.46678065907413       16.45156506214240       -1.39431448136176
H            5.74480070364675       15.68374568281352       -1.16208971661710
C            6.90083196809847       21.10417538702376       -0.30725068363919
H            6.36610617305212       21.82144729231336        0.31356698872907
C           13.03653314335906       17.58461990902837       -5.47616534254223
H           13.81394518629974       18.19409973910590       -5.93173364057954
H           12.48294145121241       17.08910697152647       -6.27458680524474
H           13.51430545573844       16.81448301551838       -4.86969445855426
C           13.16176170827197       20.76248713247285       -4.96671100391136
H           13.55823136141590       21.37902648958558       -4.16029162268323
H           12.68135216797297       21.41974185844250       -5.69307535311247
H           13.99381910412258       20.26332826503957       -5.45798113333230
C            9.74558864526495       13.67136500820969       -3.95303434325388
H           10.32294587634245       13.08431981069974       -3.23489761129407
H           10.43046934636901       14.05546995364212       -4.70528726305505
H            9.03425584096417       13.00929237481475       -4.44630620177775
C            7.02469212581926       13.57515167058523       -2.25149135951495
H            6.03689248907203       13.82347509564986       -1.88024701477768
C            7.33317456530272       12.28151279359988       -2.36468239997147
H            8.30260398445538       11.92462062360636       -2.67802949821637
H            6.61829102940986       11.51309716366114       -2.11770549156548
C            3.92812664926744       17.10926296905637        0.20684229680075
H            4.28552779576996       16.08345892623090        0.26538113475726
H            3.15180492821853       17.15401163385656       -0.56134987048754
H            3.47832953279209       17.37431592383770        1.16213276746914
C            4.27753985602971       20.17889732723325        1.00882337805536
H            4.73024792947664       21.02309721751426        1.51798619228030
C            2.96304778152514       19.99843138559772        1.13809623543486
H            2.41436173883384       19.22935123877206        0.61818098000224
H            2.36690540569523       20.64688120919974        1.75779520925697
C            7.44356131463915       24.10932963824346       -0.60607329932757
H            7.57249525579276       24.14637170183419        0.47434662179480
H            6.39141750908885       23.94315416582942       -0.82909044192173
H            7.74018626171830       25.06476444053410       -1.03122876584223
C            9.96204308980683       24.32814033992660       -2.56630937833694
H            9.84708951765842       25.14913502436741       -1.86257764300190
H            9.49591257338069       24.61336372396969       -3.51005981236883
H           11.01978389103468       24.15769874839163       -2.73974548963635
O            7.74955713488554       19.17801926199907       -4.13551558847982
H            8.40776947523624       19.16858939015275       -4.80841058990586
H            6.88064805447539       19.13779993617591       -4.50198096993745
C           11.76690451535406       18.38887872058114       -0.51863842944724
H           11.93473467282733       17.45043477199835       -1.03659142826097
H           12.34551373028957       18.42132816774042        0.40085963941319
H           12.00977173002773       19.22111105011456       -1.17018466973252
S            9.98362389037138       18.42331316749214       -0.10239976002001
H            9.98821400973748       19.67300861720962        0.37545572157987
72
 energy: -105.971677647748 gnorm: 0.016655713812 xtb: 6.7.1 (edcfbbe)
Fe           8.72928307805561       18.86163493915107       -2.12485382466007
N           10.36592527436748       18.97847627471762       -3.26276627252284
N            8.57018633655650       16.91133038574083       -2.52924930308251
N            6.99267128142515       18.80390098782409       -1.08795802150081
N            8.79443572076666       20.84892940522260       -1.83283174285584
C           11.06438900411998       20.09988047416149       -3.58164515882137
C           12.18513473402495       19.77304316686006       -4.43173623342958
C           12.13321209999084       18.42912497508631       -4.63851537243332
C           10.98885630260169       17.95046536525580       -3.90052775812094
C            9.45260923407596       16.15197528434263       -3.23352474453520
C            9.04029157177028       14.77492507958318       -3.25712300694024
C            7.86644896680162       14.70971390757180       -2.54710761076150
C            7.58854770291171       16.07081619923225       -2.11867154537448
C            6.19668041890342       17.71617282383665       -0.92846994706177
C            5.03488086264391       18.04085377508816       -0.14179811877260
C            5.17193311984832       19.35693177239479        0.21810942416980
C            6.41256275426325       19.80761256170842       -0.38838062491090
C            7.93903002324346       21.59079215707742       -1.08506328948959
C            8.24413209114451       22.99874355404601       -1.20667839278065