72
 energy: -105.980562156655 gnorm: 0.000050909655 xtb: 6.7.1 (edcfbbe)
Fe           8.69865944183637       18.84220216582708       -2.28745488917722
N           10.34936037584496       18.94935980427605       -3.39419519643852
N            8.52813340640749       16.89069942329355       -2.71362253537208
N            6.99267249865620       18.75074126287794       -1.21330099968634
N            8.80845776364742       20.80735430515081       -1.92756294966859
C           11.07971359437828       20.05904176618159       -3.67042366982982
C           12.22488554906844       19.72843958740362       -4.49113026496082
C           12.16697597686794       18.38745718629658       -4.70244286199881
C           10.98068950263694       17.92016294360198       -4.01672630452462
C            9.40443773341938       16.13535420053427       -3.42920490376440
C            8.96653750971917       14.76470611077358       -3.49381256845579
C            7.79371116028166       14.70185745112107       -2.79006524446172
C            7.54393278299047       16.04616060183743       -2.30824528761099
C            6.23020770577797       17.64467507555253       -0.98425304816122
C            5.12105099320477       17.95868985152589       -0.12288976899495
C            5.22921391022170       19.29190605046358        0.17525280623765
C            6.41334325493156       19.76141415685779       -0.51293598517088
C            7.95640592521120       21.55238170584081       -1.17362039186313
C            8.35579631688987       22.94234127459001       -1.17354411596480
C            9.46564432319757       23.02006167612634       -1.95519641843853
C            9.73214875479790       21.67603187714446       -2.41702779826441
C           10.79700964883272       21.33752293400944       -3.22926611358657
H           11.45813662882399       22.13104822555700       -3.54086361307391
C           10.55905608811528       16.60661372992523       -4.02763765717530
H           11.17280005375483       15.89318008403895       -4.55502879325112
C            6.47333319896391       16.38663772763628       -1.50541785683482
H            5.78010866881323       15.60245936143221       -1.24499141898980
C            6.85093137416097       21.07299998812123       -0.49699355672426
H            6.27326597900481       21.78391268831831        0.07263898662429
C           13.08991699467949       17.51098689938030       -5.47648750106904
H           13.92543480134676       18.08326970634972       -5.87172579043014
H           12.56582949313985       17.04770109303510       -6.31269836295630
H           13.48615139168328       16.71670214288773       -4.84360444995245
C           13.22845926000544       20.71974174585888       -4.97004641917188
H           13.71279109711912       21.21463245991992       -4.12773481713620
H           12.74795395305615       21.48394558851252       -5.58090750824264
H           13.99498689277832       20.23493999202917       -5.56930944466864
C            9.64925356599593       13.68276576670821       -4.25405282142481
H           10.47752490905473       13.26749535286322       -3.67796551853822
H           10.04874156767580       14.06384147365699       -5.19266039651745
H            8.94728678477636       12.88095450342755       -4.47364974237409
C            6.92237339488025       13.57013316232590       -2.56024714789882
H            5.86299817504681       13.79567713128922       -2.51498840219970
C            7.32132922164243       12.31309332101059       -2.39890045724830
H            8.36192168041745       12.04006942259213       -2.38586274626743
H            6.61561258503512       11.51391287457020       -2.24444445936849
C            4.12383018398877       16.97571657359164        0.38085364457010
H            4.60255701343857       16.02386118195016        0.60522475668427
H            3.34372129016313       16.79580098452803       -0.36088565609855
H            3.65509568212115       17.35225440480167        1.28756366543576
C            4.38669189129863       20.11401014710714        1.01609723442113
H            4.89573098093556       20.89735251016375        1.56564636273347
C            3.07116170016470       19.98301549058623        1.14886365025364
H            2.50868364984316       19.25398896697758        0.59206012885193
H            2.50508142857874       20.62290624831342        1.80500292868592
C            7.63721937385462       24.02243090076601       -0.44132444081535
H            7.61535289979181       23.81288053288277        0.62852680474911
H            6.60777783371765       24.10275615772670       -0.79097218171762
H            8.12561773392886       24.98184982289179       -0.59189606221457
C           10.29116813412201       24.20808427938687       -2.31028263511965
H            9.89073634050268       25.10825681055120       -1.85084077388355
H           10.30730266750740       24.35176586608265       -3.39060463055170
H           11.31935997788234       24.07801566978851       -1.97108209762215
O            7.38256238861744       19.23989022909410       -4.06151886416283
H            7.12989823131908       18.34478824416207       -4.31556395502241
H            6.61807291399504       19.63924301135670       -3.63091064893170
C           11.46698157210675       19.25662499108780       -0.34753034148350
H           12.12693563439329       18.70576426754828       -1.00953056216408
H           11.88000531163403       19.28366121085719        0.65614852653044
H           11.30629842007530       20.25603600837231       -0.73729099974614
S            9.88160472839669       18.34866039105384       -0.31772011404475
H            9.25936612882296       19.22010924566896        0.48421466570936
