87
 energy: -124.720482839966 gnorm: 0.000060121370 xtb: 6.7.1 (edcfbbe)
Fe          -8.53785436433636      -28.43737962321839      -44.69298758063984
N           -8.45257931223331      -29.39914450262272      -46.44090259757385
N          -10.53673173386188      -28.55352835527282      -44.72822589949038
N           -8.62993081235728      -27.47502353947618      -42.93208462688114
N           -6.53524392813762      -28.38926887020623      -44.61444866424159
C           -7.33263510191575      -29.74736382321936      -47.12543960712841
C           -7.67636427109037      -30.39142591680229      -48.37534786931340
C           -9.03374056574756      -30.42332014712060      -48.42632367836040
C           -9.49926244387033      -29.80128535233705      -47.20543771877557
C          -11.30592440743423      -29.10908707900673      -45.70075302970199
C          -12.70753309526747      -29.02639443495852      -45.35405885017570
C          -12.76488098049027      -28.40867884214173      -44.14357963570966
C          -11.39787108162640      -28.12066969892510      -43.77054721773539
C           -9.74739321708137      -27.16849312075877      -42.22560314530958
C           -9.40602176361883      -26.45607824613396      -41.01006120122975
C           -8.03867008173025      -26.37233570152480      -40.99274436600707
C           -7.57920536756318      -27.02514436902915      -42.19139830867010
C           -5.76822737210545      -27.84836607066493      -43.63309221061850
C           -4.35934111093290      -28.01744525572823      -43.93207171121519
C           -4.30677579208607      -28.69643187480107      -45.12062921681188
C           -5.67230870721983      -28.91209056628994      -45.52489394687911
C           -6.03599482496599      -29.53805908439148      -46.70461548503737
H           -5.24252558828809      -29.87967344197346      -47.35142072115229
C          -10.83411392871237      -29.67541570452439      -46.87046299043956
H          -11.56329275310720      -30.05555538165632      -47.56967425951185
C          -11.04292136536425      -27.46659682538746      -42.60660925516051
H          -11.84082777370147      -27.16008202032801      -41.94789842618064
C           -6.24281925169819      -27.18742397987268      -42.51649592025827
H           -5.51437284701197      -26.77010685173482      -41.83813654085372
C           -6.68117916011165      -30.89335979893796      -49.36438458804238
H           -6.03848215024765      -31.64958905726145      -48.91261256016331
H           -6.04846822362025      -30.07853621545522      -49.71646294536770
H           -7.17872451979365      -31.33628499394959      -50.22371090615984
C           -9.92847210392818      -30.96836507829888      -49.48640807724966
H          -10.58067832583001      -30.18593377827667      -49.87444735009868
H          -10.55722628240350      -31.76580784393751      -49.08856291497933
H           -9.34811132284842      -31.37132080598592      -50.31272629890497
C           -3.10830595611763      -29.19450641725396      -45.85004711721162
H           -2.84738110950190      -28.52671299312947      -46.67291423843341
H           -3.29477292840050      -30.18375085245300      -46.26543417117144
H           -2.25781249962317      -29.25469898928404      -45.17390843122224
C           -3.27665298731840      -27.56194732252840      -43.08884008293803
H           -3.47364235319587      -27.57708396741189      -42.02286223716033
C           -2.09509118563988      -27.12950744146265      -43.51729436367769
H           -1.86046096894945      -27.04694583956593      -44.56414589228550
H           -1.32668856363150      -26.81632007177164      -42.83004585075686
C           -7.16028808898699      -25.80440349037795      -39.93307973674985
H           -6.81182413337884      -24.80697919846548      -40.20723934604008
H           -6.28546307122253      -26.43425068213858      -39.77733420715209
H           -7.70714688064078      -25.73149486375405      -38.99522173587229
C          -10.36334012890052      -25.97896929440999      -40.03694425193267
H          -11.25023824013448      -26.58991125686715      -39.91361868721538
C          -10.23900472673136      -24.87141783932651      -39.31287376475689
H           -9.40414883688928      -24.20215038153000      -39.42769469673546
H          -10.98720032272510      -24.58127827530630      -38.59392270195021
C          -13.95419825518942      -28.05946120167599      -43.31665390906750
H          -14.00863328008319      -26.98177106702477      -43.16006582076800
H          -13.89700604841738      -28.54014237365090      -42.33968172903045
H          -14.87189040434946      -28.38081449411942      -43.80326613993218
C          -13.81674358286612      -29.53437919057977      -46.21024711586961
H          -14.78032719373468      -29.36226501880637      -45.73703324401547
H          -13.70789353010986      -30.60483565722667      -46.38732117378116
H          -13.81504117619900      -29.03077350896908      -47.17734067892115
C           -7.53441212190002      -32.61862208943607      -41.13624562725174
H           -7.01147958252636      -33.49790535199946      -41.51233186824044
H           -8.35630413990019      -32.95519475643648      -40.50430803839262
H           -6.84619800428347      -32.03683661994386      -40.53117413089572
N           -8.92413437781249      -32.25892203152529      -43.18855640370618
H           -9.31261348922725      -33.18745097665702      -43.21198883979238
C           -8.03800604554876      -31.78482115781339      -42.25681831761575
C           -9.17672414200288      -31.25747776583277      -44.06070995433685
H           -9.83700968773263      -31.34221332238317      -44.89880865345638
N           -8.50530474344901      -30.17943227260705      -43.73799333648494
C           -7.79229581871747      -30.49141217242431      -42.61871096158428
H           -7.15439899235347      -29.77076230525173      -42.15115353508850
C          -11.17623654926549      -25.48872734585534      -46.18824606491022
H          -11.98641579133134      -24.86972243888934      -45.80782527463153
H          -11.49837559835362      -26.52555870337975      -46.18124381991763
H          -10.96470783188574      -25.20030955772991      -47.21515696501216
C           -9.94141937691931      -25.31433740032561      -45.32571935969960
H          -10.13990030013254      -25.59153555373743      -44.29186944093060
H           -9.58188692099393      -24.28635461403412      -45.37094578464326
S           -8.57591926904551      -26.37958622056780      -45.94670572843845
C           -7.18294824522289      -25.37283437307066      -45.35027474687041
H           -7.23823058278279      -25.26967806416573      -44.27126962860005
H           -7.21260358757692      -24.40220120249767      -45.83851623180984
H           -6.27357241583409      -25.89726576212643      -45.62213564101209
