87
 energy: -124.486255875857 gnorm: 0.283342691363 xtb: 6.7.1 (edcfbbe)
Fe          -8.57000000000000      -28.48900000000000      -44.63600000000000
N           -8.48500000000000      -29.41300000000000      -46.42999999999999
N          -10.53100000000000      -28.57800000000000      -44.73400000000000
N           -8.64300000000000      -27.46500000000000      -42.87100000000000
N           -6.55800000000000      -28.39700000000000      -44.59400000000000
C           -7.35300000000000      -29.87800000000000      -47.04000000000000
C           -7.70000000000000      -30.51400000000000      -48.26900000000000
C           -9.07200000000000      -30.43700000000000      -48.39600000000000
C           -9.56800000000000      -29.74600000000000      -47.19799999999999
C          -11.32900000000000      -28.96900000000000      -45.77600000000000
C          -12.78400000000000      -28.84800000000000      -45.47599999999999
C          -12.82400000000000      -28.38700000000000      -44.17300000000000
C          -11.41700000000000      -28.26200000000000      -43.76300000000000
C           -9.81800000000000      -27.33300000000000      -42.17500000000000
C           -9.47500000000000      -26.66700000000000      -40.92600000000000
C           -8.09600000000000      -26.39500000000000      -40.97000000000000
C           -7.62100000000000      -26.93700000000000      -42.21400000000000
C           -5.81400000000000      -27.73300000000000      -43.64099999999999
C           -4.37100000000000      -27.93200000000000      -43.93600000000000
C           -4.36700000000000      -28.73600000000000      -45.02800000000000
C           -5.71200000000000      -29.00100000000000      -45.41299999999999
C           -6.06300000000000      -29.73500000000000      -46.56600000000000
H           -5.26100000000000      -30.22300000000000      -47.12100000000000
C          -10.90700000000000      -29.47900000000000      -46.97100000000000
H          -11.63500000000000      -29.67800000000000      -47.75700000000000
C          -11.07700000000000      -27.72200000000000      -42.48700000000000
H          -11.85900000000000      -27.61900000000000      -41.73600000000000
C           -6.29300000000000      -26.97300000000000      -42.59300000000000
H           -5.58200000000000      -26.36600000000000      -42.03200000000000
C           -6.72400000000000      -31.12200000000000      -49.23799999999999
H           -6.25700000000000      -31.81700000000000      -48.50800000000000
H           -6.08300000000000      -30.22000000000000      -49.33800000000000
H           -6.81200000000000      -31.63500000000000      -50.21900000000000
C           -9.91700000000000      -31.05500000000000      -49.51500000000000
H          -10.37100000000000      -30.11300000000000      -49.89000000000000
H          -10.62900000000000      -31.54600000000000      -48.81800000000000
H           -9.70900000000000      -31.72300000000000      -50.37799999999999
C           -3.13100000000000      -29.29300000000000      -45.72300000000000
H           -2.71900000000000      -28.28500000000000      -45.94300000000000
H           -2.80800000000000      -29.99600000000000      -46.52000000000000
H           -2.74600000000000      -29.63300000000000      -44.73799999999999
C           -3.24900000000000      -27.24299999999999      -43.23200000000000
H           -2.77400000000000      -27.71700000000000      -42.36300000000000
C           -2.39600000000000      -26.55600000000000      -44.05500000000000
H           -2.77600000000000      -26.04600000000000      -44.95300000000000
H           -1.32100000000000      -26.50600000000000      -43.82800000000000
C           -7.20000000000000      -25.76400000000000      -39.90100000000000
H           -6.77000000000000      -24.99300000000000      -40.57500000000000
H           -6.47500000000000      -26.60000000000000      -39.80100000000000
H           -7.39200000000000      -25.30700000000000      -38.90700000000000
C          -10.43700000000000      -26.27600000000000      -39.88000000000000
H          -11.24000000000000      -26.99600000000000      -39.84300000000000
C          -10.38000000000000      -25.02500000000000      -39.35099999999999
H           -9.47900000000000      -24.40600000000000      -39.47599999999999
H          -11.23400000000000      -24.61600000000000      -38.79100000000000
C          -14.06900000000000      -28.10700000000000      -43.35700000000000
H          -14.49800000000000      -27.40200000000000      -44.10100000000000
H          -14.39000000000000      -27.79600000000000      -42.34000000000000
H          -14.44000000000000      -29.13100000000000      -43.57500000000000
C          -13.99900000000000      -29.13300000000000      -46.31900000000000
H          -14.44000000000000      -28.13100000000000      -46.12900000000000
H          -14.44300000000000      -29.86300000000000      -45.60900000000000
H          -14.22600000000000      -29.43400000000000      -47.36400000000000
C           -7.15300000000000      -32.72600000000000      -41.31100000000000
H           -6.73900000000000      -33.61700000000000      -41.83000000000000
H           -7.87900000000000      -33.06300000000000      -40.53999999999999
H           -6.32000000000000      -32.16900000000000      -40.83100000000000
N           -8.92900000000000      -32.26800000000000      -43.07899999999999
H           -9.33100000000000      -33.18300000000000      -43.05200000000000
C           -7.84100000000000      -31.84800000000000      -42.30100000000000
C           -9.32700000000000      -31.25300000000000      -43.84599999999999
H          -10.20100000000000      -31.27700000000000      -44.49600000000000
N           -8.47300000000000      -30.22200000000000      -43.67200000000000
C           -7.59500000000000      -30.56300000000000      -42.66600000000000
H           -6.86800000000000      -29.85000000000000      -42.29900000000000
C          -11.07800000000000      -25.29100000000000      -45.42000000000000
H          -11.61700000000000      -24.48700000000000      -44.87400000000000
H          -11.53400000000000      -26.26800000000000      -45.15300000000000
H          -11.18700000000000      -25.11300000000000      -46.51100000000000
C           -9.62700000000000      -25.28500000000000      -45.04500000000000
H           -9.54300000000000      -25.45700000000000      -43.95100000000000
H           -9.20600000000000      -24.28300000000000      -45.27399999999999
S           -8.68900000000000      -26.54800000000000      -45.92700000000000
C           -7.10200000000000      -25.72400000000000      -46.09300000000000
H           -6.67000000000000      -25.47600000000000      -45.09999999999999
H           -7.21900000000000      -24.77700000000000      -46.66200000000000
H           -6.38200000000000      -26.38100000000000      -46.62600000000000
87
 energy: -124.600101973046 gnorm: 0.150936268718 xtb: 6.7.1 (edcfbbe)
Fe          -8.57417173128682      -28.48004008678869      -44.65190246914837
N           -8.49249813534058      -29.42944005738634      -46.42724718092835
N          -10.54583117335959      -28.58457835217602      -44.72799628665175
N           -8.65335551894562      -27.47972097336315      -42.88512599647211
N           -6.57628176619338      -28.39386893093754      -44.57846854954400
C           -7.36266455587010      -29.88114970016585      -47.04272824174944
C           -7.71274541841065      -30.52234370772469      -48.28311454392085
C           -9.05910558532733      -30.45052911242288      -48.40748704151957
C           -9.55128922543934      -29.75276695346298      -47.22199637426523
C          -11.32942477249427      -28.96845196293025      -45.77958495042601
C          -12.74951145583070      -28.84027344570706      -45.46522161764455
C          -12.78962576925048      -28.38998708456472      -44.16500099763988
C          -11.41275935286389      -28.25136357841241      -43.74457438223169
C           -9.79846777896586      -27.34300043126052      -42.15374666029810
C           -9.46420420505423      -26.66400052203157      -40.91019146488222
C           -8.11692118735526      -26.39429389622913      -40.95249158750957
C           -7.63235799408388      -26.93892092085123      -42.20276502666836
C           -5.81887613264430      -27.72508834160237      -43.65096434249465
C           -4.39541210299495      -27.92113242324010      -43.94801626883817
C           -4.38080642322156      -28.74310918629666      -45.04012379770030
C           -5.72975655359069      -29.00903586286853      -45.41649211731417
C           -6.07415741007243      -29.73597425632209      -46.56023265229978
H           -5.26832003784878      -30.20909338839510      -47.11437823952580
C          -10.89044700612185      -29.47995732125259      -46.97935731174140
H          -11.62365309530862      -29.68688593879589      -47.75054184491746
C          -11.07014114576710      -27.72792909756267      -42.48948021892569
H          -11.85686616783745      -27.61190499948855      -41.75361398056013
C           -6.29696242011081      -26.97126725840522      -42.59549696882548
H           -5.58206151689906      -26.38274465875801      -42.02905725873924
C           -6.69290128424640      -31.11245617532258      -49.20781342206390
H           -6.21061070648536      -31.82978417733905      -48.53232930622796
H           -6.04114417692891      -30.24293423797883      -49.35923227265926
H           -6.85998229121622      -31.60645909184901      -50.17771265171826
C           -9.94986477533682      -31.02941667798000      -49.48587814509728
H          -10.40709742523612      -30.12673821564272      -49.90873361147811
H          -10.67253801942168      -31.55682903824487      -48.85227919205094
H           -9.66356817244658      -31.69098933377221      -50.32209535395744
C           -3.10980738940438      -29.26173149802932      -45.68319799912836
H           -2.65841098506500      -28.29811608851551      -45.94752072537829
H           -2.88681720770246      -29.97575189774259      -46.49498759567752
H           -2.66952953171829      -29.64096305814929      -44.75304908763762
C           -3.22266025533006      -27.29644449118542      -43.28623604073717
H           -2.79936401183455      -27.71564169678697      -42.36655219262622
C           -2.39580213203268      -26.56144651743226      -44.05199945364845
H           -2.76359958396388      -26.06520982042659      -44.94708249319965
H           -1.33956290951459      -26.46517607509681      -43.81147140659382
C           -7.17958015122941      -25.77157002681547      -39.93787561621405
H           -6.73012636451426      -24.97907958410474      -40.55003516314522
H           -6.44851363390868      -26.57654525973509      -39.78423732513306
H           -7.43463129344028      -25.34240618199106      -38.95533407585523
C          -10.43966158096861      -26.25279255060005      -39.90727442860508
H          -11.24627149418061      -26.97109955400573      -39.82492611555209
C          -10.38594642928603      -25.03727163935825      -39.35210011864660
H           -9.50653855088905      -24.41283742787231      -39.48331335282649
H          -11.21541389456514      -24.63173899449808      -38.77811462321132
C          -14.07392499580025      -28.12764443087848      -43.40604205343063
H          -14.54832712827485      -27.40767274283689      -44.08892015542605
H          -14.30857879966263      -27.80608694784245      -42.37531473636300
H          -14.51029461876784      -29.12416169908967      -43.56137778599164
C          -13.99748459406350      -29.11474542976871      -46.27365618393794
H          -14.49396593698324      -28.14237799726812      -46.14251016155195
H          -14.48808651993741      -29.85891096883714      -45.62775805899227
H          -14.15128340388653      -29.42368350523646      -47.32290028687932
C           -7.15756018236624      -32.72813876708602      -41.31520246383908
H           -6.74236985753916      -33.61118229848293      -41.81899958777716
H           -7.86556089754093      -33.06246912531220      -40.54510550530151
H           -6.33690982810769      -32.17877966866603      -40.83886757552274
N           -8.92240924281866      -32.26708064977644      -43.06543922860952
H           -9.32975699647423      -33.18583359048414      -43.04235924640970
C           -7.84292029589613      -31.85140560972729      -42.30363814855958
C           -9.30738337186865      -31.24466056301540      -43.84760175044008
H          -10.17319053480730      -31.27122534859912      -44.49362110507935
N           -8.49845903738911      -30.20597170008273      -43.66242144141557
C           -7.60518523680589      -30.56499702482068      -42.68324997132745
H           -6.87892115009023      -29.85975647277993      -42.31439412192832
C          -11.08335281394604      -25.28947354505504      -45.42356198609762
H          -11.61580724979951      -24.49720661797213      -44.88221978313339
H          -11.53411557784771      -26.25207412233855      -45.16253364152435
H          -11.19304353511394      -25.11765807774905      -46.50086279288262
C           -9.62506132238263      -25.27209118860013      -45.03514049082537
H           -9.53413992774032      -25.45402057853168      -43.95603240722939
H           -9.19755499650920      -24.28864854201590      -45.27220954347984
S           -8.69078530872329      -26.54237721433402      -45.93806862690130
C           -7.09388358108521      -25.71395240089373      -46.08807204245489
H           -6.67303120437712      -25.48040154937570      -45.10350824530558
H           -7.21801839720055      -24.78589485851668      -46.66014533000228
H           -6.39901356683842      -26.37613500414884      -46.61848539892865
87
 energy: -124.662368071053 gnorm: 0.065230343239 xtb: 6.7.1 (edcfbbe)
Fe          -8.57547092847987      -28.47561774769139      -44.65864904776691
N           -8.49934763843605      -29.44084452321258      -46.42319587180251
N          -10.56135909450889      -28.58538006052590      -44.72871106895419
N           -8.66128517411012      -27.49634157746902      -42.89571972320002
N           -6.58917656336389      -28.38879758213966      -44.56963405814724
C           -7.37228961669230      -29.88579328700852      -47.04162084105128
C           -7.71842734530787      -30.53181112673200      -48.29654929384621
C           -9.05412779814859      -30.46212908700120      -48.41939185818357
C           -9.53971015199771      -29.76088664765438      -47.23793110864617
C          -11.33704600678924      -28.96738674182464      -45.78307930724988
C          -12.73074058186700      -28.83578768061455      -45.45803799348987
C          -12.77367180239530      -28.39397777524333      -44.15661712333671
C          -11.41492085893572      -28.24198470141174      -43.72995677444509
C           -9.77971287358177      -27.35194577257758      -42.13557010991423
C           -9.45103064717443      -26.66211751662429      -40.89820041935393
C           -8.12133075592222      -26.39287660968056      -40.94288644466731
C           -7.63719723439116      -26.94402329369410      -42.19646538825228
C           -5.82191169283521      -27.71884879619511      -43.66268054546565
C           -4.41855731596678      -27.90841387033133      -43.95895856139749
C           -4.38588910393152      -28.74851860048063      -45.04949045194445
C           -5.74023627580797      -29.01611440507248      -45.42061872167842
C           -6.08572102864798      -29.73843390700865      -46.55445596115037
H           -5.27631620516013      -30.19436360257411      -47.10997811041437
C          -10.87437073476332      -29.48292281342575      -46.98175466694433
H          -11.61190141061740      -29.69715372863990      -47.74178471264461
C          -11.06027768776367      -27.73249476171524      -42.49233378585301
H          -11.85234268328664      -27.59941477081692      -41.76925664506631
C           -6.30297200189927      -26.97258281578961      -42.59882767943672
H           -5.58322198839196      -26.40365999227009      -42.02467767116430
C           -6.66104022172751      -31.10400029054150      -49.17834508632349
H           -6.16029527135470      -31.84336696227469      -48.55597617234167
H           -5.99574257641274      -30.26577058728162      -49.37912072438387
H           -6.91986181779200      -31.57737745130190      -50.13579413442893
C           -9.98129077937516      -31.00397591787975      -49.45902799527853
H          -10.44619213058468      -30.13768300944733      -49.92592979012833
H          -10.71815435285449      -31.56515822971177      -48.88632600227119
H           -9.60648622682317      -31.65785887632240      -50.26348644464576
C           -3.09214929906903      -29.22957314529195      -45.64187950844493
H           -2.59806403712465      -28.31048316255525      -45.95089923368458
H           -2.98820981476261      -29.95619350790609      -46.46879468199012
H           -2.59454909771749      -29.64573998090336      -44.76595823306727
C           -3.20771047574090      -27.33893722551531      -43.33472810802980
H           -2.83542716849992      -27.72845026570113      -42.38243040439350
C           -2.39771223853773      -26.56748747532215      -44.05017630479412
H           -2.74637075973284      -26.09141592885097      -44.95444405611261
H           -1.36088595259848      -26.41443275250449      -43.78261175470360
C           -7.15811064237904      -25.77929149322568      -39.97379388655991
H           -6.69056331074816      -24.96511362087775      -40.52781408822819
H           -6.41905257399722      -26.55572977156196      -39.77139946818547
H           -7.49256067396888      -25.38008109907367      -39.00539053624951
C          -10.43949187591366      -26.23998274169847      -39.92799185117075
H          -11.26023953086377      -26.94131715263401      -39.80962600026495
C          -10.39337878549545      -25.04713438382378      -39.34992943521896
H           -9.53487186012243      -24.40955377938504      -39.49321737868007
H          -11.20065894283389      -24.64923477447546      -38.75664977473609
C          -14.08091979752631      -28.14831547417283      -43.45283803032496
H          -14.59236114696795      -27.41372180286061      -44.07961122632133
H          -14.20474340660419      -27.81644215799476      -42.40577853113729
H          -14.57636638990386      -29.11742741970754      -43.55008716034278
C          -13.99824184642488      -29.09804917905082      -46.23090603117365
H          -14.54027650727072      -28.15194945187125      -46.15361773718105
H          -14.52555990106318      -29.85534864848874      -45.64225875502385
H          -14.05243303093855      -29.41365510189258      -47.28666323341196
C           -7.16020183732301      -32.72877219012562      -41.31937699896467
H           -6.74543792994529      -33.60764222332559      -41.81324035636109
H           -7.85816879219539      -33.06125115604844      -40.55077765016094
H           -6.34878873541155      -32.18305883875884      -40.84491522543816
N           -8.91815309577236      -32.26740020506873      -43.05425069739203
H           -9.33025730745752      -33.18669434866636      -43.03586105542357
C           -7.84552573687638      -31.85307298024648      -42.30619247461549
C           -9.29455539026617      -31.23756564661270      -43.84489795424686
H          -10.14925927550860      -31.26750891478628      -44.49411722749473
N           -8.51236873509077      -30.20286124017296      -43.65993688975008
C           -7.61630139722727      -30.56417847214983      -42.69339657229373
H           -6.88579701454806      -29.86864659004415      -42.32683916289796
C          -11.08935462183853      -25.28492936120115      -45.42534464615130
H          -11.61872690603994      -24.50093451604063      -44.88768697795793
H          -11.53242499095610      -26.24073801353428      -45.16982059628164
H          -11.19493014560691      -25.11965214399255      -46.49443607175911
C           -9.62527645281431      -25.25956109411955      -45.02758524921676
H           -9.52567236817625      -25.45271692238631      -43.96106885983921
H           -9.18953027025607      -24.29206967859703      -45.27263577080269
S           -8.69430018172802      -26.54087572656323      -45.94817931089240
C           -7.08597430526058      -25.70527838976838      -46.08439178592029
H           -6.67823753915549      -25.48473860877774      -45.10315491579371
H           -7.21685499304129      -24.79076777084844      -46.65816229260705
H           -6.41236633260001      -26.37520835063273      -46.61219555303795
87
 energy: -124.688954146155 gnorm: 0.044287437364 xtb: 6.7.1 (edcfbbe)
Fe          -8.57681018542272      -28.47125520686980      -44.66044913508220
N           -8.50138085462026      -29.44948642556632      -46.41471999050049
N          -10.56906802441056      -28.58561702492426      -44.72936477892141
N           -8.66392094738612      -27.51417684125923      -42.89789043769093
N           -6.59457894953435      -28.38777269905622      -44.57103440521630
C           -7.37712651869109      -29.89277789674821      -47.03327172798050
C           -7.71401171841165      -30.53852737229707      -48.29474446116322
C           -9.05634888753002      -30.46525884806554      -48.41805613090835
C           -9.53597452011661      -29.76575417698886      -47.23559619983507
C          -11.34269931960559      -28.96698642982433      -45.78336329493226
C          -12.73134757687358      -28.83518468402668      -45.45253662981586
C          -12.77774176241355      -28.40028185427173      -44.15238090089225
C          -11.41963524683206      -28.24045353556821      -43.72362154746022
C           -9.77031930291076      -27.36327901921286      -42.12645752079137
C           -9.44343561889571      -26.66152943771544      -40.89688063452486
C           -8.10848156987385      -26.39489885003648      -40.94998653482534
C           -7.63495079118231      -26.95518190472553      -42.20030223263669
C           -5.82508070736061      -27.71359300273009      -43.67462900888182
C           -4.43084017079917      -27.89930863589755      -43.97077113870561
C           -4.38370537159095      -28.74605821004000      -45.05410571066681
C           -5.74122368592996      -29.01998044498144      -45.42205667180162
C           -6.09239492591285      -29.74259606810888      -46.55005635163833
H           -5.28143719235156      -30.18247126334924      -47.11209964555901
C          -10.86517165144734      -29.48566707989753      -46.97760213706616
H          -11.60269759043005      -29.71260170705157      -47.73334998037596
C          -11.05328026154366      -27.73560731060802      -42.49020734784762
H          -11.84969389606849      -27.57869618333585      -41.77690909774842
C           -6.30739150718719      -26.97743031565615      -42.60366485852987
H           -5.58233090564024      -26.42924962103485      -42.01692032589806
C           -6.64486048510836      -31.10142679820120      -49.16138648201572
H           -6.11287200237633      -31.85897595731756      -48.58381580839794
H           -5.95415218617396      -30.29148931176126      -49.40065610186574
H           -6.97985875798347      -31.55588165719009      -50.10337676953959
C           -9.99768945599229      -30.98755214204181      -49.44417214488551
H          -10.48116928856549      -30.14787709970358      -49.94338333159315
H          -10.75951233479284      -31.57198025560130      -48.92316336764384
H           -9.55068869241628      -31.62911807597542      -50.21803350826286
C           -3.08643340627857      -29.21362886852609      -45.62105291084602
H           -2.54171591560790      -28.33068499972170      -45.96169597169477
H           -3.08594483895564      -29.94559018982399      -46.44916275493434
H           -2.52892565675662      -29.65078966119041      -44.78656561973978
C           -3.20834260741473      -27.36380479284309      -43.36033156366463
H           -2.87454116741460      -27.75253320867879      -42.39916416597129
C           -2.40039152984265      -26.56298059035307      -44.04360402527964
H           -2.72494721443190      -26.12028092348733      -44.97469592697802
H           -1.38380596228807      -26.34504048565587      -43.73154894335001
C           -7.14354843249646      -25.78298170157928      -39.99619469646549
H           -6.65300053049266      -24.94874863937248      -40.50300520863814
H           -6.38730853307898      -26.53389688623114      -39.75745228033839
H           -7.55535548203739      -25.41261619006571      -39.04637821849584
C          -10.44132476615223      -26.23134478874901      -39.94125756713780
H          -11.27407291045589      -26.91336073621910      -39.80043392221678
C          -10.40015419309116      -25.04633346945984      -39.34596521890801
H           -9.55972099764122      -24.38994148612352      -39.50568157433143
H          -11.19046366722122      -24.67203315977476      -38.71608852659753
C          -14.08331423595675      -28.16068098852016      -43.47312928541507
H          -14.63156158529714      -27.41841456483185      -44.06083491714731
H          -14.10187077179524      -27.82390477134969      -42.42098596991207
H          -14.63736967262937      -29.10515834623621      -43.53128195250834
C          -13.99470676395251      -29.09039835124398      -46.21074100165514
H          -14.57948636566058      -28.16503363840439      -46.17280857723225
H          -14.55837731116080      -29.85429890613888      -45.66377195827220
H          -13.94523811558722      -29.40718397588970      -47.26649440877304
C           -7.16244848654804      -32.72738118934305      -41.32233107851148
H           -6.74752248461325      -33.60731398294433      -41.81251343704309
H           -7.85760626756110      -33.06062526401548      -40.55265420458824
H           -6.35341702187986      -32.18132548364087      -40.84809387617577
N           -8.91940620815840      -32.26813314258234      -43.04999737639786
H           -9.33342615170115      -33.18612442321249      -43.03082318377089
C           -7.84728831160135      -31.85114247979343      -42.30805188742955
C           -9.29119791002969      -31.23772822396590      -43.84671587955440
H          -10.13324740278091      -31.27196900146074      -44.50767013087247
N           -8.52125285433896      -30.19935881931124      -43.65535999010729
C           -7.62030259432333      -30.56137097821733      -42.69738230153116
H           -6.88360183787446      -29.87299117907217      -42.33703911483878
C          -11.09161290945034      -25.27606035903808      -45.42594545732300
H          -11.62672781336038      -24.49596581389686      -44.89078286177958
H          -11.53184422915341      -26.23336059792160      -45.17452666783032
H          -11.19557339781054      -25.11523497597468      -46.49494148824022
C           -9.62641320515034      -25.24881320355458      -45.02594559580901
H           -9.51637978519297      -25.45076058948307      -43.96350641406627
H           -9.17988889196638      -24.28881658661010      -45.27511457187192
S           -8.70042037001596      -26.53669175683365      -45.95597968003759
C           -7.08410012885871      -25.70063449339405      -46.08157065351216
H           -6.68479696538936      -25.48881418071720      -45.09619606034278
H           -7.21371484713533      -24.78910985040987      -46.65715112427969
H           -6.42100442702662      -26.37962575649659      -46.60736344548189
87
 energy: -124.699498732537 gnorm: 0.036018663191 xtb: 6.7.1 (edcfbbe)
Fe          -8.57941963352798      -28.47247293224488      -44.66003444771717
N           -8.50016468524685      -29.45706781263270      -46.40297814326534
N          -10.57528769569710      -28.58563930210422      -44.72442766993203
N           -8.66620718479278      -27.52786747347695      -42.90118220541234
N           -6.59419923941680      -28.38948581012823      -44.58044580337387
C           -7.37957521352640      -29.90133685047201      -47.02306878887613
C           -7.71061861650064      -30.54560735254453      -48.28457550487447
C           -9.05881407315788      -30.46575129246285      -48.40830674407901
C           -9.53389268244688      -29.77080455962306      -47.22380233715052
C          -11.34677566210103      -28.96950917496048      -45.77827180551245
C          -12.73707653975722      -28.83771803775016      -45.44555823646454
C          -12.78684745390992      -28.40650550906340      -44.14738994003562
C          -11.42600380947728      -28.24056304068546      -43.71735530175011
C           -9.76705837587565      -27.36755148610994      -42.12528731630023
C           -9.43737324353948      -26.65320221841356      -40.90385718691218
C           -8.09567273825901      -26.39631563922889      -40.96525001011651
C           -7.63274440790159      -26.96970704627054      -42.20836501514285
C           -5.82637968922569      -27.71131771793069      -43.68709947867787
C           -4.43368198012588      -27.88993796967380      -43.98606079815188
C           -4.37582638098656      -28.74109516730320      -45.06066686787472
C           -5.73565868261320      -29.02174963109178      -45.42726478968095
C           -6.09349091170173      -29.74736689280185      -46.54980165932462
H           -5.28442519797345      -30.17591122897220      -47.12113163845198
C          -10.86141605596009      -29.49238154488825      -46.96722012880095
H          -11.59488370497740      -29.73398241376098      -47.72256580798319
C          -11.05194191228736      -27.73097425477136      -42.48782372487776
H          -11.84860886486751      -27.55143238310358      -41.78039799714924
C           -6.30851218863226      -26.98871017946407      -42.60799697519684
H           -5.57993804019020      -26.46008798104085      -42.00801887529627
C           -6.64636742312104      -31.10649506942860      -49.15697723548382
H           -6.09011343788234      -31.87707765896829      -48.61520876040868