78
 energy: -116.058074540066 gnorm: 0.000062800631 xtb: 6.7.1 (edcfbbe)
Fe         -11.43996122531328       -2.39958187430123       -1.22757307045781
N          -12.05771103136294       -0.74780662152629       -2.20022386330785
N           -9.77861529040344       -2.42753795825398       -2.33096343320699
N          -10.81715721773719       -3.99750364465390       -0.21265740955710
N          -13.09516839390186       -2.32021521517201       -0.08394867758842
C          -13.22915114607138       -0.07873446372652       -2.02294366483436
C          -13.33027131204178        1.02790677303410       -2.94692832746683
C          -12.19267213518257        1.00912035383907       -3.69330207022581
C          -11.41249114540321       -0.10971863247668       -3.21578269461877
C           -9.42780390716684       -1.55232287259331       -3.31229461360793
C           -8.16214314559936       -1.91606530219848       -3.89767457893868
C           -7.75250440125861       -3.05083738589331       -3.25021513450992
C           -8.77882148828592       -3.34176122442551       -2.26644257367492
C           -9.67753582374794       -4.70481995161772       -0.43495084127817
C           -9.57330391166166       -5.81336322861563        0.48103157921037
C          -10.68840216069030       -5.76277821182381        1.27347105122821
C          -11.44777764703575       -4.61274068077466        0.81902321166322
C          -13.43676008156378       -3.17879698969091        0.91460099190887
C          -14.72437610292093       -2.82994362398341        1.47073570784837
C          -15.15788049935909       -1.74245406673920        0.77744686112253
C          -14.12860226526399       -1.44120790526474       -0.19162290703541
C          -14.19968745168668       -0.39296887881607       -1.08954501018884
H          -15.08411225672739        0.22476747557806       -1.06447973524552
C          -10.18322181932108       -0.47007757976247       -3.73215881589400
H           -9.78896995136940        0.13145266268117       -4.53707991457541
C           -8.73170165802173       -4.41661363496348       -1.40153434249507
H           -7.88520066817092       -5.08154682634727       -1.47957911099652
C          -12.67172596091773       -4.24545762480457        1.34798574151274
H          -13.07059133637206       -4.84593081901523        2.15128125439767
C          -11.76813114638703        1.92242439462790       -4.79204532290202
H          -10.82733950162337        2.41295751761978       -4.54094809451979
H          -12.51743783113882        2.69022047443455       -4.96818568180207
H          -11.62172674136736        1.36734976910682       -5.71912982565914
C          -14.48583387479094        1.96686872927620       -3.01113386474040
H          -14.61530339234422        2.48243538352402       -2.05912721237435
H          -15.40700068087066        1.42623239471147       -3.22975100856402
H          -14.33501578488197        2.71396698948382       -3.78649946087800
C           -7.44601494006431       -1.13692318947665       -4.94552521769112
H           -7.56782970416197       -0.06738611565067       -4.78080109051152
H           -7.83027449918062       -1.37160215317485       -5.93995873772459
H           -6.38418129005709       -1.37319535091689       -4.92417292947133
C           -6.54279055947909       -3.82112522906359       -3.43487319883835
H           -6.13752603890845       -4.27754842286939       -2.53946948281082
C           -5.91601386953098       -4.00835394256718       -4.59196812149952
H           -6.29684533473725       -3.61929144364505       -5.52022344861962
H           -5.00741130309017       -4.58408617523944       -4.65377598409601
C           -8.42060603037759       -6.75167927833768        0.56393358597686
H           -7.48192733369266       -6.22115032271080        0.41216584216497
H           -8.49592272121066       -7.52966162705033       -0.19768800238041
H           -8.39660522256424       -7.22824689220986        1.54178863404655
C          -11.07335248464845       -6.62344727006543        2.37012728159778
H          -11.60404750343778       -6.13890088014061        3.18174904858628
C          -10.83506125982756       -7.92883170478907        2.44631116712301
H          -10.35442842968208       -8.47044170054076        1.65035825980105
H          -11.13755140901265       -8.50797815850885        3.30309014486051
C          -15.38439351310929       -3.56426083941377        2.58692906174326
H          -14.75901348731419       -3.54714229373279        3.47992665297415
H          -15.55357061669966       -4.60611081105516        2.31374188691331
H          -16.34339941102940       -3.11472855415405        2.83248894891732
C          -16.42194513097487       -0.96786923171231        0.92974446746774
H          -17.03725199856724       -1.38396214776170        1.72363176404575
H          -16.99695014133719       -0.98787674210752        0.00367764593574
H          -16.20822037756791        0.07362761706920        1.17187355169366
O          -10.49144434486490       -0.97587186922820        0.30110847155821
H          -10.59988098545860       -0.14102936724273       -0.16723142147781
H          -11.16325919946057       -1.00334001316611        0.99112172421303
C          -14.50769766810823       -6.32142952514911       -3.73215776386980
H          -13.99214008044632       -7.05647152535849       -4.35010623019773
H          -15.40964581200586       -6.00715598207135       -4.25727775706981
H          -14.79508630650545       -6.79296784022248       -2.79769451455097
N          -13.11137888861734       -4.36841808231305       -4.44481506150869
H          -13.26575655799322       -4.48838336395511       -5.43241839196510
C          -13.62796244941372       -5.15872743780156       -3.45171961847959
C          -12.36048506869018       -3.40998071231891       -3.85693827047873
H          -11.83330614805257       -2.64739401359038       -4.39222382248824
N          -12.37048984451574       -3.54535360803709       -2.55301636699602
C          -13.15488349710647       -4.62876109529789       -2.28566749419277
H          -13.32533815053302       -4.95246040489830       -1.27990035045284
