78
 energy: -115.996638029585 gnorm: 0.212835217678 xtb: 6.7.1 (edcfbbe)
Fe         -11.49900000000000       -2.40400000000000       -1.25900000000000
N          -12.02100000000000       -0.71100000000000       -2.11900000000000
N           -9.76200000000000       -2.38900000000000       -2.32200000000000
N          -10.81200000000000       -3.93400000000000       -0.14800000000000
N          -13.09300000000000       -2.27700000000000       -0.08100000000000
C          -13.21800000000000       -0.02200000000000       -1.95800000000000
C          -13.19800000000000        1.17100000000000       -2.75000000000000
C          -12.07500000000000        1.17300000000000       -3.48100000000000
C          -11.36700000000000       -0.02000000000000       -3.13500000000000
C           -9.44600000000000       -1.51800000000000       -3.31200000000000
C           -8.24700000000000       -1.95900000000000       -3.96400000000000
C           -7.87300000000000       -3.15000000000000       -3.40400000000000
C           -8.86700000000000       -3.39500000000000       -2.32900000000000
C           -9.70200000000000       -4.68300000000000       -0.42900000000000
C           -9.49900000000000       -5.66400000000000        0.59900000000000
C          -10.58900000000000       -5.57600000000000        1.47200000000000
C          -11.44200000000000       -4.53600000000000        0.94300000000000
C          -13.44900000000000       -3.16900000000000        0.86800000000000
C          -14.86100000000000       -2.91500000000000        1.33900000000000
C          -15.31100000000000       -1.87300000000000        0.65800000000000
C          -14.17400000000000       -1.44600000000000       -0.21000000000000
C          -14.23800000000000       -0.36300000000000       -1.09600000000000
H          -15.14400000000000        0.24300000000000       -1.10400000000000
C          -10.11100000000000       -0.33900000000000       -3.60100000000000
H           -9.60700000000000        0.38600000000000       -4.24000000000000
C           -8.82000000000000       -4.45100000000000       -1.46600000000000
H           -8.01700000000000       -5.17400000000000       -1.60700000000000
C          -12.67800000000000       -4.18500000000000        1.40900000000000
H          -13.08100000000000       -4.73800000000000        2.25700000000000
C          -11.60500000000000        2.19200000000000       -4.50700000000000
H          -10.73300000000000        2.74900000000000       -4.10300000000000
H          -12.42300000000000        2.91100000000000       -4.72400000000000
H          -11.30000000000000        1.67200000000000       -5.44000000000000
C          -14.27900000000000        2.25600000000000       -2.68700000000000
H          -14.58800000000000        2.41000000000000       -1.63100000000000
H          -15.16400000000000        1.93900000000000       -3.27900000000000
H          -13.87600000000000        3.21100000000000       -3.08800000000000
C           -7.51400000000000       -1.19600000000000       -5.06700000000000
H           -7.67000000000000       -0.10500000000000       -4.92900000000000
H           -7.91400000000000       -1.49500000000000       -6.05900000000000
H           -6.42600000000000       -1.41400000000000       -5.01500000000000
C           -6.72200000000000       -4.04900000000000       -3.77300000000000
H           -6.26600000000000       -4.64800000000000       -2.97200000000000
C           -6.17900000000000       -4.20400000000000       -4.99900000000000
H           -6.57400000000000       -3.64300000000000       -5.85900000000000
H           -5.33500000000000       -4.89300000000000       -5.15300000000000
C           -8.32000000000000       -6.59800000000000        0.70500000000000
H           -7.42200000000000       -6.11300000000000        0.26500000000000
H           -8.53300000000000       -7.53600000000000        0.14800000000000
H           -8.11800000000000       -6.82800000000000        1.77300000000000
C          -10.90200000000000       -6.36100000000000        2.69600000000000
H          -11.39300000000000       -5.86200000000000        3.54400000000000
C          -10.62200000000000       -7.64200000000000        2.82900000000000
H          -10.13100000000000       -8.19400000000000        2.01400000000000
H          -10.87600000000000       -8.17500000000000        3.75700000000000
C          -15.60000000000000       -3.83700000000000        2.29800000000000
H          -15.14600000000000       -3.76100000000000        3.30900000000000
H          -15.52000000000000       -4.88700000000000        1.94500000000000
H          -16.66800000000000       -3.53700000000000        2.35900000000000
C          -16.71000000000000       -1.24200000000000        0.64700000000000
H          -17.26000000000000       -1.54300000000000        1.56400000000000
H          -17.27400000000000       -1.59400000000000       -0.24300000000000
H          -16.62200000000000       -0.13500000000000        0.62700000000000
O          -10.60100000000000       -0.82500000000000        0.08500000000000
H          -10.83600000000000        0.01700000000000       -0.30400000000000
H          -10.12500000000000       -0.94800000000000        0.82600000000000
C          -14.79200000000000       -6.24300000000000       -3.85300000000000
H          -14.34300000000000       -7.22800000000000       -4.10100000000000
H          -15.35600000000000       -5.87200000000000       -4.73500000000000
H          -15.47800000000000       -6.36700000000000       -2.98800000000000
N          -12.68800000000000       -4.91400000000000       -4.37000000000000
H          -12.58700000000000       -5.28400000000000       -5.29300000000000
C          -13.69700000000000       -5.26400000000000       -3.49900000000000
C          -11.87900000000000       -4.01500000000000       -3.79100000000000
H          -10.99100000000000       -3.58000000000000       -4.24700000000000
N          -12.37100000000000       -3.77800000000000       -2.59300000000000
C          -13.48500000000000       -4.52400000000000       -2.37100000000000
H          -14.02900000000000       -4.46600000000000       -1.43700000000000
78
 energy: -116.036273044722 gnorm: 0.080345838726 xtb: 6.7.1 (edcfbbe)
Fe         -11.48801238651034       -2.38274371784275       -1.22819296441982
N          -12.06138714818395       -0.73609118103644       -2.17546949062163
N           -9.77975039690040       -2.41010922146239       -2.33985008235704
N          -10.82829833427443       -3.95095867459227       -0.16243814995901
N          -13.12988121594497       -2.29349642303415       -0.08974909374858
C          -13.21613432293435       -0.01603308866996       -1.95483036798263
C          -13.21347578840344        1.18225016586317       -2.75111771605360
C          -12.07402033325237        1.17978466993502       -3.48521231796632
C          -11.35709208669200       -0.01202414588768       -3.11827425315189
C           -9.42585533010710       -1.51821230245173       -3.30232863564878
C           -8.22883751181215       -1.96190626165262       -3.96981373825432
C           -7.86564142826468       -3.15918621805634       -3.41024954519785
C           -8.85824653671397       -3.40103530264670       -2.34582145924096
C           -9.69607333084144       -4.67249035784084       -0.40723615029184
C           -9.51072861437964       -5.67564302951343        0.60819027454314
C          -10.58707884832248       -5.57839439829239        1.46801706106741
C          -11.42215568163883       -4.51988282952153        0.94413059717835
C          -13.46870493535978       -3.17646193173552        0.87800334796420
C          -14.85681348052782       -2.93524693822785        1.33057398277669
C          -15.30790566072574       -1.87049347074690        0.63991133092391
C          -14.19721926409588       -1.45749202618121       -0.23278384413019
C          -14.23771799407287       -0.36956676295262       -1.09194434293596
H          -15.13412589901046        0.23751069135097       -1.09706491922281
C          -10.10313071174620       -0.34228505767516       -3.59345258974157
H           -9.62169021817276        0.36464226335824       -4.25952609005765
C           -8.81456228352482       -4.45462833134700       -1.46076077452849
H           -8.01563147913827       -5.17285748468775       -1.59589732976838
C          -12.67341967135984       -4.17501196102101        1.41443406215788
H          -13.07527254434638       -4.73951172974110        2.24718479193020
C          -11.60499808941438        2.18590470885917       -4.49775126116975
H          -10.74327592780499        2.74332794641190       -4.11257347631249
H          -12.40452127660005        2.89635228274262       -4.72531357344319
H          -11.30599623890384        1.68394739528428       -5.42356109264399
C          -14.27688204632448        2.24805215203480       -2.68816887182867
H          -14.58551539897115        2.41020611892043       -1.65074135686972
H          -15.15448132130373        1.94844498458122       -3.27073027671431
H          -13.89034431673684        3.19151514850937       -3.08389326205696
C           -7.51861260262022       -1.20175093242063       -5.05817920981481
H           -7.66428775314766       -0.12409003873461       -4.93326732605681
H           -7.90435662749474       -1.48642686029359       -6.04392746866760
H           -6.44640846305117       -1.41499025746683       -5.02065914307228
C           -6.73667440946250       -4.03676478839870       -3.76820405880322
H           -6.30049679498879       -4.63100282380338       -2.96547662994505
C           -6.19530541147860       -4.18753834073145       -4.98007760906782
H           -6.57374251149511       -3.65634571101744       -5.84480182763818
H           -5.36404048930970       -4.86769710497912       -5.14230295115778
C           -8.33005170927742       -6.59179031305352        0.70725285012279
H           -7.43728170026081       -6.12396990310813        0.27732244635132
H           -8.52220931245254       -7.52336323030646        0.16074929340630
H           -8.12485300031080       -6.83209976436378        1.75501399173606
C          -10.89032633364367       -6.35252753928990        2.67749102737321
H          -11.38814349533580       -5.84228393507116        3.50319846071578
C          -10.61220302529016       -7.64157626613083        2.82459709967297
H          -10.14130185698636       -8.20458659121740        2.02933513795468
H          -10.86571129394538       -8.17202637248966        3.73660158936060
C          -15.58715397430081       -3.82893281903852        2.29390294443751
H          -15.15055172775780       -3.76405644123550        3.29672719412748
H          -15.52479717036375       -4.86878674678855        1.95640108353908
H          -16.64200669966158       -3.54399217770619        2.35719308309651
C          -16.68332324373531       -1.24483052141828        0.64744339371210
H          -17.23845807506003       -1.53695182754947        1.54538448181263
H          -17.25362904369496       -1.58108431147048       -0.22669735687303
H          -16.62036965058338       -0.15312988487041        0.62484153347050
O          -10.59638487683158       -0.82963811863319        0.08230062051527
H          -10.82216582082366        0.02511197703815       -0.28320615198910
H          -10.09562899959115       -0.93467172590498        0.86985446675330
C          -14.77932232275930       -6.23750525586719       -3.85364177980028
H          -14.35136639907573       -7.21586324798655       -4.09914471718713
H          -15.34958991473277       -5.88261372347163       -4.71924044781724
H          -15.45936436268068       -6.35857030216706       -3.00694338463998
N          -12.69689105389676       -4.92486398727555       -4.37183985147438
H          -12.59007146320072       -5.29920479775957       -5.29909670592925
C          -13.70144551768848       -5.26093634832531       -3.50225136400581
C          -11.89897717703016       -4.01151688879123       -3.77881966679599
H          -11.02078514090678       -3.58651285717970       -4.23295531190284
N          -12.36358638442288       -3.74623715394829       -2.57731428790820
C          -13.47294557315780       -4.51180125932161       -2.37921947564861
H          -14.01430056417554       -4.46375648848616       -1.45304239418604
78
 energy: -116.045907266501 gnorm: 0.026321052361 xtb: 6.7.1 (edcfbbe)
Fe         -11.48471018521732       -2.37893114141619       -1.22562290477653
N          -12.07412445675119       -0.73411734378436       -2.18860617679105
N           -9.78484581064373       -2.41671433736734       -2.33897249060415
N          -10.82228919125349       -3.94117993367347       -0.15882943320519
N          -13.14718898538931       -2.30759148828196       -0.09781445090517
C          -13.21494571303912       -0.02152160975324       -1.96184216898058
C          -13.22051597442220        1.18910965437563       -2.74831197728215
C          -12.07043494601183        1.18382375431096       -3.47917662017929
C          -11.35754887046443       -0.01567595450066       -3.10683580103685
C           -9.41764281911556       -1.52101087414561       -3.29453934843851
C           -8.22079093289846       -1.96049198136561       -3.96931879940798
C           -7.86995452836864       -3.16287813647298       -3.40836126828158
C           -8.85311976300171       -3.40341442655751       -2.35313217725292
C           -9.68846738627544       -4.65728626157633       -0.39402280946661
C           -9.51467606078662       -5.67790133538411        0.61054502211318
C          -10.58631673552095       -5.57590859754191        1.45814682481547
C          -11.40637180451663       -4.50143396130000        0.93643400202068
C          -13.48494208188724       -3.18802742268781        0.87637776093558
C          -14.84913839435873       -2.95150399409219        1.31925337326411
C          -15.30114667519180       -1.87728939474088        0.61895417433826
C          -14.21216979646241       -1.47824993389496       -0.25691519196001
C          -14.24060997420572       -0.38962980041607       -1.10437518867288
H          -15.12311495223264        0.23221923110200       -1.09219098691451
C          -10.11255064845563       -0.35878737514456       -3.60099617457346
H           -9.65156563549912        0.33263082960545       -4.29312898175414
C           -8.81250718551789       -4.45572382031096       -1.45735083947909
H           -8.01119426020034       -5.16843239352827       -1.58015684860079
C          -12.66926871992975       -4.17227010789515        1.40628853829617
H          -13.06267966681094       -4.74308665858766        2.23426170323275
C          -11.60330992675974        2.18027888267522       -4.48573997901870
H          -10.74373511648501        2.73696364366165       -4.11369076411752
H          -12.39375338489643        2.88722613766083       -4.71917632285018
H          -11.30980768335462        1.68449216982582       -5.40836217813510
C          -14.27679805400177        2.23953933123186       -2.69240380509585
H          -14.58794515720486        2.40712780614959       -1.66445280334357
H          -15.15228795994988        1.94751520845654       -3.26952387303700
H          -13.90155504317027        3.17813625180445       -3.08915087323624
C           -7.52109874295781       -1.20733310664378       -5.04827281838144
H           -7.66054270395888       -0.13625328220181       -4.92819245248369
H           -7.90320661491407       -1.48455451186577       -6.03064544564370
H           -6.45621614336171       -1.42316662517456       -5.02375894872605
C           -6.76281828929056       -4.02888221860071       -3.75314228958112
H           -6.34600739344836       -4.61760029232733       -2.94343741040865
C           -6.22025052858729       -4.17457363417548       -4.95888348131190
H           -6.58468504586318       -3.65944926237545       -5.82895323058032
H           -5.38788622659001       -4.83916361368159       -5.12356700100848
C           -8.33874223305617       -6.58889222743337        0.70919404368323
H           -7.44995061179153       -6.12356708147819        0.29013344540918
H           -8.51938998892561       -7.51608223168199        0.16479325784299
H           -8.14097848302170       -6.83804329016599        1.74872484811732
C          -10.88944378505406       -6.34602550822291        2.64931383909419
H          -11.38836042656031       -5.81876139407503        3.45548684755157
C          -10.60769393277165       -7.63628954062081        2.81385312101839
H          -10.14326080293438       -8.21397514921944        2.03695937326314
H          -10.84995386574277       -8.15830911178399        3.72357844209110
C          -15.57627268228306       -3.81942765081108        2.29016927670107
H          -15.14193082337542       -3.75498175594648        3.28618544453119
H          -15.52551493898183       -4.85812794493334        1.96762056067461
H          -16.62313348618584       -3.53647524162945        2.35520310670438
C          -16.65674460119014       -1.25129286261612        0.64423148419934
H          -17.20562143439830       -1.54054723547328        1.53729750429722
H          -17.23417695223524       -1.57234760577574       -0.22356426391165
H          -16.59634573209620       -0.16672623374898        0.62277491669856
O          -10.57284251977354       -0.84708168729512        0.08414371707677
H          -10.79586139935527        0.02945700150334       -0.23574117496290
H          -10.08163379169412       -0.92252299924657        0.90208470664458
C          -14.77163241322637       -6.23367997339602       -3.84902113608306
H          -14.34731887481635       -7.20577086072028       -4.09326870795597
H          -15.34290244793760       -5.88703716768918       -4.70870071936402
H          -15.44752275671901       -6.35113759894747       -3.00997736983036
N          -12.70389088333350       -4.93124270347043       -4.37479428504050
H          -12.58893126811050       -5.31045154029520       -5.30147450063854
C          -13.70631748239191       -5.25811344933406       -3.50322027143774
C          -11.92003073850756       -4.00560230281375       -3.77659325043067
H          -11.04982315787915       -3.58275257169431       -4.23056830405366
N          -12.36604337648252       -3.72459837237011       -2.57596606600694
C          -13.47164494671706       -4.49989759247361       -2.38879438366061
H          -14.01335299322771       -4.45972418553481       -1.46747058571531
78
 energy: -116.048734052040 gnorm: 0.018378678164 xtb: 6.7.1 (edcfbbe)
Fe         -11.47818377715770       -2.37855218467617       -1.22850148267069
N          -12.08491143387514       -0.74062760519991       -2.20332726982519
N           -9.79040892623664       -2.41797414096094       -2.33971364415863
N          -10.81663008422878       -3.93742671540318       -0.16527368153107
N          -13.14975173978733       -2.32243738327213       -0.11231917954646
C          -13.21834425950477       -0.02784861041634       -1.97017850610948
C          -13.22556359078869        1.18809203022273       -2.75170617753173
C          -12.07245391956439        1.18295216041890       -3.47849726438426
C          -11.36484222560019       -0.02266944116774       -3.11055748000751
C           -9.42493938467020       -1.52521509724974       -3.29809164655641
C           -8.22727012068409       -1.95971696198665       -3.97118709213824
C           -7.87967969052676       -3.16094510724289       -3.40504979174191
C           -8.85384147224099       -3.40125803807955       -2.35376093860920
C           -9.68025718387273       -4.64947917931585       -0.39537664808311
C           -9.51284800432023       -5.67751218787488        0.60320443489744
C          -10.58757224449073       -5.57576659749452        1.44476034559766
C          -11.40032546943790       -4.49348640380986        0.92492783137638
C          -13.49005357908103       -3.20020180749194        0.86571933689017
C          -14.84646422165074       -2.96492763856398        1.30585438321375
C          -15.29898328143028       -1.89174662372167        0.59918427492169
C          -14.21645240472001       -1.49720568428137       -0.27569997311771
C          -14.24262987765995       -0.40121507039902       -1.11443802877636
H          -15.12170419671912        0.22487132517422       -1.09471825012611
C          -10.12762599866642       -0.37268303550385       -3.61726432125071
H           -9.68291077467093        0.30268997699387       -4.33620234566852
C           -8.80570504353969       -4.45059155340093       -1.45453144602116
H           -7.99959634987031       -5.15930648889892       -1.56847639627387
C          -12.66401775732254       -4.17437645902272        1.39659956898655
H          -13.05113160405552       -4.75113747910163        2.22304395266810
C          -11.59969690145993        2.17991065819338       -4.47901884044016
H          -10.73638404958996        2.73206069434171       -4.10788387661642
H          -12.38754973939745        2.89036579990087       -4.71195503993715
H          -11.30901267120448        1.68295836518681       -5.40262448701258
C          -14.28412057153805        2.23363718601230       -2.69950693580441
H          -14.59696190521291        2.40706091883569       -1.67215971877816
H          -15.16050181960203        1.93611347521171       -3.27405542782034
H          -13.91403164239484        3.17203081319961       -3.10360421606834
C           -7.52335915837843       -1.20892748121807       -5.04491577517873
H           -7.65544958159082       -0.13712424601308       -4.92098367172796
H           -7.90771472026491       -1.48136340694848       -6.02854321733761
H           -6.45937551436493       -1.43376307401754       -5.02399342234446
C           -6.77452898770087       -4.02448517253429       -3.73553019521366
H           -6.37606281209392       -4.61698079003265       -2.91990186540942
C           -6.22769163671683       -4.16527536374785       -4.93963191461039
H           -6.59808135146026       -3.66019736746360       -5.81323812136027
H           -5.39801587018577       -4.83116470182794       -5.10475445339117
C           -8.34097667458852       -6.58961055990924        0.70927783908173
H           -7.44782498891036       -6.12030211741953        0.30489011962501
H           -8.51576047937225       -7.51399599405550        0.15796839827882
H           -8.15933741503870       -6.84656064669671        1.75071521837256
C          -10.89074350518889       -6.34172626601782        2.63180792396961
H          -11.40122429414441       -5.80399712575367        3.42280877700920
C          -10.60015390348847       -7.62798601980501        2.81073644008200
H          -10.14116063148092       -8.21917851521043        2.03938601018136
H          -10.84368217387801       -8.14337307014991        3.72326415887691
C          -15.57052498821023       -3.81373215853763        2.29348242002738
H          -15.12600681976005       -3.73813053796444        3.28464697644713
H          -15.52865963289145       -4.85848458655131        1.98578146207330
H          -16.61471712676590       -3.52254933204983        2.36205829681580
C          -16.64424653204289       -1.25413234962883        0.63930266120472
H          -17.18486785266674       -1.54507345171940        1.53611064291812
H          -17.23130099413020       -1.56106220957436       -0.22794697251318
H          -16.56938517081673       -0.16968611643769        0.62427286596043
O          -10.51154772393706       -0.86555019752854        0.09180123076630
H          -10.77126849423894        0.03277757100254       -0.15412537954548
H          -10.07901766193972       -0.92914273727520        0.95110902143984
C          -14.76690851177763       -6.23136441729139       -3.83950666398760
H          -14.33761515078067       -7.20199310787812       -4.08147573184155
H          -15.34114797308844       -5.89145851780368       -4.70065055524551
H          -15.44159592102102       -6.34812752627662       -2.99930894064267
N          -12.70667422239770       -4.92481841176334       -4.37587246139959
H          -12.58609708601579       -5.31054884235927       -5.29904239939700
C          -13.70719890278411       -5.24986868505246       -3.49967854717436
C          -11.93051425816925       -3.99121932420942       -3.78126017389017
H          -11.06498035988179       -3.56439555722295       -4.23986978793050
N          -12.37110597839507       -3.70453847757349       -2.58142820144301
C          -13.47463688561207       -4.48376986396342       -2.39190424506864
H          -14.01948013705523       -4.44655515267525       -1.47247178842279
78
 energy: -116.049632379831 gnorm: 0.044615952676 xtb: 6.7.1 (edcfbbe)
Fe         -11.47206824101761       -2.38070964001948       -1.23546760356828
N          -12.08669528384880       -0.74023458039166       -2.20625904367312
N           -9.80165551290395       -2.42112593908847       -2.34418400998552
N          -10.81117483374078       -3.93508575069395       -0.17734442361757
N          -13.14334037079795       -2.33286935720655       -0.12393821766340
C          -13.22046551718790       -0.03230596243730       -1.97554963991465
C          -13.22937476245960        1.18628851566907       -2.75525302845040
C          -12.07619862402020        1.18156770117554       -3.47922821247332
C          -11.37250465536915       -0.02880959350427       -3.11603522737032
C           -9.44007536933031       -1.53325173321440       -3.30859731401349
C           -8.23975299587647       -1.96196755836955       -3.97648535863877
C           -7.88957887144057       -3.15800346670762       -3.40088158898132
C           -8.85737195710140       -3.39775782265384       -2.35295553892160
C           -9.67206230961491       -4.64460841241743       -0.40131466352953
C           -9.51027537584529       -5.67695363277004        0.59279262634132
C          -10.59061405172968       -5.57726875915259        1.42839772565049
C          -11.39799579489589       -4.49029673108504        0.90845056882269
C          -13.49060664659052       -3.21166291985515        0.85344413097882
C          -14.84386903356902       -2.97682892333089        1.29215922781132
C          -15.29651394176238       -1.90728995169337        0.57940114386045
C          -14.21565463271251       -1.51484676133050       -0.29319909706711
C          -14.24480197731722       -0.41273875042112       -1.12603976931729
H          -15.12541890315396        0.21068897863198       -1.10380940270564
C          -10.14781192820239       -0.38999319410668       -3.64237412928912
H           -9.71850542411337        0.26642800136521       -4.38743879710573
C           -8.79641239088608       -4.44370787835684       -1.45193654466389
H           -7.98294157877725       -5.14611988040883       -1.55609291140588
C          -12.65971139865092       -4.18070758317776        1.38338156072529
H          -13.04032865521484       -4.76345936257613        2.20884601159995
C          -11.59532539027624        2.18088123188564       -4.47380743748314
H          -10.72645861778254        2.72381975479768       -4.09918399392166
H          -12.37800948870362        2.89980894987949       -4.70325722959988
H          -11.30771790294831        1.68490689287865       -5.40050160864361
C          -14.29560086921580        2.22566773333544       -2.70934650710144
H          -14.60844212210357        2.40874014532767       -1.68204676865648
H          -15.17263889003821        1.91445372612341       -3.27880848534122
H          -13.93389914127513        3.16363791439453       -3.12603335699336
C           -7.52791632900971       -1.21081811836527       -5.04469228751090
H           -7.64856980659316       -0.13745832205466       -4.91183577427793
H           -7.91452265559565       -1.47291809181044       -6.03190935191202
H           -6.46516360822500       -1.44788744420366       -5.02408006096621
C           -6.78476539705443       -4.02647694432297       -3.71843326927280
H           -6.39475920345995       -4.61142247099964       -2.89417282767790
C           -6.23733846761267       -4.16883801004289       -4.92211347648206
H           -6.60221050793413       -3.65243807627824       -5.79160767900013
H           -5.39904805573117       -4.82538535879909       -5.08345881307550
C           -8.34227970513011       -6.59172937487109        0.70859111598293
H           -7.44005826371696       -6.11813730484366        0.32661171049846
H           -8.50824414679314       -7.51118119531219        0.14434454022639
H           -8.18251146499891       -6.86036617650599        1.75259919030740
C          -10.89920851282318       -6.34058105097625        2.61321303009186
H          -11.41717481158486       -5.79284198440526        3.39237581266056
C          -10.59958012050248       -7.62163908579872        2.80661035802150
H          -10.12598949615692       -8.22060438031176        2.04833129719717
H          -10.83635493870836       -8.12650678195831        3.72812103547019
C          -15.56324565390938       -3.80678002177543        2.29989492051798
H          -15.10397737368467       -3.71522643500003        3.28471498709484
H          -15.53255595607344       -4.85912813712210        2.01177523350893
H          -16.60481267887000       -3.50526573370654        2.37582191635717
C          -16.63368535304626       -1.25489440805441        0.63304415800854
H          -17.16907789082486       -1.54873467715101        1.53235056955600
H          -17.23230204688866       -1.54175110243074       -0.23446669578720
H          -16.53936423034263       -0.17005772075114        0.63025501307286
O          -10.40946534759261       -0.88826344321831        0.08292312526890
H          -10.76113149281168        0.02504265436123       -0.04882982262235
H          -10.11243174751005       -0.93715314915395        1.02507210849671
C          -14.76185017697255       -6.22866629157204       -3.82624147475081