87
 energy: -124.406045526101 gnorm: 0.389991450832 xtb: 6.7.1 (edcfbbe)
Fe          38.98000000000000        2.51000000000000       36.18000000000000
N           37.31000000000000        2.74000000000000       35.05000000000000
N           39.45999999999999        4.35000000000000       35.93000000000000
N           40.61999999999999        2.24000000000000       37.30000000000000
N           38.58000000000000        0.62000000000000       36.38000000000000
C           36.38999999999999        1.79000000000000       34.75000000000000
C           35.43000000000000        2.37000000000000       33.87000000000000
C           35.77000000000000        3.61000000000000       33.68000000000000
C           36.91000000000000        3.89000000000000       34.45999999999999
C           38.75000000000000        5.34000000000000       35.21000000000000
C           39.34999999999999        6.64000000000000       35.30000000000000
C           40.47000000000000        6.45000000000000       36.05000000000000
C           40.45000000000000        5.13000000000000       36.51000000000000
C           41.45000000000000        3.23000000000000       37.71000000000000
C           42.56000000000000        2.60000000000000       38.45000000000000
C           42.31000000000000        1.30000000000000       38.57000000000000
C           41.03000000000000        1.04000000000000       37.76000000000000
C           39.25000000000000       -0.38000000000000       37.05000000000000
C           38.58000000000000       -1.59000000000000       37.20000000000000
C           37.38000000000000       -1.38000000000000       36.47000000000000
C           37.35000000000000       -0.04000000000000       36.08000000000000
C           36.37000000000000        0.48000000000000       35.18000000000000
H           35.58100000000000       -0.18000000000000       34.82200000000000
C           37.57000000000000        5.13000000000000       34.45000000000000
H           37.16900000000000        5.94500000000000       33.84800000000000
C           41.36999999999999        4.55000000000000       37.38999999999999
H           42.09000000000000        5.21800000000000       37.86299999999999
C           40.45000000000000       -0.18000000000000       37.68000000000000
H           40.95500000000000       -1.03300000000000       38.13200000000000
C           34.19000000000000        1.60000000000000       33.25000000000000
H           33.74900000000000        1.26200000000000       34.21200000000000
H           34.76400000000000        0.76100000000000       32.80200000000000
H           33.37000000000000        1.90700000000000       32.56600000000000
C           34.97000000000000        4.65000000000000       32.71000000000000
H           35.82800000000000        4.91300000000000       32.05500000000000
H           34.84700000000000        5.44400000000000       33.47800000000000
H           34.05200000000000        4.57700000000000       32.08900000000000
C           36.21000000000000       -2.41000000000000       36.29000000000000
H           36.81500000000000       -3.08500000000000       35.64700000000000
H           35.14600000000000       -2.47400000000000       35.97800000000000
H           36.31600000000000       -2.73000000000000       37.34900000000000
C           39.11000000000000       -2.89000000000000       37.78000000000000
H           38.95400000000000       -3.11900000000000       38.83700000000000
C           39.06000000000000       -4.11000000000000       36.95000000000000
H           39.19900000000000       -4.05000000000000       35.86000000000000
H           38.88300000000000       -5.09300000000000       37.41200000000000
C           43.10999999999999        0.18000000000000       39.16000000000000
H           43.19500000000000       -0.46100000000000       38.25700000000000
H           42.29800000000000       -0.21500000000000       39.80800000000000
H           44.07600000000000        0.16000000000000       39.70800000000000
C           43.65000000000000        3.44000000000000       39.05000000000000
H           43.31399999999999        4.45900000000000       39.19299999999999
C           44.92000000000000        2.96000000000000       39.08000000000000
H           45.11699999999999        1.89000000000000       38.91600000000000
H           45.76800000000000        3.63500000000000       39.26900000000000
C           41.43000000000000        7.51000000000000       36.70000000000000
H           41.93500000000000        7.68800000000000       35.72600000000000
H           42.14600000000000        7.72500000000000       37.52100000000000
H           40.55000000000000        8.18400000000000       36.77800000000000
C           38.98000000000000        7.91000000000000       34.53999999999999
H           40.00200000000000        8.03100000000000       34.12100000000000
H           38.90000000000000        8.50600000000000       35.47400000000000
H           38.24000000000000        8.27100000000000       33.79400000000000
C           36.65000000000000        2.24000000000000       41.14999999999999
H           35.70200000000000        1.67200000000000       41.04099999999999
H           36.47900000000000        3.10000000000000       41.83300000000000
H           37.42600000000000        1.56800000000000       41.57399999999999
N           36.41999999999999        3.74000000000000       39.13000000000000
H           35.62500000000000        4.25700000000000       39.44400000000000
C           37.10000000000000        2.75000000000000       39.78000000000000
C           37.07000000000000        3.82000000000000       38.03000000000000
H           36.82699999999999        4.56500000000000       37.27300000000000
N           38.07000000000000        2.90000000000000       37.90999999999999
C           38.02000000000000        2.11000000000000       39.03000000000000
H           38.61499999999999        1.21900000000000       39.16900000000000
C           41.87000000000000        3.98000000000000       33.61000000000000
H           42.89200000000000        4.31400000000000       33.33100000000000
H           41.51500000000000        4.59800000000000       34.46299999999999
H           41.19799999999999        4.12600000000000       32.73700000000000
C           41.89000000000000        2.54000000000000       34.00000000000000
H           42.41600000000000        2.40700000000000       34.96900000000000
H           42.41899999999999        1.93600000000000       33.23200000000000
S           40.09000000000000        2.05000000000000       34.13000000000000
C           40.35000000000000        0.30000000000000       34.08000000000000
H           40.98800000000000       -0.03700000000000       34.92400000000000
H           40.85499999999999        0.01400000000000       33.13300000000000
H           39.37900000000000       -0.23400000000000       34.14899999999999
87
 energy: -124.561614984993 gnorm: 0.211703199697 xtb: 6.7.1 (edcfbbe)
Fe          38.99130360817270        2.50211216306811       36.16947579250832
N           37.30244700134071        2.74952119808485       35.05954736180005
N           39.43394976376434        4.37157499292268       35.93494488927157
N           40.62215559332021        2.23848229401501       37.29186155285585
N           38.55590467570928        0.60485347555548       36.39875895705652
C           36.38391797327488        1.79207964584238       34.74251106018789
C           35.39861910651050        2.35837232482743       33.84896777812929
C           35.73535118987957        3.63119337185313       33.65227598016580
C           36.91190290830544        3.89339859350689       34.43509074836163
C           38.73996479421520        5.32524960288410       35.19680399097074
C           39.35485317035161        6.61416084978739       35.28715846665960
C           40.45425723583145        6.43835686261751       36.09619300491119
C           40.44580041133073        5.09770242300343       36.51807423257831
C           41.45749336233702        3.21880647423393       37.71039807437791
C           42.55912928730040        2.62071525275427       38.47291445396034
C           42.32127386928435        1.30410575072693       38.55782429028683
C           41.05917639129083        1.05619147098344       37.77807812773278
C           39.24658518531728       -0.37523787065093       37.06158869450812
C           38.56486177217224       -1.61286243150916       37.16452105657824
C           37.36234758716075       -1.37536016949709       36.47483631170239
C           37.35814265420316       -0.03415699013018       36.05265610593875
C           36.37968702181523        0.48750620182700       35.18641540238367
H           35.59156253475405       -0.17371819613160       34.83635662462748
C           37.57698135439790        5.11587833035689       34.45307622133370
H           37.17594648074868        5.93495021625606       33.86262178365519
C           41.37244218106851        4.54404863463101       37.39155974705013
H           42.08753534247389        5.21789385021098       37.85231501573583
C           40.46758336455911       -0.17318707822990       37.68434821028053
H           40.95498792751593       -1.02987156825820       38.13375366234987
C           34.21040363010302        1.57122877040212       33.27508655682438
H           33.73035634170699        1.23681543274961       34.20135861956057
H           34.73830599078167        0.73960172605191       32.79690169709206
H           33.42253533225151        1.93624025829050       32.59082662113411
C           35.00929724613634        4.66875750233734       32.73377579221631
H           35.81910066757729        4.93767726308462       32.04687958095798
H           34.84018163077697        5.47176839995181       33.45818994719171
H           34.08807282068374        4.53229222330360       32.13400933177398
C           36.25292882521552       -2.42952078956240       36.31048901083432
H           36.79520093094593       -3.12141841767360       35.65508109286794
H           35.19473952025925       -2.41488604827682       35.98239033329660
H           36.29215351122746       -2.78026487560312       37.34741481951287
C           39.03630650986825       -2.92117865599899       37.73543768497961
H           38.96344103964984       -3.10245851699610       38.81711908264251
C           39.05408822557067       -4.07518406070895       36.96705075899641
H           39.18784226913742       -4.03950637084213       35.88526489351473
H           38.91476314985884       -5.06373888156143       37.41229231991480
C           43.08218015514442        0.16123533555336       39.14910293984750
H           43.20504882727260       -0.48861852505171       38.27318997884603
H           42.31462416454848       -0.25092342478224       39.81655963444216
H           44.04252190286641        0.19666288984426       39.69008495700964
C           43.65782558604867        3.43221323173262       39.02356717718079
H           43.33889513005132        4.45239934168874       39.20059600975384
C           44.91066786429214        2.96861315624971       39.07984296104885
H           45.11708872346517        1.91454059086023       38.90894014687254
H           45.75538086820676        3.62472520567405       39.28310290259905
C           41.39719700844089        7.53323083565395       36.65204457757454
H           41.94978421134154        7.73523806445723       35.72628461210071
H           42.10465575871707        7.65768463713970       37.49794617452392
H           40.57831868907316        8.24815979860125       36.78315930147544
C           39.01686098585708        7.91185530269531       34.56870446609619
H           40.00056894481950        8.07741446717336       34.11144672304241
H           38.90346348101541        8.54982869316040       35.45606021350464
H           38.25002014012295        8.20798567798535       33.82750946110749
C           36.64002279776937        2.23652773867725       41.16312727871197
H           35.70572641491768        1.67415122563905       41.05184644407025
H           36.47839529589533        3.08852742783801       41.83429636090757
H           37.41323285196133        1.57750412761949       41.57245616510610
N           36.43720111069587        3.72833629867740       39.14791635074136
H           35.63649518947080        4.25307737744799       39.45642808178700
C           37.07481704778955        2.71724518604351       39.81330222634345
C           37.08661524816061        3.81852015087162       38.00107822690428
H           36.84187116241288        4.55927666580145       37.25865377764154
N           38.04572870638389        2.90036068678109       37.87592957646292
C           38.01433017900508        2.13782554331213       39.02229977556540
H           38.61368717427352        1.25059391876839       39.16179717758145
C           41.87734220555828        3.99177527610834       33.60635594030180
H           42.88686984637648        4.31965356634244       33.33197985674738
H           41.51943375646771        4.59746726285414       34.44663129895100
H           41.20782321775220        4.13159264197485       32.74681391367546
C           41.89000313134127        2.54360593598488       34.00387435193618
H           42.40359898140827        2.40196994741476       34.96543200327074
H           42.39939353883798        1.93409704135701       33.24049684497349
S           40.10406545270097        2.04249327150169       34.12401998398663
C           40.35623507080352        0.27952924780395       34.07785651451815
H           40.98313418921385       -0.03744901501642       34.91987907025549
H           40.85050415291028        0.01160010178022       33.13584802729920
H           39.38748944645291       -0.22851153870866       34.14604277396586
87
 energy: -124.646709832561 gnorm: 0.092173125857 xtb: 6.7.1 (edcfbbe)
Fe          38.99284375262395        2.49670783186980       36.16719787964153
N           37.29682115954564        2.75572869165629       35.05704299508612
N           39.41559803036977        4.39444011005683       35.93437122277663
N           40.62399642709111        2.23548791205881       37.28208898002567
N           38.53223303711697        0.58396076056013       36.41255410843964
C           36.37815722301477        1.79977002995078       34.73344299026076
C           35.37353173794220        2.35381542341363       33.83057500233024
C           35.70411315753444        3.64508826826761       33.62564027409627
C           36.90914469180391        3.89105190411900       34.41033210214051
C           38.73690823262098        5.31835454179380       35.18882258793740
C           39.36565138587454        6.60215089275458       35.28063309068541
C           40.44137115732144        6.43975394062812       36.13615005138248
C           40.43708874277991        5.07524657713507       36.52719905428024
C           41.46402250246844        3.20702378558828       37.71226353071087
C           42.55564402445197        2.63478757847964       38.49135960239086
C           42.32694705652229        1.30013131611345       38.53965141692490
C           41.08883851608170        1.06755419162577       37.79334176537061
C           39.24576797953908       -0.36873767622193       37.07552631279059
C           38.55559104315621       -1.62901214840318       37.13070953928088
C           37.35429766422020       -1.38322783881677       36.47685701092421
C           37.36747348731554       -0.03151765360821       36.03207026280016
C           36.38916067778952        0.49821574955686       35.19542221987604
H           35.60201329149239       -0.16564811773832       34.85398314406439
C           37.58139083423264        5.09990498502914       34.45658858423378
H           37.18266189932537        5.92484623175831       33.87666720748585
C           41.37229830098513        4.54050688606503       37.39455600542127
H           42.08575167813199        5.21890063349614       37.83887865183491
C           40.47865414236346       -0.16572509250397       37.68574137765956
H           40.95007615863567       -1.02749304769184       38.13322410921911
C           34.23482121828300        1.54682292079309       33.30174191984554
H           33.70887050099424        1.20369854122259       34.19053146661160
H           34.70905922951918        0.71044482839816       32.79309150091367
H           33.48299037625679        1.97500325922187       32.61783832054615
C           35.05087627473079        4.67963591440445       32.76211219033429
H           35.81214678569489        4.96922495174405       32.03931616743851
H           34.83620690876813        5.50612382265155       33.43651867645150
H           34.12801848868168        4.47554875479423       32.18714663972149
C           36.29920904838864       -2.44896991500855       36.33039330630277
H           36.77465269899597       -3.16447978749880       35.66226047575766
H           35.25095453236383       -2.33614650719251       35.98630477375607
H           36.26833971502042       -2.83844205425981       37.34584636389969
C           38.96875411531524       -2.94328144033201       37.69814691856975
H           38.95875780638092       -3.07168600748239       38.79534167203207
C           39.04000377606158       -4.04040177211590       36.97963520685071
H           39.15987453864498       -4.02916563629815       35.90145606050467
H           38.96494018753545       -5.03786301929035       37.41440276903881
C           43.05367003793709        0.14229567627874       39.13776693172625
H           43.21513170619696       -0.52418056917138       38.29126378426371
H           42.32981235990621       -0.28991348107463       39.82609940342461
H           44.00832558563569        0.24735519974886       39.67057160975830
C           43.65715890127147        3.42408378469210       39.00185081907770
H           43.36956277396090        4.45138987385324       39.20404450660599
C           44.90379090991398        2.97586195908158       39.08297206967222
H           45.12313779174322        1.93573712208202       38.89643547641374
H           45.74407028179788        3.61714278316871       39.30277563555364
C           41.35616054125422        7.55168286478271       36.60246300037468
H           41.95820344622139        7.77965393114245       35.72415872179186
H           42.05034712662579        7.56849746977013       37.47323119537725
H           40.60679474399524        8.32001237807156       36.78002124561750
C           39.05773739761362        7.91333417551475       34.59958977271805
H           40.00434664024964        8.12810756198005       34.10420986244996
H           38.90961470500025        8.59294007198139       35.44041183375413
H           38.25654159401839        8.12335307220751       33.86553735002622
C           36.63250479693381        2.23339675398968       41.17090498657015
H           35.70446862661056        1.67384899067824       41.07034165579616
H           36.47646479197872        3.07886947843473       41.83706470260721
H           37.40068644041775        1.58214299467410       41.57693355479530
N           36.45751605962483        3.71863786892382       39.15962343640579
H           35.65431550632476        4.25085101529884       39.46230872282742
C           37.05604526248995        2.68818297689368       39.83436298768032
C           37.09621093860262        3.81439550966943       37.97711377588225
H           36.84934119301695        4.55568892567556       37.24847796464221
N           38.02357669103456        2.90305496827264       37.85308970932712
C           38.00486443389945        2.16208543710513       39.00776845247619
H           38.61290767181459        1.28426579152233       39.15401414772943
C           41.88390565688446        4.00176039135062       33.60384838111093
H           42.88539378365336        4.32406159111936       33.33323945140883
H           41.52367825690597        4.60125300355631       34.43358260126251
H           41.21776801944130        4.13758157070028       32.75292551738715
C           41.88569478984900        2.54448760002778       34.00770331994492
H           42.38940399375890        2.39835129630615       34.96421154631635
H           42.37891123413906        1.93196326324803       33.24693272670990
S           40.11163963735930        2.04002648429070       34.12206434609311
C           40.36465953684242        0.25999377442234       34.07547975482078
H           40.98069948850886       -0.04134707103209       34.91767448032456
H           40.84868802934022        0.00531638380562       33.13617475407516
H           39.39472442323950       -0.22335639378751       34.14278029655440
87
 energy: -124.684368269386 gnorm: 0.057019337289 xtb: 6.7.1 (edcfbbe)
Fe          38.99454393536020        2.49206941867558       36.16147662053091
N           37.29674439756942        2.75618964969790       35.05202355056618
N           39.40357386097514        4.40575484849429       35.94339417841643
N           40.62606916617507        2.23306899114848       37.27706913760668
N           38.52045048336649        0.57528919367954       36.42208022046329
C           36.37865721222256        1.80490241293955       34.73170129158625
C           35.36992097876781        2.35080578150703       33.82909911879628
C           35.69972041311133        3.64549755332329       33.61877212012249
C           36.91266980740028        3.88510137277139       34.39794154945987
C           38.73879991157587        5.31944266325181       35.18640640358215
C           39.37292502448267        6.60349128802110       35.28513573250481
C           40.42790200072284        6.44709807445029       36.15551085480841
C           40.42509825321179        5.07183978729624       36.54149064820815
C           41.46743574684223        3.20102512845236       37.71365217402972
C           42.55276957251758        2.63479295828903       38.49680866566747
C           42.32609873885615        1.29054216241523       38.52650837246272
C           41.10108972277533        1.06835494619518       37.79446856349174
C           39.24465284308649       -0.36421364265038       37.08394256918657
C           38.54520072666035       -1.62510608046253       37.11473507039933
C           37.35571047456143       -1.39569919370796       36.46899757087787
C           37.37273681834360       -0.03519738704524       36.02127080320259
C           36.39333612580881        0.50590734055008       35.20043189200769
H           35.60335179358439       -0.15714586509757       34.87312298775709
C           37.58601518449302        5.08952035855898       34.45271091868750
H           37.18629660357184        5.91948854747527       33.88544466530549
C           41.36977224268389        4.53819673173988       37.39722783696545
H           42.08769388729638        5.21970081563586       37.82455072431762
C           40.47822149164504       -0.16275532140971       37.68424564611396
H           40.94353148105182       -1.02711389349612       38.13271546795463
C           34.24752019263570        1.52372229881938       33.31957429521263
H           33.68196604021304        1.16188331183378       34.18033532934268
H           34.67591840877169        0.67193200687268       32.78858855300418
H           33.53759135139193        2.02105121818567       32.63888748566027
C           35.07772518331011        4.69811634722981       32.77696080600859
H           35.80736838096720        5.01137954125870       32.02732380388917
H           34.83319064089564        5.55095425873606       33.41394399552900
H           34.15693220756863        4.41516568371793       32.23498640347744
C           36.32692686031510       -2.46761000248074       36.33965208021424
H           36.74623388731112       -3.21940622761989       35.66714174478170
H           35.29849565007260       -2.24678488788374       35.98398882979814
H           36.24108359013392       -2.90567252331191       37.33896244429341
C           38.91100088230744       -2.92752756359687       37.69913116824812
H           38.92539231155105       -3.02657860823478       38.79063448337180
C           39.06133458453589       -4.04351135061124       36.97520199936727
H           39.11520764463110       -4.02610522705401       35.89356280405082
H           39.04348841999522       -5.03615154436293       37.41799424251855
C           43.03538334257612        0.12831242435597       39.13113665331225
H           43.22955851314349       -0.56951546795046       38.31385883638917
H           42.34482849536133       -0.33396518564213       39.83726193114132
H           43.98109742712526        0.30840102918038       39.65579168430160
C           43.65915979826863        3.42175099562553       38.98648585654016
H           43.40285101241982        4.45420483775444       39.20512566691252
C           44.90652531683811        2.97915589677746       39.08356878305793
H           45.13789374029109        1.94832289475993       38.87437547924127
H           45.73746852942956        3.61553556714478       39.33942599791826
C           41.32492825040515        7.56515457397430       36.56920064095953
H           41.96216049986678        7.82602075169697       35.72054304600186
H           41.99822486192971        7.47482224485768       37.45260991499639
H           40.64320381780569        8.40176369838880       36.77162027618238
C           39.08602478118014        7.91335259746342       34.62179518453753
H           40.00782504189373        8.18632455887213       34.09851139925545
H           38.91704325064917        8.64007659521317       35.42335722608971
H           38.25498823880023        8.02623246382798       33.89915526716481
C           36.62496504847170        2.22890440825832       41.17685989726433
H           35.69425223286400        1.66890342874962       41.09759360881092
H           36.47308085848781        3.07442384194998       41.84350416808322
H           37.39046905815000        1.57983238901758       41.58895892477076
N           36.46770705767195        3.71845787303974       39.16327313653402
H           35.67252771747085        4.25710138055997       39.47090170366061
C           37.04690430980098        2.67350329026972       39.83323882435231
C           37.09196234792087        3.81491904606852       37.96345393825928
H           36.84775922228014        4.56004961194049       37.23783723453813
N           38.00584349186192        2.89453724340547       37.83279732777626
C           37.99706984408805        2.17121174119844       38.99204906092000
H           38.62232287673035        1.31229871147045       39.14588232658592
C           41.89046315967907        4.00934142573196       33.60189304963127
H           42.89283261199834        4.32868201420972       33.33453993582385
H           41.52827104704156        4.61451818593903       34.42432521992209
H           41.22878183269989        4.14820592320717       32.75061464179712
C           41.87684542315021        2.54910963207928       34.01048213044009
H           42.37167946847315        2.39517511497335       34.96872373914213
H           42.35615547874918        1.92768761609253       33.25142054868559
S           40.11214957982633        2.03291468101437       34.11699526888145
C           40.37264025759081        0.24410173005583       34.07138747650249
H           40.98275563831682       -0.05130532467885       34.91781431548694
H           40.85215918272269       -0.00805755246764       33.13115625547386
H           39.39787220064197       -0.22517226058231       34.13766759880783
87
 energy: -124.698512452690 gnorm: 0.053085535540 xtb: 6.7.1 (edcfbbe)
Fe          38.99210142422823        2.48926776823208       36.16160059499320
N           37.30542849730713        2.75195422222904       35.04666426310208
N           39.39642206474505        4.41568836648230       35.95543470683216
N           40.62729333259450        2.23114203120291       37.27310864354352
N           38.51155004201691        0.56686062164622       36.42774283970201
C           36.38496150343340        1.80606276505372       34.73438632526442
C           35.37599963058633        2.34657916607739       33.83526676065262
C           35.70994655153800        3.64252314955647       33.62000027407504
C           36.92482335425034        3.87755962813395       34.39136091395904
C           38.74008822869433        5.32637413342997       35.18848077281802
C           39.37737834871071        6.61227514619537       35.29144838250429
C           40.41581572408907        6.46083741768837       36.16974808708119
C           40.41523133199692        5.07876379671118       36.55964275636216
C           41.47239586456679        3.19585439126838       37.71150803951251
C           42.55706224982845        2.62585174671337       38.48977204016741
C           42.32695498393350        1.27620992658064       38.51212236417602
C           41.10430818375244        1.06454620843414       37.78731050071862
C           39.24234952432417       -0.36726857793801       37.08937274556032
C           38.54703730437286       -1.63221699459818       37.10047201037039
C           37.35855507027501       -1.41572408263951       36.46042045826130
C           37.37302825133809       -0.04640601271551       36.01599670336613
C           36.39393460625865        0.50873211845752       35.20707810030665
H           35.59570082700052       -0.14844376616158       34.89513372091390
C           37.59302414705603        5.08366963433002       34.44906362357964
H           37.19060683083814        5.91469880809618       33.88899140034879
C           41.36834892495000        4.53661138174548       37.40030859745828
H           42.09509881615554        5.21793887534183       37.81175069043112
C           40.47367806709602       -0.16442074695123       37.68058622943237
H           40.93833722572339       -1.02839650226720       38.13104377244563
C           34.25364163819630        1.51436250326713       33.32798438543170
H           33.66193752074339        1.13802842826824       34.16658915421347