87
 energy: -124.720521095801 gnorm: 0.000035918577 xtb: 6.7.1 (edcfbbe)
Fe          38.98801251034273        2.41109990597648       36.13014539485248
N           37.35857113279893        2.66534722926912       35.00439390562558
N           39.42729811710507        4.35505098882491       35.92992078185044
N           40.63089652118742        2.16201208106602       37.25884825660572
N           38.50598390427121        0.48478346363078       36.40470390864904
C           36.45319774499843        1.71493194403428       34.65646142211968
C           35.44075264694011        2.26840760498656       33.78243218403428
C           35.75594927473947        3.57967930082717       33.61716560443942
C           36.95637822557579        3.80798651716280       34.39233728857079
C           38.71627519508088        5.28717553662858       35.24274068907418
C           39.32972266040679        6.59108074053946       35.36497864562784
C           40.43260004256356        6.42183834826390       36.14274760639538
C           40.47528725622569        5.01781546657181       36.48517688321404
C           41.53620580125803        3.11110659461939       37.60644527810017
C           42.60128380802583        2.53596987376391       38.40453061756871
C           42.28501248730714        1.21177063435512       38.55784894968073
C           41.04963183718549        1.00673431237301       37.84658426540922
C           39.18483843264740       -0.43009673207824       37.14364658534257
C           38.50820921164624       -1.71257880998118       37.11862850290791
C           37.39050670488417       -1.53225513543228       36.34740591940251
C           37.41451977528138       -0.15886443989182       35.91383491668959
C           36.46146263159145        0.40308248844366       35.08215687658132
H           35.66469085657500       -0.23672056422145       34.73512855276392
C           37.57323138776921        5.03961721470045       34.50487986425536
H           37.12909585340744        5.87152047071674       33.97962139653714
C           41.47276702921743        4.44608261303259       37.25161114133654
H           42.26198548132547        5.09434844052430       37.60010946799505
C           40.38170815805154       -0.20534883525908       37.79624315136932
H           40.83307254240911       -1.04067740412675       38.30947707407135
C           34.30464105803296        1.49034285816980       33.21298312820090
H           33.67989870687941        1.08405789235942       34.00905967460537
H           34.67447369863669        0.65740626167878       32.61503853644041
H           33.68440242764264        2.11870621594887       32.57843804990941
C           35.05988368869261        4.62706758197637       32.81721239588713
H           35.73125138112403        5.04192010570708       32.06530737332825
H           34.72487613068824        5.44341201903311       33.45822759141299
H           34.19186079045466        4.21310168388236       32.31013076265666
C           36.30443212218084       -2.50607767460891       36.04991142721239
H           36.43909943442435       -2.95005622543238       35.06207157270065
H           35.33236092858350       -2.01565390257012       36.06908637249443
H           36.30664831719146       -3.30517355309495       36.78859288734299
C           38.96008734711291       -2.89657228462759       37.81474414159992
H           39.47654722630821       -2.72099483852672       38.75168232483939
C           38.79914969174541       -4.14749612718258       37.39517472625124
H           38.33769960554242       -4.38054328357995       36.45154346404615
H           39.15026078612391       -4.98540749343151       37.97439080298849
C           43.00047924147110        0.17585222098835       39.35278806233251
H           43.60715285840117       -0.46217302825526       38.70754758493498
H           42.29374087218318       -0.46006689450485       39.88419416276006
H           43.65549132244624        0.65076722751933       40.08035552333310
C           43.73036069757723        3.27224635755379       38.92796074273369
H           43.53386444497205        4.30411015838091       39.19559293960214
C           44.95794162741567        2.78878082110127       39.08863523223665
H           45.22297291154470        1.78775333818002       38.79574173143374
H           45.75177188507531        3.39166715575717       39.49757002378264
C           41.43813195407372        7.42742985568375       36.58766566945637
H           42.43093848987361        7.16442217155060       36.22138974448718
H           41.48076009716105        7.47195754675984       37.67623042207148
H           41.18740138447576        8.41719413790927       36.21388041730681
C           38.80421168530196        7.83073442970581       34.72579759283843
H           38.78672274586383        7.72426019597092       33.64070147897355
H           39.42572989599540        8.68730897811606       34.97483139751063
H           37.78705370564241        8.03587766412900       35.06087681194155
C           36.76383960271904        2.58415555511012       41.24688437866931
H           35.70664321973420        2.33950438569582       41.34975858710639
H           36.97417283198700        3.45490901426458       41.86787390134701
H           37.35143903138258        1.74714698312888       41.61070215615688
N           36.52289566730156        3.86043752624439       39.10546437949526
H           35.82544775162235        4.50111504709130       39.44712684520496
C           37.10725068732744        2.85289758274886       39.82760332251481
C           37.05210718604132        3.83346417841498       37.86189049404289
H           36.78063680874211        4.51016664916825       37.07835834081081
N           37.93503166284174        2.87129542925146       37.75291635288240
C           37.98071654294240        2.25253799853885       38.96687070909287
H           38.63346977744514        1.42263256599377       39.13997098866447
C           41.30321228628840        4.12534567558917       33.05280541182858
H           42.16960800093666        4.77787770181714       32.96451916038176
H           40.48387974944749        4.69132060807375       33.48599393557654
H           41.00738386569234        3.79567079165838       32.05967497127397
C           41.63812503800632        2.93244458139381       33.92684184765012
H           41.94698489572238        3.24612909916887       34.92262244585026
H           42.42083434098607        2.32694035865288       33.46970320934877
S           40.16551642365869        1.84473331169938       34.10689859847451
C           41.04693589429031        0.28644560534973       34.42858570882095
H           41.67279600103289        0.39215975468129       35.30892918235439
H           41.64073728436426        0.02842594185711       33.55555439824462
H           40.29388905781946       -0.47381776707982       34.60389077351395
