77
 energy: -118.818691386496 gnorm: 0.253325278305 xtb: 6.7.1 (edcfbbe)
Fe          23.35500000000000       -5.74800000000000       10.87600000000000
N           24.23500000000000       -5.55600000000000       12.79200000000000
N           22.13600000000000       -7.28200000000000       11.60100000000000
N           22.44900000000000       -5.92200000000000        9.09600000000000
N           24.50400000000000       -4.14900000000000       10.28300000000000
C           24.99100000000000       -4.48600000000000       13.23800000000000
C           25.00300000000000       -4.51300000000000       14.69000000000000
C           24.28800000000000       -5.58200000000000       15.08200000000000
C           23.78800000000000       -6.25300000000000       13.89700000000000
C           22.17200000000000       -7.81600000000000       12.87500000000000
C           21.18500000000000       -8.87400000000000       12.95400000000000
C           20.58000000000000       -8.96600000000000       11.75900000000000
C           21.16500000000000       -7.95500000000000       10.89800000000000
C           21.43800000000000       -6.79900000000000        8.75900000000000
C           21.10600000000000       -6.58300000000000        7.37200000000000
C           21.89000000000000       -5.61200000000000        6.89400000000000
C           22.75000000000000       -5.16900000000000        7.97800000000000
C           24.43300000000000       -3.65900000000000        8.97200000000000
C           25.25500000000000       -2.47600000000000        8.87100000000000
C           25.85500000000000       -2.28400000000000       10.26100000000000
C           25.33300000000000       -3.36200000000000       11.07700000000000
C           25.61100000000000       -3.56000000000000       12.41400000000000
H           26.38400000000000       -2.93500000000000       12.86000000000000
C           23.01200000000000       -7.39500000000000       13.88300000000000
H           23.07000000000000       -8.03300000000000       14.76500000000000
C           20.83100000000000       -7.71600000000000        9.58800000000000
H           20.01400000000000       -8.30300000000000        9.16800000000000
C           23.70900000000000       -4.18200000000000        7.92500000000000
H           23.91900000000000       -3.76700000000000        6.93900000000000
C           23.99200000000000       -6.05200000000000       16.52700000000000
H           24.14099999999999       -5.20500000000000       17.23000000000000
H           24.68400000000000       -6.87600000000000       16.80300000000000
H           22.94000000000000       -6.40000000000000       16.60000000000000
C           25.71500000000000       -3.49400000000000       15.61300000000000
H           26.06900000000000       -2.63100000000000       15.00900000000000
H           26.59000000000000       -3.97600000000000       16.10000000000000
H           25.00500000000000       -3.12700000000000       16.38500000000000
C           20.91700000000000       -9.74100000000000       14.20500000000000
H           19.92599999999999       -9.47800000000000       14.63300000000000
H           21.70200000000000       -9.55100000000000       14.96800000000000
H           20.91400000000000      -10.81600000000000       13.92300000000000
C           19.45200000000000       -9.92100000000000       11.29300000000000
H           19.30100000000000      -10.09100000000000       10.21700000000000
C           18.63600000000000      -10.56300000000000       12.13600000000000
H           18.74000000000000      -10.43100000000000       13.22300000000000
H           17.85000000000000      -11.23100000000000       11.75300000000000
C           20.02500000000000       -7.35500000000000        6.58800000000000
H           19.05200000000000       -6.82800000000000        6.68100000000000
H           19.92100000000000       -8.38000000000000        7.00300000000000
H           20.30500000000000       -7.40700000000000        5.51400000000000
C           21.84100000000000       -5.10000000000000        5.43300000000000
H           21.07100000000000       -5.47800000000000        4.74400000000000
C           22.71000000000000       -4.20400000000000        4.96700000000000
H           23.73100000000000       -4.15300000000000        5.37300000000000
H           22.41700000000000       -3.50400000000000        4.17000000000000
C           25.48500000000000       -1.59200000000000        7.62700000000000
H           24.50600000000000       -1.32400000000000        7.17600000000000
H           26.08700000000000       -2.14800000000000        6.87700000000000
H           26.01300000000000       -0.66000000000000        7.92100000000000
C           26.79900000000000       -1.15600000000000       10.68800000000000
H           26.20400000000000       -0.29700000000000       11.06600000000000
H           27.40100000000000       -0.82100000000000        9.81700000000000
H           27.46900000000000       -1.51400000000000       11.49800000000000
O           21.38900000000000       -4.01000000000000       11.39200000000000
O           21.02800000000000       -3.78700000000000       12.54600000000000
C           27.50900000000000       -9.14400000000000        8.69500000000000
H           27.42299999999999      -10.23800000000000        8.86700000000000
H           28.51700000000000       -8.80700000000000        9.01800000000000
H           27.36799999999999       -8.93700000000000        7.61300000000000
N           26.38000000000000       -8.51100000000000       10.86500000000000
H           27.00000000000000       -9.04700000000000       11.43800000000000
C           26.45799999999999       -8.42900000000000        9.48800000000000
C           25.36800000000000       -7.77700000000000       11.29000000000000
H           25.07700000000000       -7.67100000000000       12.33400000000000
N           24.79200000000000       -7.21200000000000       10.24100000000000
C           25.45400000000000       -7.60500000000000        9.10600000000000
H           25.14700000000000       -7.25900000000000        8.12700000000000
77
 energy: -118.891787386904 gnorm: 0.119723371634 xtb: 6.7.1 (edcfbbe)
Fe          23.27765106410346       -5.69411628710005       10.89781977996426
N           24.18945249263457       -5.52266809482633       12.79320299567072
N           22.12781563049137       -7.28392914343604       11.60119583998009
N           22.43957754152674       -5.91342489043012        9.08847030494126
N           24.48935853931050       -4.15609796463455       10.28368771908987
C           24.97877591798336       -4.48715926512093       13.23485001052822
C           25.02005826616993       -4.51330421838659       14.69078273892636
C           24.29704417481781       -5.59263437719478       15.09018119237064
C           23.79254756703130       -6.24027907791318       13.89326185238740
C           22.17525855716688       -7.82884849348227       12.85967162759900
C           21.18705154995209       -8.89083016151544       12.95862506411053
C           20.56081391861133       -8.97673584905097       11.75047119680110
C           21.16682715490716       -7.95940284975262       10.90267915560048
C           21.43629264784402       -6.78300899531992        8.74947655033073
C           21.10179579775274       -6.59534239554556        7.35516108739053
C           21.92349823691537       -5.63160939400574        6.85782950558293
C           22.75964526743502       -5.18237129499084        7.97147249582766
C           24.45146242236544       -3.64964224371165        9.00197702615857
C           25.28059142056931       -2.47209691581846        8.91299732266465
C           25.84617513473568       -2.29282202963853       10.21850135987174
C           25.32858473391641       -3.36744837583959       11.03976789242847
C           25.60029002123481       -3.56453576228642       12.39664271868081
H           26.35601855441590       -2.92732568139470       12.85020057675909
C           23.01415856695080       -7.39483697452951       13.87659424279786
H           23.04586045562510       -8.00787577654310       14.77396578182583
C           20.83314525639291       -7.71007219238942        9.58570889640382
H           20.02381409478802       -8.29809903884170        9.16731805791992
C           23.71719488597904       -4.17919561673625        7.94365930910080
H           23.91246060798039       -3.74053666537402        6.97562642350055
C           23.99665931599645       -6.04556377639151       16.50819001634117
H           24.14167564045196       -5.21918479821309       17.21237950402365
H           24.67055873502620       -6.86276271528553       16.79541006279154
H           22.96135393777133       -6.39380577409310       16.59309111828725
C           25.70940240402757       -3.50506500124935       15.59377859015844
H           26.06178365257788       -2.64442657221051       15.01709101780975
H           26.57123452534631       -3.96930473026678       16.09009350022357
H           25.01883626299751       -3.14111721035689       16.36461381162945
C           20.92540539636470       -9.72976610055644       14.19396902973697
H           19.95087616082523       -9.47491623801777       14.62902668427166
H           21.69166951431889       -9.55724255599956       14.95533622298325
H           20.91675688657697      -10.79379998095274       13.92715054800918
C           19.46803122186692       -9.90633795729661       11.31022973084633
H           19.32921315160900      -10.06400920958100       10.23982684655280
C           18.64980687273667      -10.55591077020414       12.13493002498914
H           18.72308191942097      -10.43658134066254       13.20680154896908
H           17.87019401899249      -11.21373438344342       11.75832095109117
C           20.03296173266442       -7.35139580193870        6.59668475910952
H           19.06897473258296       -6.83498737972030        6.68237713842783
H           19.92189210146308       -8.36481888975358        6.99371280078449
H           20.29919819084962       -7.41242011081938        5.53660332776819
C           21.85458888987291       -5.09745166153201        5.46083274884253
H           21.03923229227659       -5.43634559326338        4.81443069667486
C           22.71411774876440       -4.20926473077255        4.95718000742861
H           23.70933478434273       -4.10695739068821        5.36911126585948
H           22.44200498305338       -3.55896673116064        4.12974215144728
C           25.48272947050592       -1.61236650303121        7.66973015866527
H           24.52513945908528       -1.33907376268600        7.20315783169984
H           26.07440629971668       -2.14177981530404        6.90753724506459
H           26.00465323475602       -0.68306783508017        7.92256633933046
C           26.77433484945773       -1.18120574001068       10.66991323575776
H           26.20815091050698       -0.32032897177571       11.05474407299721
H           27.38770336567119       -0.83086905036596        9.83188657798413
H           27.44708089799910       -1.51494663621440       11.47171549354083
O           21.48261489579282       -4.09357423029149       11.38012629415288
O           21.04380755979729       -3.80011033674518       12.52965305500858
C           27.50411556535126       -9.14332833752521        8.69904936262817
H           27.42896239460573      -10.22568206919605        8.86098586794809
H           28.50449084906095       -8.81538233441098        9.00714618130987
H           27.37159713018517       -8.93868396039630        7.63295032482911
N           26.38981535428659       -8.52122589316381       10.85611044806146
H           27.01200927799682       -9.06037010772245       11.43243015744629
C           26.46044600249246       -8.42761933653400        9.48799975432067
C           25.36640087251900       -7.77466727774479       11.28145593176575
H           25.08084768272185       -7.67772202325790       12.31515088489546
N           24.77682045667816       -7.18401473943228       10.25947830598286
C           25.44282771861425       -7.59203359923049        9.12902849557395
H           25.14098019981415       -7.25556000964196        8.15247115076557
77
 energy: -118.936486972534 gnorm: 0.073400212438 xtb: 6.7.1 (edcfbbe)
Fe          23.17171593538135       -5.60975639411013       10.94184292252658
N           24.14493796223173       -5.49350366836015       12.79600013078477
N           22.11800507074849       -7.28337288139274       11.60137820695467
N           22.42262756492333       -5.89547381774692        9.08661254039976
N           24.47009563947470       -4.15400365174742       10.28531606184345
C           24.95304198788836       -4.48204774107540       13.22970482585190
C           25.03219571518775       -4.51448779249265       14.68660267265791
C           24.30462678455265       -5.60142442247330       15.09225796009853
C           23.78143034655367       -6.22124137614171       13.88873471156045
C           22.17458381846958       -7.83245037653757       12.84672427442422
C           21.19367333989882       -8.90042103950280       12.96128361509400
C           20.54983214792033       -8.98292587306026       11.74293438540438
C           21.16652495019572       -7.95800475609850       10.90566759917007
C           21.43363547140094       -6.76371580924406        8.74302304075321
C           21.10224897329422       -6.60166651924936        7.34334885150097
C           21.94774186133171       -5.63873129302400        6.83370145691387
C           22.76613373773100       -5.19134025922465        7.97073674655897
C           24.45654265482367       -3.64510873271122        9.02636934710959
C           25.30234103014114       -2.47044507152975        8.95023716169417
C           25.83709873027234       -2.30247910023692       10.18029128785544
C           25.31528395466199       -3.37082976788049       11.01685637498445
C           25.57799439780786       -3.56352947562121       12.38399781945803
H           26.32201902204759       -2.91913707355279       12.84082967897393
C           23.00430305711155       -7.38370542295046       13.87358013640633
H           23.01745789102522       -7.97534386837172       14.78223407608053
C           20.83480317270825       -7.70124508280204        9.58292025636509
H           20.03413950981774       -8.29297938143455        9.16370941884636
C           23.71893758917633       -4.17607234581376        7.96143264858031
H           23.90284227485339       -3.71158626343580        7.00979988614742
C           24.00625434153040       -6.04210341689707       16.48798568911798
H           24.14789109039805       -5.22573044392783       17.19128165422297
H           24.66552132865186       -6.85776653870934       16.78785870730387
H           22.97900802717389       -6.38781055354278       16.57885496804227
C           25.70725473333886       -3.51889717486927       15.57340066420926
H           26.05634258039203       -2.65737518783174       15.01466378313540
H           26.56156455038430       -3.96914486717390       16.08021832180480
H           25.02430069316382       -3.15951759899403       16.34309373568668
C           20.93634468230244       -9.71934972247673       14.18109599405787
H           19.97176695081362       -9.46694654346138       14.62152264718663
H           21.69237259532107       -9.55868032053040       14.94187114336595
H           20.91895316703096      -10.77871532244919       13.92660114342658
C           19.49079617430123       -9.88514299581663       11.32660546758845
H           19.36052552041545      -10.03165816512398       10.25903291029712
C           18.66351039788767      -10.54457512268594       12.13474495202122
H           18.70754672084211      -10.44149517859150       13.19952565131404
H           17.89312847589287      -11.19850675474336       11.75771769402277
C           20.04522683755512       -7.34718309616419        6.60348728868526
H           19.08484819268948       -6.83833287942318        6.68896758875371
H           19.92623373416885       -8.35431285090456        6.99017183110911
H           20.29610420333159       -7.41510311326818        5.54899055155806
C           21.87110518588807       -5.09397011031329        5.49715470265580
H           21.01346478310790       -5.39702752040604        4.89266469683284
C           22.71803238062898       -4.21778501206013        4.94895796673973
H           23.69534901588527       -4.06082914327855        5.35982918179071
H           22.46141937722997       -3.62311550346837        4.08549225638326
C           25.48342224086322       -1.63121821258566        7.70962995121535
H           24.53235712970523       -1.36245309620889        7.24410200300397
H           26.06659658875948       -2.15174196245828        6.94370241397918
H           26.00142742205363       -0.70282454871414        7.93799255281956
C           26.75507010246837       -1.20670079788522       10.65215562541109
H           26.19738249875768       -0.35076478903504       11.04084633719300
H           27.37448902527445       -0.84408166454258        9.83396889954616
H           27.42335377035293       -1.53330687331403       11.44968019568274
O           21.66768257209437       -4.26220634428406       11.35909149490958
O           21.10002809443271       -3.84690589566185       12.46379576966732
C           27.49415462104910       -9.13825102027283        8.70000758019081
H           27.42639484497637      -10.21353330206061        8.85853427891379
H           28.49064435197117       -8.81724238015171        9.00095941116097
H           27.36977946577022       -8.93639593158085        7.64290433143884
N           26.39293093177105       -8.52766550774166       10.85088034525784
H           27.01562270410488       -9.06929014082135       11.42909507453689
C           26.45562691285074       -8.42162167236322        9.48769715541492
C           25.36666037817316       -7.76767400756046       11.27901042660742
H           25.08510007504249       -7.68031112986869       12.30634771822511
N           24.76482140857025       -7.16272508119484       10.28085604402499
C           25.43118481713406       -7.57434536680177        9.15184371210949
H           25.13558971186720       -7.24663587995848        8.17497939237900
77
 energy: -118.964487325439 gnorm: 0.077474830049 xtb: 6.7.1 (edcfbbe)
Fe          23.06261535857708       -5.52271688339054       10.99605678293597
N           24.09180607725252       -5.45925141229967       12.80101200581000
N           22.10699670750456       -7.27422371539339       11.60465583160427
N           22.40140544542520       -5.87431570298173        9.09404624124531
N           24.44748515086604       -4.14639013555495       10.29458121346566
C           24.92493096958078       -4.47202239309199       13.22787053713516
C           25.03709983414565       -4.51771253452582       14.68069816867668
C           24.30939192470420       -5.60578651607318       15.08919044369334
C           23.76130235946556       -6.20387924595549       13.88763971217262
C           22.17275455056456       -7.82775354266428       12.84223165274442
C           21.20288571366178       -8.89938397910456       12.96182045725627
C           20.55142479492523       -8.97909124693755       11.74107276591621
C           21.16437686467836       -7.95048024384514       10.90672519801870
C           21.42842420064960       -6.75022574282122        8.74278378165421
C           21.11137487427375       -6.60765395546041        7.33921613911830
C           21.96641553304608       -5.64400305628223        6.82960226636381
C           22.76843757464617       -5.19434835080634        7.97734953139530
C           24.44686576173241       -3.64812987480541        9.03957874646310
C           25.30513052434017       -2.47866350410765        8.95785240096929
C           25.83966884180120       -2.31322576248103       10.17900955058196
C           25.30070994364683       -3.37419245982771       11.01862060853004
C           25.55549232096827       -3.55898620671446       12.38328338367864
H           26.29042983339661       -2.90751515211682       12.83903058634567
C           22.99054765236052       -7.36918243823953       13.87540877479913
H           22.98561903406651       -7.94236832465756       14.79436245910220
C           20.83314340629485       -7.69225760073856        9.58216367597914
H           20.04232523538841       -8.29140385395928        9.15873828547537
C           23.71399295203748       -4.17343305105279        7.97404611645389
H           23.88947483136353       -3.68415556643661        7.03490617896037
C           24.01514289497666       -6.04238638391481       16.47606196571643
H           24.15743224232958       -5.22679455006762       17.17631879098588
H           24.66667826588078       -6.85918970677121       16.78214921211589
H           22.98894950874493       -6.38425469688424       16.56664266349962
C           25.70950989123511       -3.52806345372798       15.55913086802692
H           26.05514552723129       -2.66410627697764       15.00704742603979
H           26.56053726195293       -3.97258515864772       16.07166479698808
H           25.02518340173955       -3.17432964578997       16.32729744883058
C           20.94736315315135       -9.71219656270030       14.17461753000454
H           19.98787395649476       -9.45497257382437       14.61853443927173
H           21.70283199245981       -9.55991060362122       14.93427877759592
H           20.92030873321498      -10.77022835024118       13.92365388441602
C           19.50607887760615       -9.87132803674066       11.33525199755990
H           19.38285665990537      -10.00552052665604       10.26767198006848
C           18.67440692452269      -10.53937455682309       12.13280899350088
H           18.69339317671420      -10.44242258285748       13.19748417574915
H           17.90900955011816      -11.18824866804511       11.74798792684551
C           20.05514104008624       -7.34658924441204        6.60680017327592
H           19.09652617568813       -6.83790332723578        6.69637123962931
H           19.93086863168248       -8.35219611466662        6.99016397887854
H           20.29596689378316       -7.41855284910110        5.55252667364321
C           21.87935248948094       -5.08146328451825        5.51996018734532
H           20.98417710615743       -5.35571370053943        4.95570723585661
C           22.72172967483379       -4.22364674474745        4.93418401612094
H           23.68787140499349       -4.01444605971958        5.34994007212254
H           22.47784099891056       -3.69073816328311        4.02490604947427
C           25.48334551505467       -1.64496988496841        7.72925369205839
H           24.53008208358887       -1.38174105933066        7.27586481382118
H           26.06353667608173       -2.16741738684353        6.96839577951191
H           26.00103639479033       -0.71915345265569        7.95485708384032
C           26.74863449256770       -1.22272328947286       10.64712676952182
H           26.18374156549027       -0.37481957268986       11.03320029595139
H           27.36588664707129       -0.85700212587011        9.83246613631797
H           27.41184990523286       -1.55299676634802       11.44034898577470
O           21.83574188166062       -4.40806994260618       11.27295120329612
O           21.28450237261317       -4.00939144750885       12.38019419671113
C           27.48076962469304       -9.12955448580866        8.70084297594331
H           27.41732798562122      -10.20355850468575        8.85788926867457
H           28.47832309821354       -8.81393621895872        8.99799853685819
H           27.36205418044553       -8.92984774631912        7.64561740300833
N           26.38922687881746       -8.52774895580295       10.85088501470465
H           27.01234936406064       -9.07455744537749       11.42588215340752
C           26.44485275522553       -8.41036838809446        9.48931118992791
C           25.36486977081343       -7.76017781460820       11.28474628540349
H           25.08699849291527       -7.68281422347978       12.31064787268728
N           24.75774152493354       -7.14240393015933       10.30169129485713
C           25.41918495440078       -7.55376662860495        9.17059088974434
H           25.12523913045031       -7.22906645496694        8.19452215787092
77
 energy: -118.971323294791 gnorm: 0.066190950729 xtb: 6.7.1 (edcfbbe)
Fe          23.09131645303950       -5.55718984475739       10.99643803998045
N           24.03770966326347       -5.42328415395321       12.80709731441263
N           22.09571109416996       -7.25317282698927       11.60876978241832
N           22.39185794454427       -5.86139568167839        9.10402384818990
N           24.42655590615017       -4.14552163975238       10.30795174831007
C           24.88963375816417       -4.45226271956856       13.22984885245286
C           25.03377814816282       -4.51855736520899       14.67598602490139
C           24.30898032566417       -5.60314479555793       15.08485952020237
C           23.72875891466036       -6.18106320874085       13.89046086003025
C           22.16383435166496       -7.80947334067849       12.84472749921985
C           21.21097712844059       -8.88892940778412       12.96019296668095
C           20.56028938813173       -8.96636211076305       11.74313005710701
C           21.15931382113788       -7.93457042944628       10.90773119774501
C           21.42400785572546       -6.74067975990567        8.74707844600550
C           21.12235000428543       -6.60556855413018        7.34215740127555
C           21.97346906450475       -5.63787527466868        6.84208280790530
C           22.76603611523387       -5.18775405945411        7.98922884835033
C           24.42841239267708       -3.65306521242345        9.05047103300010
C           25.29684556328068       -2.49360349134477        8.96139124240593
C           25.83882269515520       -2.32771568254110       10.19331773818626
C           25.27882428584874       -3.37488051491928       11.03319154113123
C           25.52627697000331       -3.54582971253835       12.39094155164814
H           26.25739890264988       -2.89031813189458       12.84250291299031
C           22.96730583285717       -7.34528046385278       13.88200314897926
H           22.94927457818750       -7.90625255988334       14.80785873234707
C           20.83019531017137       -7.68226245401573        9.58305747368683
H           20.04918915607754       -8.29066546354538        9.15350947047119
C           23.70346169174156       -4.16580748828258        7.98478943436376
H           23.87245033561541       -3.65536848328660        7.05432280536161
C           24.02540904639655       -6.04660492797213       16.47137767662693
H           24.17287649616213       -5.22676754942751       17.16741734316793
H           24.67490632979461       -6.86705596463844       16.77472498693292
H           22.99574801896804       -6.38281178675444       16.55802102456004
C           25.71679400801263       -3.53398687519536       15.55091443182663
H           26.05792797269050       -2.66844266043789       14.99551950722491
H           26.56841383980677       -3.98072707166237       16.06169419510129
H           25.02647722279308       -3.18624458507920       16.31779171013119
C           20.95992810892065       -9.70760329201989       14.17135565290063
H           20.00347493233920       -9.44071748959480       14.61920382592045
H           21.72333874682366       -9.56117756225380       14.92688616933503
H           20.92283815397479      -10.76573956484582       13.91651543316212
C           19.51581710001099       -9.86086739220904       11.33674393020196
H           19.40154799816622       -9.98408728872589       10.26723102323945
C           18.68093760882729      -10.53342148763093       12.12797233446859
H           18.68455068775241      -10.44128400341456       13.19638601499077
H           17.92259656374498      -11.18299188910655       11.73021460203240
C           20.06463215942986       -7.34639795901150        6.60837968537788
H           19.10647628499584       -6.83480670738659        6.70529088709065
H           19.93937679173524       -8.35335337486971        6.99347363139691
H           20.30004734441744       -7.41931492216088        5.55122548485575
C           21.88004380244626       -5.06326541546695        5.53336566792253
H           20.95447112372008       -5.31795748707724        5.00611479505520
C           22.72331694007516       -4.22858221358960        4.91567578193021
H           23.68469525580097       -3.97746026371487        5.33201919534166
H           22.48819350279360       -3.75852323021628        3.95921684477559
C           25.48326507772815       -1.65796469719638        7.74433408271809
H           24.52300638396346       -1.39883730606677        7.30549729023261
H           26.06247504601742       -2.18814505764375        6.98951563873803
H           26.00327535225248       -0.73469757533704        7.97853165051407
C           26.74564851851940       -1.23793171879721       10.64686498450347
H           26.16809426391269       -0.39694604582310       11.02927612687298
H           27.35775788109904       -0.87370802918463        9.82666428526876
H           27.40567981600837       -1.57580861300580       11.43812517477221
O           21.78348032307839       -4.35380028783587       11.17309164845292
O           21.44147861585917       -4.15871372875900       12.37580930447454
C           27.48172164297182       -9.12917939419848        8.69330379526501
H           27.41317223961103      -10.20371432818153        8.85197242252932
H           28.47921271447196       -8.81138409347564        8.99182559886086
H           27.35616456311988       -8.92387232123941        7.63829215808254
N           26.40183673782146       -8.54106737148283       10.85125285782975
H           27.02461215091975       -9.09058847321178       11.42169339543042