72
 energy: -105.980694742130 gnorm: 0.000097364768 xtb: 6.7.1 (edcfbbe)
Fe           6.05363202706304       24.72582722432901       -7.47694455300643
N            4.34436118466580       23.73007026518959       -7.24905018655042
N            5.66803608840998       24.96169000810304       -9.42581331943719
N            7.81517918553236       25.67875136129512       -7.71175471147669
N            6.49129967638047       24.41943021230191       -5.54506665009924
C            3.84107839254175       23.22387604730700       -6.09491994041819
C            2.56082482116163       22.59030809452109       -6.32846801794111
C            2.31125598946401       22.71516023868156       -7.65834842613061
C            3.43864871226945       23.43073950892238       -8.21641922021790
C            4.59731397726158       24.47439182476325      -10.10923715224608
C            4.67271990601325       24.83053251455487      -11.50296310098701
C            5.82332533881394       25.55750794685292      -11.65273611483011
C            6.43550336418422       25.61109782597297      -10.33944973727573
C            8.26985395947910       26.27931040988707       -8.84808752252486
C            9.54384304994137       26.90752565894212       -8.61881457452000
C            9.86205325041724       26.66633167135536       -7.30786729380798
C            8.75485838382422       25.91191644695739       -6.75848562721158
C            7.61601247855278       24.80809733768572       -4.88666195095526
C            7.54502367319095       24.43495542989210       -3.49132171618092
C            6.34009782642232       23.82881303564109       -3.31922252542518
C            5.69696585238644       23.82823719133120       -4.61400862524000
C            4.45502602110601       23.27648837386306       -4.85819555772903
H            3.93166980749395       22.83858199337749       -4.02267977078736
C            3.55021655162673       23.76222055143185       -9.55099213722179
H            2.75446969820216       23.44918032378911      -10.20881286892402
C            7.62707634549660       26.25711051686391      -10.07324011016762
H            8.11135202567061       26.76336382397066      -10.89345870040479
C            8.68243772703700       25.48488300070136       -5.44586343600491
H            9.51151208261606       25.72191219876738       -4.79803351425936
C            1.14222563983132       22.24092799668629       -8.45058649557650
H            0.64026480079645       23.07885537860550       -8.93517296874493
H            0.42316370663669       21.73367814934624       -7.81233665747107
H            1.46366391806369       21.54484595884585       -9.22538791040272
C            1.73912687671927       21.94212493287793       -5.26836541220780
H            1.49813088496126       22.65538970929930       -4.47990507049400
H            2.28224329674140       21.11102072709007       -4.81812539639272
H            0.80878957149256       21.55943055262965       -5.68045046544906
C            3.70158637027128       24.40648107056271      -12.54791095416051
H            2.82235123136560       25.05324149876129      -12.55024877980108
H            3.36891289573733       23.38503012471338      -12.37062645859796
H            4.16656680784899       24.45622832593639      -13.53026513858885
C            6.38583826834698       26.14321692649615      -12.84979531751413
H            7.46816277768722       26.14969574715911      -12.90498726428341
C            5.68603546636509       26.66398854849055      -13.85214962009972
H            4.61192848779777       26.72585373773025      -13.83013766721750
H            6.16954939385677       27.07229218215181      -14.72391047949728
C           10.29778847109904       27.70550107038810       -9.62364923574450
H            9.61769425869836       28.29485097250236      -10.23691147395276
H           10.87291424521003       27.05599971849663      -10.28578730468566
H           10.98759081300131       28.38023211117503       -9.12104278102453
C           11.02759275277173       27.08266591958662       -6.55901982642189
H           10.85593823402407       27.30821227153305       -5.51318593954068
C           12.25681733427677       27.19510175154949       -7.05073885827318
H           12.49275710032582       26.93963695210380       -8.06911720621904
H           13.07991836122523       27.52438843741848       -6.43878105176068
C            8.61763396624002       24.70714474303910       -2.49418090275128
H            8.77570412899097       25.78053416018760       -2.38767905865387
H            9.55902503194976       24.25601743212456       -2.80855685991417
H            8.35185060627699       24.30245717248937       -1.52091190383007
C            5.73881921348977       23.25378097265353       -2.08371107637492
H            6.41099376027163       23.36854063818166       -1.23713813237752
H            5.53105366780173       22.19175585403793       -2.21639245357698
H            4.80033381288474       23.75518611728122       -1.84721167007963
O            7.18365591355029       22.83436193669021       -7.90716973808666
H            7.98191528436142       23.19448196747311       -8.31044109742408
H            7.41892532655889       22.55410690635009       -7.01508556685348
C            3.38032400143802       26.82973556035247       -7.64103062221601
H            3.02832535652793       27.85626270228276       -7.67314284263482
H            2.76525655689094       26.24348333951008       -6.96631053292379
H            3.37617817009039       26.37859280218251       -8.62740820561934
S            5.07566954998339       26.79986620819810       -6.96015507121572
H            5.61813629034902       27.50848967756406       -7.95696146937953
