72
 energy: -105.924445405095 gnorm: 0.204855410862 xtb: 6.7.1 (edcfbbe)
Fe           6.03900000000000       24.84800000000000       -7.51100000000000
N            4.36500000000000       23.78900000000000       -7.28600000000000
N            5.82000000000000       24.79300000000000       -9.51100000000000
N            7.83600000000000       25.65400000000000       -7.77600000000000
N            6.52800000000000       24.43900000000000       -5.61200000000000
C            3.77600000000000       23.41000000000000       -6.10800000000000
C            2.44200000000000       22.85300000000000       -6.33600000000000
C            2.26400000000000       22.81400000000000       -7.68000000000000
C            3.44500000000000       23.41300000000000       -8.27600000000000
C            4.75600000000000       24.26100000000000      -10.21300000000000
C            4.82900000000000       24.57400000000000      -11.60200000000000
C            5.96600000000000       25.34700000000000      -11.74300000000000
C            6.55500000000000       25.45700000000000      -10.42700000000000
C            8.30200000000000       26.29000000000000       -8.90300000000000
C            9.49000000000000       27.04400000000000       -8.61400000000000
C            9.84700000000000       26.73999999999999       -7.32500000000000
C            8.80800000000000       25.91400000000000       -6.78800000000000
C            7.70000000000000       24.70700000000000       -4.97000000000000
C            7.64600000000000       24.26800000000000       -3.58700000000000
C            6.35900000000000       23.83100000000000       -3.37300000000000
C            5.70000000000000       23.92200000000000       -4.67700000000000
C            4.38200000000000       23.49700000000000       -4.86200000000000
H            3.80000000000000       23.22000000000000       -3.98300000000000
C            3.62900000000000       23.62400000000000       -9.61900000000000
H            2.84500000000000       23.27400000000000      -10.29000000000000
C            7.69300000000000       26.20100000000000      -10.13500000000000
H            8.14300000000000       26.76300000000000      -10.95300000000000
C            8.74400000000000       25.40800000000000       -5.52000000000000
H            9.61000000000000       25.57800000000000       -4.88100000000000
C            1.07700000000000       22.27200000000000       -8.43900000000000
H            0.51900000000000       23.11300000000000       -8.90400000000000
H            0.40000000000000       21.73300000000000       -7.74200000000000
H            1.42500000000000       21.58400000000000       -9.23900000000000
C            1.46400000000000       22.41700000000000       -5.26300000000000
H            1.61800000000000       23.03000000000000       -4.34900000000000
H            1.63400000000000       21.34800000000000       -5.01300000000000
H            0.42300000000000       22.56200000000000       -5.62300000000000
C            3.84400000000000       24.15600000000000      -12.65400000000000
H            3.05000000000000       24.92700000000000      -12.74600000000000
H            3.37600000000000       23.19000000000000      -12.36800000000000
H            4.36100000000000       24.05300000000000      -13.63200000000000
C            6.55400000000000       25.96100000000000      -12.93200000000000
H            7.60600000000000       26.27100000000000      -12.86700000000000
C            5.98300000000000       26.19100000000000      -14.07400000000000
H            4.93000000000000       25.91600000000000      -14.23700000000000
H            6.54400000000000       26.66400000000000      -14.89400000000000
C           10.23800000000000       27.90000000000000       -9.57800000000000
H            9.57600000000000       28.16600000000000      -10.43000000000000
H           11.11900000000000       27.34600000000000       -9.96600000000000
H           10.56800000000000       28.83299999999999       -9.07400000000000
C           11.00000000000000       27.27100000000000       -6.52500000000000
H           10.99000000000000       27.07000000000000       -5.44500000000000
C           12.04200000000000       27.95900000000000       -6.95300000000000
H           12.14500000000000       28.21200000000000       -8.01900000000000
H           12.82100000000000       28.28800000000000       -6.24900000000000
C            8.77800000000000       24.35600000000000       -2.60300000000000
H            8.95900000000000       25.42000000000000       -2.34000000000000
H            9.70100000000000       23.93500000000000       -3.05500000000000
H            8.51700000000000       23.79600000000000       -1.68000000000000
C            5.78000000000000       23.23500000000000       -2.08100000000000
H            6.31000000000000       23.66500000000000       -1.20400000000000
H            5.91800000000000       22.13300000000000       -2.08100000000000
H            4.70000000000000       23.48200000000000       -2.00500000000000
O            7.08200000000000       22.79400000000000       -7.79500000000000
H            7.19100000000000       22.68200000000000       -8.73900000000000
H            7.33400000000000       22.22000000000000       -7.16500000000000
C            3.47200000000000       26.93600000000000       -6.81400000000000
H            2.85400000000000       27.72400000000000       -7.29500000000000
H            3.41800000000000       27.08100000000000       -5.71400000000000
H            3.03200000000000       25.94900000000000       -7.07300000000000
S            5.18600000000000       27.01800000000000       -7.36900000000000
H            4.92900000000000       26.60000000000000       -8.60000000000000
72
 energy: -105.959888296280 gnorm: 0.075081385746 xtb: 6.7.1 (edcfbbe)
Fe           6.10369635529976       24.73946106682628       -7.51800260547748
N            4.34445283376430       23.79833361348160       -7.28205447104109
N            5.79115229454701       24.81087899001368       -9.51128388003564
N            7.85139959156311       25.66436788684176       -7.76147843691070
N            6.50758716367585       24.46723339078874       -5.58059612587358
C            3.76668265722550       23.42722203439560       -6.10371241520665
C            2.44652471823309       22.85848322590747       -6.33268231833422
C            2.27020365326326       22.82140780571669       -7.67931782093188
C            3.45070990429127       23.42199462527926       -8.27059499090744
C            4.73762108491708       24.27405597744241      -10.20582018258896
C            4.83496302750553       24.58005295441915      -11.60028664927781
C            5.97490325429257       25.34653607620323      -11.74604946828718
C            6.55008611696949       25.46648980078183      -10.42537085440714
C            8.29261174418519       26.30459313961632       -8.88689069998900
C            9.50299570784433       27.03631156517354       -8.61388362281501
C            9.84850466623475       26.75836825506948       -7.31439373938734
C            8.80488564390092       25.91424920137445       -6.79015489613475
C            7.68989611321980       24.71405361261671       -4.95511954014995
C            7.63537621917651       24.27103849983444       -3.57863394787553
C            6.36314995497758       23.81872924081186       -3.37012262508228
C            5.68414839317257       23.93056524095450       -4.65303487024179
C            4.37616889960579       23.50943303178315       -4.86148827348032
H            3.80629019546574       23.20461358894623       -3.99410423694480
C            3.64068190351462       23.62464555331963       -9.61777392489854
H            2.85926755948158       23.28003038094511      -10.28447760015231
C            7.68728476952798       26.20685144552948      -10.12732237904819
H            8.14433738578640       26.75094414834743      -10.94481118017963
C            8.74856587801050       25.40133264322047       -5.51398981807574
H            9.60590625790534       25.57972578562445       -4.87593761179408
C            1.09182656569055       22.28355738399483       -8.43598581965995
H            0.52738700601945       23.09951589256194       -8.90341516210200
H            0.41950931280592       21.74397483312893       -7.76185933376179
H            1.41791026628127       21.59702424514316       -9.22433941189763
C            1.48031894444995       22.42209554257075       -5.26904226223133
H            1.61348462925584       23.01834177497470       -4.36132428177917
H            1.63057623894504       21.36664328965255       -5.01437704149525
H            0.44987321951309       22.55451011361750       -5.61463182991128
C            3.85388592507494       24.15567050772919      -12.64461305880441
H            3.06297725392601       24.90955835914911      -12.74996667083489
H            3.38393372027024       23.20443215813625      -12.37667831811300
H            4.35091744854625       24.03941796572743      -13.61200802508841
C            6.56282572989726       25.95038746491198      -12.92661792311560
H            7.60397301713352       26.25861762541333      -12.84268205592334
C            5.97476733853811       26.18847660586236      -14.08872600713597
H            4.93527941996241       25.94247052012667      -14.25827585177262
H            6.52061365652794       26.65491604846455      -14.89954015837962
C           10.23123742312771       27.89604674500366       -9.58558608858067
H            9.58886086037073       28.16537386134472      -10.42862489253171
H           11.11086384223974       27.36614686992258       -9.97032889474967
H           10.55599425916026       28.82008497927875       -9.09698355268109
C           10.98294811451016       27.26601036178125       -6.52788611750336
H           10.95792538667658       27.05490123798378       -5.45989190631586
C           12.03653884443621       27.95238999406282       -6.95835154743570
H           12.17002805217228       28.20457978987510       -8.00040544149484
H           12.80416159491927       28.28365792406381       -6.26769435009608
C            8.76851335226041       24.35882311384626       -2.60791601117368
H            8.96080010725373       25.40460976461152       -2.33976439590073
H            9.68416305947239       23.94353363946408       -3.04244353760270
H            8.52939142818501       23.80587043038466       -1.69548349748610
C            5.78653359347147       23.24417867487385       -2.10108277566380
H            6.29942121361398       23.66123278357536       -1.22857161098046
H            5.91005670990103       22.15546201184344       -2.07486080170973
H            4.72174114578768       23.47714700654880       -2.01005630030268
O            7.07667907571140       22.79815588162819       -7.81677179370839
H            7.20626361875004       22.65349664344560       -8.75087849122545
H            7.35272295971657       22.18533981410759       -7.15989984820244
C            3.45066400301669       26.93125178685424       -6.81316382782311
H            2.86629608835321       27.72420044643788       -7.29257911831836
H            3.42461126514090       27.07416167000043       -5.72976594864547
H            3.02766115607273       25.95542860896787       -7.06313470937875
S            5.17644235304095       26.98363127381448       -7.36040626302594
H            4.90636685224354       26.65467157384913       -8.62299587992787
72
 energy: -105.967673918590 gnorm: 0.025618325094 xtb: 6.7.1 (edcfbbe)
Fe           6.11894229060158       24.71496129924919       -7.51124406436976
N            4.34399821083303       23.78935555947907       -7.27997478330502
N            5.78463329743716       24.80909910571625       -9.50498675526438
N            7.86661961425722       25.65389731093954       -7.75055998929002
N            6.49676676379908       24.47604143060582       -5.57147483139509
C            3.76589008895074       23.43627135520945       -6.10174440673014
C            2.45237430232212       22.86852031211014       -6.32982949168660
C            2.27919789987094       22.83171851686631       -7.67847423097549
C            3.46344985258432       23.42755104076898       -8.26226203109334
C            4.73109509754681       24.28277806097518      -10.19482704923880
C            4.83976083863075       24.58518908480301      -11.59472756986296
C            5.97941081498772       25.34559970687114      -11.74414715545248
C            6.55199551159300       25.46477220272212      -10.41862233975246
C            8.28983009352506       26.29825301835771       -8.87408735617428
C            9.50836791811219       27.02549689918251       -8.61567397278963
C            9.84810075985335       26.76595728881001       -7.30995166242554
C            8.79914486033272       25.90772022091328       -6.79310360685204
C            7.67933648302275       24.72237633635113       -4.94985883157871
C            7.62551061191780       24.28007093955700       -3.57496945416420
C            6.36286530401103       23.81711560701607       -3.36844240146752
C            5.67563483030377       23.93445505785171       -4.64019032268304
C            4.37374021260645       23.51914688106186       -4.86207231953692
H            3.81192840311684       23.18221092211566       -4.00448290228292
C            3.65236022361748       23.62933575673452       -9.61309563825137
H            2.87262464275007       23.28397074398735      -10.27539763863206
C            7.68530926831394       26.20228547805210      -10.11670214762625
H            8.14832834295648       26.73689821385514      -10.93128986851004
C            8.74752848689825       25.40030206293532       -5.50888265851454
H            9.59818211638672       25.58152778934201       -4.86915969276280
C            1.10909580007318       22.29744056730532       -8.43618942197989
H            0.54554797307274       23.10290204794230       -8.90669594984907
H            0.44047026173863       21.75872800477431       -7.77063275905258
H            1.43055264803224       21.61148758732651       -9.21689479251951
C            1.49564199357712       22.42838787839547       -5.27281661783620
H            1.61998769600851       23.01643794276775       -4.36814955616306
H            1.64294304619221       21.37904610113898       -5.01935722529828
H            0.47084692203727       22.55024326492756       -5.61556125075209
C            3.86523751732007       24.15115888939425      -12.63547208556044
H            3.07681121272140       24.89693086021915      -12.75254440819629
H            3.39630900065860       23.20807962936308      -12.36807685688271
H            4.35890392951482       24.02398831448579      -13.59441091394457
C            6.56308220129205       25.94153460748819      -12.92177388635049
H            7.60229748677907       26.23157694917144      -12.82868195057620
C            5.96565203920280       26.18852591223570      -14.08830506170520
H            4.93198728757819       25.96650133489863      -14.26713711314483
H            6.50719882054528       26.64056151122382      -14.89926597778116
C           10.21932356399994       27.89242477281317       -9.59458486159709
H            9.58287545173022       28.15344127645063      -10.43354736944547
H           11.10416727656388       27.38358569972418       -9.97856377115361
H           10.53601652158238       28.81526914681756       -9.11473615239933
C           10.96272928890688       27.25794113123936       -6.53194084724140
H           10.91547526383872       27.04413801071436       -5.47109124971927
C           12.02605343299962       27.93900998320680       -6.95986994828529
H           12.19348411140972       28.18547225079937       -7.98934013296156
H           12.78549648055564       28.26808547558153       -6.27223919234525
C            8.75927100311789       24.36366065484082       -2.61092520778893
H            8.95866876128110       25.40087098207800       -2.34284644008282
H            9.66768096851811       23.94867583704416       -3.04267117578336
H            8.53170049566968       23.81346902920637       -1.70308029701685
C            5.78994978755971       23.25359579266762       -2.11377904359144
H            6.29921366883134       23.66219541765458       -1.24444445322221
H            5.90293827040075       22.16954997766182       -2.09590379388427
H            4.73213005363280       23.48274644595705       -2.02354735685174
O            7.05549103990252       22.80377417755437       -7.84297211718758
H            7.23613645853206       22.60784526158152       -8.76474229111999
H            7.36497275894127       22.18804077019443       -7.17762661903921
C            3.42692222794372       26.92258054474757       -6.80662521238730
H            2.87226759497938       27.72240037133264       -7.28862641411642
H            3.42169763801191       27.06588240874389       -5.73253209122660
H            3.00983771615690       25.95455284395274       -7.05398650106422
S            5.16319949324979       26.98378964672521       -7.34650792006423
H            4.89380769420039       26.74259248521263       -8.64006854016349
72
 energy: -105.970248235726 gnorm: 0.022736626756 xtb: 6.7.1 (edcfbbe)
Fe           6.12266989498108       24.70782617201801       -7.50976359165213
N            4.34466547801260       23.79437073184633       -7.27665273240179
N            5.78146472814251       24.81693906945718       -9.50024219529702
N            7.87260994792421       25.64667881014219       -7.74749148465038
N            6.49350053089582       24.48138190943511       -5.57220137388406
C            3.76730627165485       23.44260699327085       -6.09919680391697
C            2.45554700587957       22.87835959541947       -6.32749691175510
C            2.28453543858935       22.84217447629951       -7.67701871990164
C            3.47126463908161       23.43384046043122       -8.25549166468093
C            4.72914881836463       24.29107970193708      -10.18776445242668
C            4.83909466963627       24.59031701610382      -11.59040236991446
C            5.97787098116415       25.34640805964357      -11.74228190482546
C            6.55163970152233       25.46730668895484      -10.41498318705914
C            8.29094867901344       26.28855997886409       -8.87207079277245
C            9.50848704820936       27.01771802153240       -8.61966610152723
C            9.84774648232173       26.76519578829355       -7.31200733884062
C            8.79588007336391       25.90418503388129       -6.79408340444557
C            7.67350554552693       24.73302787524232       -4.94900410075162
C            7.62078346764675       24.29271098734237       -3.57352349041234
C            6.36154439728542       23.82317473029284       -3.36799226673464
C            5.67384180486853       23.93824280457247       -4.63623234072291
C            4.37569050277896       23.51976805104717       -4.86091765415974
H            3.81683401848992       23.16277135797855       -4.00891943354427
C            3.65724071661245       23.63231193752761       -9.60909920734368
H            2.87661322953857       23.28387185993460      -10.26750259817057
C            7.68700114309313       26.19635303995931      -10.11431930366835
H            8.15691417465728       26.72492425518594      -10.92759027840014
C            8.74616114123732       25.40515776320801       -5.50484818491684
H            9.59250218583060       25.58735736169724       -4.86131786172829
C            1.12068653539709       22.30983282335204       -8.44036381669554
H            0.56173485256792       23.11566139998041       -8.91553670840181
H            0.44982935526482       21.77173090359396       -7.77676318916484
H            1.44939467585389       21.62365524838259       -9.21817625621073
C            1.50439521240361       22.43166855880532       -5.27168542684313
H            1.62548360417851       23.01989572347732       -4.36654909935433
H            1.66199384704167       21.38292896924241       -5.02045515877453
H            0.47889619547077       22.54476623633121       -5.61562118565412
C            3.87294900637787       24.14207123463218      -12.63073415343831
H            3.08466293689120       24.88546155614637      -12.76246754655867
H            3.40535652702543       23.20143150902714      -12.35195840378601
H            4.37612776110643       24.00358768976585      -13.58368115624476
C            6.56314534970214       25.92994035720256      -12.92323954625521
H            7.60708363187756       26.20043063752980      -12.82908725834179
C            5.96203879285172       26.18414372987349      -14.08628117703778
H            4.91893986412261       25.99732737558648      -14.26196367905936
H            6.50558085180255       26.62818220939725      -14.90124918610572
C           10.20827555911271       27.88996076616791       -9.60253531260629
H            9.56673598017649       28.13839538305102      -10.44187055751143
H           11.10079515856603       27.39416843830598       -9.98715085398019
H           10.51317349871890       28.81839236052713       -9.12478729782630
C           10.95302909959021       27.25119484481884       -6.53090925498945
H           10.88483651093209       27.04595143659076       -5.46992097693233
C           12.02576425055119       27.92032611656578       -6.95476383437878
H           12.21629310782764       28.15576957963063       -7.98394558776780
H           12.77750448864590       28.25164217277008       -6.25976601883646
C            8.75547376059581       24.37194382879090       -2.61150719007657
H            8.95945444206656       25.40825194104713       -2.34368973266678
H            9.65973389586299       23.95285652171686       -3.04837262739722
H            8.52877941475936       23.82062680481707       -1.70386287488511
C            5.78628760703808       23.25822265411317       -2.11761471977646
H            6.29790866286195       23.66193889940129       -1.24810876427041
H            5.89160480041255       22.17262827997923       -2.10092204753167
H            4.72940984682758       23.49364342107361       -2.03006092161975
O            7.01511062012977       22.76918789158609       -7.86894601325391
H            7.29231069364697       22.56500138020946       -8.77464801790707
H            7.40516839690701       22.18610512593445       -7.20227149106248
C            3.40847282739985       26.91673339507754       -6.79850722819628
H            2.86455121235063       27.72492678575583       -7.27536766480367
H            3.41254243295116       27.05163315667449       -5.72372909431771
H            2.98784364082858       25.95257710722456       -7.05251076888013
S            5.15075988730332       26.98420533370561       -7.33778717253151
H            4.87386848767742       26.84837968061967       -8.65954927756239
72
 energy: -105.970868654369 gnorm: 0.048736630435 xtb: 6.7.1 (edcfbbe)
Fe           6.11636202205356       24.71235064068010       -7.51143354652793
N            4.34400488711913       23.80819034585346       -7.27257016108018
N            5.77522189214915       24.83211047577836       -9.49470427579963
N            7.87558824003952       25.63634270655815       -7.74859322699685
N            6.49062761954247       24.48438216843432       -5.57776147184760
C            3.76805244935585       23.45072392321147       -6.09635140209546
C            2.45770571013236       22.88838939035398       -6.32540219209739
C            2.28812454148884       22.85483514050823       -7.67533653257602
C            3.47513936768281       23.44678341464251       -8.24875724882185
C            4.72533743025174       24.30340355594459      -10.18058227469401
C            4.83616704465775       24.59662631477979      -11.58593628391614
C            5.97386221059489       25.34886837923117      -11.73995154724201
C            6.54863680085629       25.47269328154518      -10.41170135575357
C            8.29308430747522       26.27702996359942       -8.87366212644604
C            9.50897307808444       27.00747768101654       -8.62451800974581
C            9.84755752521136       26.76007111624889       -7.31585407646590
C            8.79375647975581       25.89862227801903       -6.79564903058931
C            7.66773019814211       24.74263961923912       -4.95095074133354
C            7.61637866971772       24.30629628769540       -3.57372114285456
C            6.35983713652708       23.82995985074044       -3.36932904000954
C            5.67329371329106       23.94019250250020       -4.63590588116399
C            4.37831135714319       23.51709303022542       -4.85937907838203
H            3.82246151713457       23.14266978350908       -4.01260733409034
C            3.65676724324911       23.64114417058797       -9.60467182269608
H            2.87690659258254       23.28496574238213      -10.25920415380417
C            7.68945803832673       26.19005505742716      -10.11524930242488
H            8.16811232501883       26.71074620609984      -10.92838337642101
C            8.74448392328553       25.40996852732561       -5.50192501908083
H            9.58546133939671       25.59476755177376       -4.85281817477655
C            1.13076710548441       22.32514746170177       -8.44750473880656
H            0.57850101225586       23.13282147648998       -8.92913960126393
H            0.45343971376489       21.78785094384941       -7.78886065572558
H            1.46901191803979       21.63872831427351       -9.22242683306937
C            1.51268397257887       22.43292429619149       -5.26864122571367
H            1.62857053536092       23.02380827290879       -4.36329405520480
H            1.68621485540037       21.38548721737016       -5.01750083715030
H            0.48487202966985       22.53291685193946       -5.61217697706472
C            3.88150109011213       24.13014615769944      -12.62770697655228
H            3.09200467360726       24.86908470679463      -12.78108907522849
H            3.41485815935427       23.19199331454423      -12.33543508310559
H            4.39837432912455       23.97819725334403      -13.57296462963497
C            6.56197665703709       25.91956726991699      -12.92591713085945
H            7.61699912010144       26.15398276341245      -12.83937711203484
C            5.95404070320875       26.18840670549991      -14.08020635985334
H            4.90328330801820       26.03055899999467      -14.25022442885013
H            6.50357741144249       26.60868739429755      -14.90699480531790
C           10.19858439967769       27.88654079218182       -9.60882027272266
H            9.55103396869250       28.12348175209392      -10.44874980126852
H           11.09862815374930       27.40503256221655       -9.99613494305324
H           10.49061709979465       28.82091005005071       -9.13185899206811
C           10.94469652637907       27.24635780738863       -6.52710220312135
H           10.85392804674240       27.05684083715662       -5.46427387340610
C           12.02933483877322       27.89658364938232       -6.94817157401777
H           12.23977488023837       28.11384982019895       -7.97932399526564
H           12.77537177937877       28.22860804944990       -6.24540028892701
C            8.75231402827191       24.38356699962219       -2.61304358473890
H            8.96221717664928       25.41947047577544       -2.34544069118986
H            9.65350108236925       23.95891591729275       -3.05343203671339
H            8.52478864475603       23.83237415853571       -1.70445922381550
C            5.78038319590284       23.26395724306040       -2.12035641115732
H            6.29628290080984       23.65946546260244       -1.24890195942238
H            5.87506714919310       22.17626882395063       -2.10788333623183
H            4.72467319854891       23.50996243244274       -2.03417140625204
O            6.94830356019043       22.71425934491634       -7.89539076552006
H            7.36530047642993       22.54927102869578       -8.77580127386546
H            7.48099509124071       22.18739522986249       -7.24230364510756
C            3.39132620999480       26.91343309745229       -6.78819332810304
H            2.84742320104169       27.72547238212693       -7.25615205142326
H            3.40111734898130       27.03723654373314       -5.71127905924448
H            2.96971407635010       25.95030232266306       -7.04920503668034
S            5.13760358570555       26.99846313602580       -7.32988422884269
H            4.86593912531082       26.91427157498336       -8.65089566267195
72
 energy: -105.972046047736 gnorm: 0.021068972103 xtb: 6.7.1 (edcfbbe)
Fe           6.11097061285391       24.71617815956795       -7.51467276549313
N            4.34578603741558       23.81855007344825       -7.27024563103944
N            5.77295627542596       24.84197513816066       -9.49172637321441
N            7.87529169027368       25.63036939948172       -7.75189062678722
N            6.49107200158653       24.48374448261789       -5.58288186086571
C            3.76990920347777       23.45408592174094       -6.09491735500511
C            2.45947618581933       22.89209765483171       -6.32479636026842
C            2.29003347577097       22.86126025237525       -7.67444678931988
C            3.47605941131805       23.45557875426033       -8.24576166206788
C            4.72430710105127       24.31020340543354      -10.17741845594539
C            4.83404418357149       24.59909728688617      -11.58366326191276
C            5.97098775040803       25.34999151021422      -11.73846149951473
C            6.54625972948481       25.47673195399501      -10.41043460987144
C            8.29543000234436       26.27088065115685       -8.87723787205882
C            9.50854142762185       27.00314355309665       -8.62715966580610
C            9.84690803812651       26.75625585224778       -7.31884158563625
C            8.79360947154760       25.89688712833086       -6.79571190396373
C            7.66560089986475       24.74840307221011       -4.95257956226136
C            7.61487067915549       24.31526573779778       -3.57369652212330