78
 energy: -116.057558473690 gnorm: 0.000182476611 xtb: 6.7.1 (edcfbbe)
Fe          14.68020490725435       54.38072641774842       19.19351675969780
N           13.27175863183231       55.70939807105808       18.63514821154017
N           14.25937323445747       53.26639190086665       17.59460999331754
N           16.14191910828692       53.13247901148419       19.70377716248010
N           15.09856182008443       55.52571235056733       20.79240125379131
C           12.88480302919024       56.82726212271772       19.30734640159608
C           11.83294922042862       57.51416628030789       18.59288532934106
C           11.58909270022551       56.78198996174445       17.47203849185328
C           12.48925788087329       55.65255329551761       17.52120025430385
C           13.33438120254131       53.52702438939463       16.63196214615044
C           13.28204682820502       52.45692399560563       15.67025467259494
C           14.17895745578565       51.51373102757354       16.09321471117587
C           14.79978786387642       52.06067397881296       17.28468005883082
C           16.51015803883541       52.00325286411429       19.04156857321955
C           17.64670440660499       51.38302300407138       19.67585038675202
C           17.95549634769475       52.16251878625059       20.75816336229561
C           16.99856993408792       53.25371325207979       20.74853930042050
C           16.04087616979038       55.28175977310288       21.74276053077652
C           15.98535163990396       56.28089433556416       22.78562601381300
C           14.98255761908609       57.13457454942674       22.44379738206542
C           14.44083176541977       56.64664950789176       21.19564432248903
C           13.41399548411365       57.26517047612920       20.50749372822635
H           12.99268087615381       58.15961883508629       20.93983207419826
C           12.52062899307199       54.64677596553803       16.57529420858235
H           11.84279656423486       54.72734144375880       15.73904283629893
C           15.87606259371912       51.48345881355949       17.92842304547406
H           16.26440001976476       50.56634512435979       17.51408874112651
C           16.94580478328784       54.23705957636290       21.71984868181982
H           17.65727849461457       54.18060131939295       22.52956559539893
C           10.60876958902110       57.02843250100261       16.37666606869527
H           10.06235574735011       57.95276223630029       16.54713697014828
H            9.88889511867358       56.21173967591965       16.31339708798356
H           11.11830265521750       57.10326894024248       15.41576702163737
C           11.18965074160586       58.77721325571249       19.05330086049599
H           11.93024141108662       59.57096425784317       19.15467138046805
H           10.71483029311643       58.63326579438679       20.02415826836523
H           10.43116276577771       59.10531185861522       18.34677330073258
C           12.36916850692188       52.40732172780913       14.49364941131634
H           12.50457102081677       53.28828082633699       13.86576040223696
H           11.32661279986030       52.37916166909311       14.81367625282426
H           12.56418993013668       51.52071110543901       13.89575881647871
C           14.44595983656933       50.23061400493940       15.47732120732937
H           14.41650757244238       50.22144518701773       14.39290025089699
C           14.67342126909448       49.09343798590074       16.12508100905659
H           14.66051186316350       49.03610407260913       17.20034664013578
H           14.85826274347394       48.17186583799338       15.59817931916964
C           18.35252735872177       50.17299012087605       19.17246961397567
H           18.39117431490332       50.17613535163732       18.08442983049206
H           17.84020746674328       49.26295369250315       19.48949001053577
H           19.36965445637856       50.14641534397258       19.55826864378242
C           19.01862532769937       52.00863100532510       21.72616404202634
H           19.43528566289443       52.93125745620598       22.11378072558040
C           19.50159874074845       50.85082946994937       22.16565057034242
H           19.09635889453093       49.90484248842821       21.85173915106763
H           20.30842227046428       50.81126887021234       22.87872797080333
C           16.88550652226374       56.30716035459423       23.97297187348472
H           17.92620756189183       56.40652861144743       23.66305159984815
H           16.79118784515724       55.38473033207408       24.54633716159215
H           16.64209731534526       57.14243247402861       24.62502525145250
C           14.48963602125935       58.34642687766166       23.15765995166622
H           14.60461232611399       59.23360521329389       22.53407331175915
H           15.04286474503420       58.50369261554521       24.08027060046942
H           13.43284989149757       58.24201997805941       23.40430285533415
O           16.14983630967123       55.69386074267611       18.01925393297999
H           16.48888665251291       56.23980802236688       18.73706733172362
H           15.52322965515466       56.23312595934906       17.52456694795627
C           12.02523308551026       51.50914075375174       23.16209022097062
H           11.76626164568022       50.47111327998032       22.95369097561288
H           11.17401674549733       51.98071067712102       23.65298699432435
H           12.87233451484118       51.52665642077054       23.84046171057225
N           11.49184190067987       52.37814294270440       20.87481555417873
H           10.54690885020323       52.03148759145834       20.85246088365296
C           12.37631956504416       52.22655572044487       21.91044055759895
C           12.11972394970505       53.07065400189767       19.89787704925019
H           11.66759364507082       53.33708755040769       18.96486328718765
N           13.34679283337053       53.36638452180259       20.25194760121093
C           13.52135205460221       52.84784816737096       21.50140020886289
H           14.45215039306255       52.95581202483257       22.01854508210112
