72
 energy: -105.820703556428 gnorm: 0.218263116321 xtb: 6.7.1 (edcfbbe)
Fe          45.80900000000000       19.77800000000000       98.16099999999999
N           44.68000000000000       21.09100000000000       97.22600000000000
N           46.77699999999999       19.35500000000000       96.49200000000000
N           46.91000000000000       18.42100000000000       99.09799999999998
N           44.97000000000000       20.26400000000000       99.88599999999998
C           43.67800000000000       21.92299999999999       97.75099999999999
C           43.10200000000000       22.75100000000000       96.71399999999998
C           43.70900000000000       22.42100000000000       95.56300000000000
C           44.70300000000000       21.41500000000000       95.87099999999998
C           46.56600000000000       19.90400000000000       95.25400000000000
C           47.54800000000000       19.39600000000000       94.28600000000000
C           48.34099999999999       18.50400000000000       94.92999999999999
C           47.83600000000000       18.47700000000000       96.28199999999998
C           47.89800000000000       17.60600000000000       98.57200000000000
C           48.47800000000000       16.73000000000000       99.56799999999998
C           47.81099999999999       16.97700000000000      100.73199999999999
C           46.87199999999999       18.05900000000000      100.42700000000001
C           45.24700000000000       19.76100000000000      101.12600000000000
C           44.52099999999999       20.44700000000000      102.16400000000000
C           43.76600000000000       21.39600000000000      101.55500000000001
C           44.01400000000000       21.25500000000000      100.13199999999999
C           43.35600000000000       21.98600000000000       99.12400000000000
H           42.54200000000000       22.64600000000000       99.42500000000000
C           45.58700000000000       20.86200000000000       94.97100000000000
H           45.51700000000000       21.20400000000000       93.93800000000000
C           48.35699999999999       17.66400000000000       97.26600000000001
H           49.19300000000000       17.01800000000000       96.99599999999998
C           46.11100000000000       18.72400000000000      101.36700000000000
H           46.20600000000000       18.39300000000000      102.40100000000000
C           43.38900000000000       22.94300000000000       94.17599999999999
H           44.21400000000000       23.60100000000000       93.82800000000000
H           42.44700000000000       23.53100000000000       94.20399999999999
H           43.28500000000000       22.09200000000000       93.47000000000000
C           42.02100000000000       23.79300000000000       96.92100000000001
H           42.10599999999999       24.21800000000000       97.94399999999999
H           41.02100000000000       23.32300000000000       96.80799999999999
H           42.14200000000000       24.61200000000000       96.17999999999999
C           47.68599999999999       19.86800000000000       92.84800000000000
H           48.52800000000000       20.58900000000000       92.77400000000000
H           46.75000000000000       20.37300000000000       92.52700000000000
H           47.89500000000000       19.00000000000000       92.18700000000000
C           49.38900000000000       17.69700000000000       94.43299999999999
H           49.59799999999999       16.77200000000000       94.98600000000000
C           50.17499999999999       17.89600000000000       93.37400000000000
H           50.05199999999999       18.79200000000000       92.74800000000000
H           50.95600000000000       17.16600000000000       93.11299999999999
C           49.68700000000000       15.77900000000000       99.38099999999999
H           50.62500000000000       16.31800000000000       99.63299999999998
H           49.73799999999999       15.44100000000000       98.32400000000000
H           49.58299999999999       14.90300000000000      100.05600000000000
C           48.09800000000000       16.31600000000000      101.94699999999999
H           49.15300000000000       16.10100000000000      102.16799999999999
C           47.23299999999999       15.91800000000000      102.86700000000000
H           46.15500000000000       16.09100000000000      102.73199999999999
H           47.58100000000000       15.41000000000000      103.77800000000001
C           44.58000000000000       20.12400000000000      103.66400000000000
H           45.64100000000000       20.06300000000000      103.98899999999999
H           44.08700000000000       19.14700000000000      103.85700000000000
H           44.07200000000000       20.92600000000000      104.24099999999999
C           42.69000000000000       22.27100000000000      102.20999999999999
H           43.03299999999999       22.58800000000000      103.21800000000000
H           41.74799999999999       21.69200000000000      102.31500000000000
H           42.51200000000000       23.17500000000000      101.58900000000000
O           44.18700000000000       17.96800000000000       97.66400000000000
H           44.62100000000000       17.15000000000000       97.90799999999999
H           43.36800000000000       18.04900000000000       97.32800000000000
C           47.13699999999999       22.86500000000000       98.12899999999999
H           48.05200000000000       23.49500000000000       98.10899999999999
H           46.44599999999999       23.28800000000000       98.88900000000000
H           46.65700000000000       22.92500000000000       97.12899999999999
S           47.53400000000000       21.13400000000000       98.53399999999999
H           48.14200000000000       20.88300000000000       97.38400000000000
72
 energy: -105.867438693040 gnorm: 0.086749877261 xtb: 6.7.1 (edcfbbe)
Fe          45.79128615347754       19.75914453650051       98.16185744703839
N           44.65889116736372       21.10338583231971       97.21958054713173
N           46.76300032725999       19.31909943088376       96.45168813595484
N           46.91403404572127       18.37215495892133       99.10764731853254
N           44.94293553000182       20.27009106106744       99.90353189806102
C           43.68408110682078       21.92594580744072       97.76114099845310
C           43.09788378069850       22.74480428364322       96.72939857774173
C           43.70826812732171       22.41102947590981       95.55906546818419
C           44.69494050785590       21.40684953630560       95.86924704153944
C           46.56725508647637       19.90664738858231       95.23242652373366
C           47.53613630831904       19.42029006533451       94.27491381979948
C           48.32940004392886       18.50661443720793       94.92863745987023
C           47.82929069277735       18.46083772410166       96.27799807050813
C           47.91718122329020       17.59691080509754       98.57312604600899
C           48.49583294069786       16.73735272532923       99.56070740609252
C           47.81966493241872       16.98677800392476      100.73259465076399
C           46.86547910323758       18.03717214649334      100.43475871341155
C           45.24368653809506       19.76242422829117      101.13611299846119
C           44.51192019115932       20.44372065718507      102.16907033235208
C           43.73769068587845       21.38237830862005      101.54560958617026
C           44.00090602751747       21.25886614561394      100.12986267229702
C           43.36756542755192       21.98423376017915       99.12189424934439
H           42.56035331115175       22.64285374790288       99.41879131164455
C           45.58403305181296       20.86120498176071       94.96254417259645
H           45.51597568109349       21.21138439492973       93.94066702643153
C           48.36132219054972       17.65773152623850       97.26320004470666
H           49.19166528990333       17.02019290739434       96.99464845905337
C           46.10962327552865       18.71030376674148      101.37800941746080
H           46.21405478174208       18.39118983139546      102.40627170550034
C           43.40032659436321       22.93798522697196       94.18612636205290
H           44.20557744171349       23.59061238399045       93.82756394156266
H           42.47006269339730       23.51450279751735       94.20190031857990
H           43.28695982286257       22.10939084178110       93.47929298071172
C           42.02953029066864       23.78171981278062       96.92929370316493
H           42.10009811058748       24.21536617593551       97.93089888586310
H           41.03530456273926       23.33438790427714       96.81299768638755
H           42.13744722577709       24.59012244117372       96.19762307601530
C           47.67393285133492       19.87259941713269       92.85310676568021
H           48.50763258356111       20.58123302448432       92.77015862879419
H           46.76086289056568       20.36817229599695       92.51653441277912
H           47.88293785755759       19.01757929290632       92.20034725372274
C           49.39237637064817       17.68863730916023       94.43259899717363
H           49.59554967668330       16.77719920435764       94.99445349513265
C           50.17182481076320       17.89645799371933       93.36994715367285
H           50.07029809325081       18.78041795062755       92.75420367679995
H           50.94389200745965       17.18408390225358       93.10579720860204
C           49.66645619058150       15.79315192386131       99.37629592373351
H           50.60033138408981       16.31240992073570       99.62532543675145
H           49.73376541461538       15.44281012677596       98.34285632296269
H           49.57371236110708       14.92587495803143      100.03801447063600
C           48.10297453840042       16.32949055563333      101.97040057593702
H           49.15164650105813       16.09665669807019      102.15892710272701
C           47.22553140463989       15.92611213117644      102.88305417177344
H           46.16145917849328       16.07860696326905      102.74433216197008
H           47.55643055798927       15.41208110447134      103.77647383889041
C           44.58468639375190       20.12818220804472      103.64396468047563
H           45.62544498142005       20.06441885628405      103.98062558224277
H           44.09786651416970       19.16797733317157      103.85114067139125
H           44.08032449631939       20.90635268815815      104.22442043474581
C           42.70326053624679       22.26805789540084      102.19541582870893
H           43.03116862328817       22.58201682233705      103.19261192184872
H           41.76690813936186       21.70889030485007      102.30805089240096
H           42.51286184206121       23.16285868352951      101.59691783794801
O           44.20943392788314       17.96919491978170       97.67373082976097
H           44.60630471983517       17.13287839823539       97.90396443258759
H           43.34167938179634       18.03475986685040       97.31917203819901
C           47.14568265719194       22.90331801045391       98.11899627325685
H           48.05005340475913       23.51395921053207       98.10367586143124
H           46.45654208942095       23.27744937537587       98.88138118813389
H           46.65595374003139       22.91855516004652       97.14013074868291
S           47.63722858908196       21.21856426531163       98.58622147540028
H           48.16232101882120       20.90731116922940       97.39805265186376
72
 energy: -105.882878252564 gnorm: 0.030620340196 xtb: 6.7.1 (edcfbbe)
Fe          45.77634582630537       19.74503893546764       98.16521551494294
N           44.65149261254049       21.12056283389387       97.21592353108504
N           46.76705015773548       19.30796988616085       96.42254661436944
N           46.92316404543730       18.33679961787161       99.12107128574524
N           44.92409612637093       20.27160826393281       99.92114940066791
C           43.69179653164084       21.92713490978909       97.76499121419251
C           43.09649292145566       22.74097007073771       96.73969452070457
C           43.70551648789393       22.40223597711550       95.55794686908399
C           44.68741970169374       21.40048738093627       95.86994365562569
C           46.57035817897192       19.90981480415405       95.21247643020524
C           47.52823719138063       19.44077387522474       94.26342398029291
C           48.31782722369536       18.50772733409830       94.92156708458842
C           47.81630152360093       18.44475959866078       96.26724377562246
C           47.92862670816416       17.58605881880523       98.57730022397085
C           48.51272303855455       16.74340978602566       99.56248853371922
C           47.82780363826116       16.99021375246478      100.73945887774586
C           46.86257535129198       18.01599602968051      100.44388949605290
C           45.23806533214299       19.75471510733073      101.14575530236513
C           44.50363369036708       20.43727147757986      102.17255946895196
C           43.71492399280879       21.36653795312248      101.53903944039837
C           43.98639642888044       21.24836121016271      100.13081996665349
C           43.37662462942914       21.97891116257905       99.11883909764759
H           42.58283761115582       22.64938638531124       99.41262484749815
C           45.57746223115030       20.85949190934225       94.95585013701294
H           45.50973711209449       21.22271707530269       93.94286449150442
C           48.35503033523313       17.64650038491408       97.25769314461152
H           49.18979819442533       17.02148994945756       96.99198828130130
C           46.10436876075242       18.69408656173700      101.38800134394558
H           46.22164135430167       18.38843980631907      102.41443356042078
C           43.40784777298593       22.93178215105025       94.19511944596042
H           44.20791714932314       23.57886107216209       93.83635228385923
H           42.48514432391762       23.50490390360611       94.20530803190827
H           43.29216197317834       22.11440723479799       93.48652512304217
C           42.03526848094447       23.77140581812928       96.93708992685877
H           42.09895785735383       24.20941834252907       97.92833140596979
H           41.04374716499056       23.33404903732870       96.82018654134575
H           42.13890706653339       24.57083540957734       96.20678516895444
C           47.66263664583072       19.87962640464281       92.85130239508661
H           48.49120191337790       20.58301687704986       92.75795038814420
H           46.75986868232751       20.36816180485607       92.50322368267489
H           47.87108255881243       19.02633035162060       92.20919817233039
C           49.39171939747616       17.68464281660442       94.42857550904623
H           49.58591543265952       16.78448577620059       95.00040343112880
C           50.16822256134403       17.90247480366603       93.36625138261807
H           50.08301955756411       18.77841359494426       92.75391830718681
H           50.93473601702984       17.19885333091105       93.09658660251428
C           49.65376216279499       15.80537534803117       99.37595339251462
H           50.59008070973088       16.31054675965418       99.61927403996637
H           49.72034594553498       15.44933873580397       98.35280319276541
H           49.55736313720852       14.94353602102157      100.03136587365876
C           48.10460340965119       16.32909943712935      101.99003846575025
H           49.15063200800250       16.09918035036370      102.16015416059777
C           47.21504973311608       15.92811300017778      102.89416788121602
H           46.16039445589453       16.08247645330360      102.75917787733724
H           47.53044203916385       15.41986429536441      103.78633772692535
C           44.58349244553430       20.13189226116919      103.62864730054248
H           45.61737233029893       20.06821192916796      103.96099743318943
H           44.10271329072169       19.17777203056685      103.84337708933147
H           44.08213556342731       20.89987140248482      104.21039615600290
C           42.70973695559663       22.26257065154092      102.18040141585298
H           43.04079560164291       22.57399215864295      103.16883026084554
H           41.76813967717294       21.72499561905662      102.30138518028308
H           42.52181536226691       23.15239458363139      101.58912346488785
O           44.21810495570201       17.96894143363673       97.68631764980481
H           44.56856181809484       17.10219454512133       97.89057420513193
H           43.33575715756760       18.00694783056049       97.31806434129622
C           47.16232580310207       22.93614745026975       98.11844689393014
H           48.03462649813927       23.57539272049494       98.08406610231340
H           46.46707929949290       23.27752940356844       98.87769935234816
H           46.65877058255202       22.89941276275977       97.15684725848412
S           47.75103883798883       21.28239823191433       98.62568606816392
H           48.20715872621567       20.92466499670888       97.41195932730413
72
 energy: -105.888857758396 gnorm: 0.023586811270 xtb: 6.7.1 (edcfbbe)
Fe          45.77364444969371       19.73975872684027       98.16846458651524
N           44.65102468776086       21.12243858108540       97.21376329795723
N           46.76082187160475       19.29647179789970       96.40427533649252
N           46.92121893583897       18.31560950867387       99.12908928970123
N           44.91109589462386       20.25759900875637       99.92610988580618
C           43.69945945615601       21.92659967229040       97.76523905701468
C           43.09641889078921       22.73807824875985       96.74339709600027
C           43.70145131977966       22.39567733427173       95.55934841574135
C           44.68463207465166       21.39629528917072       95.87092722071618
C           46.56879665063506       19.91015688379902       95.19879524518666
C           47.52356117584587       19.44746744177828       94.25206248930461
C           48.30915323645864       18.50401780940035       94.91016258562240
C           47.80384992803313       18.43335052020087       96.25531947158832
C           47.92899458746498       17.57860375638238       98.58095620619764
C           48.52109589705871       16.74575440832184       99.57111091503646
C           47.83492834248044       16.99010899458255      100.75091316644490
C           46.86170283946915       18.00271535933436      100.45143492058826
C           45.22874468034471       19.73900602358020      101.14877766784956
C           44.49003523379134       20.42349223868137      102.17052077777613
C           43.69775021857836       21.34821595329885      101.53367922253616
C           43.97680162413704       21.23059108986368      100.13010365730901
C           43.38463516736572       21.97709098399878       99.11759168306311
H           42.60331431857811       22.66197418656895       99.41078082157142
C           45.57293748504639       20.86105945227906       94.95192919064876
H           45.50178793511064       21.23453152215807       93.94287939759292
C           48.34518861311024       17.63925586434264       97.25393992650214
H           49.18534772658808       17.02039550833009       96.98956471053364
C           46.09871635520370       18.68190946459138      101.39389256695149
H           46.22553519321452       18.38521574034311      102.42206339393947
C           43.41198216128186       22.92715194817421       94.19884931465333
H           44.21794659592065       23.57020134190233       93.84579991612382
H           42.49207654614214       23.50392394032788       94.20568306590812
H           43.29692136119026       22.11200879177233       93.48723386771132
C           42.03557073033573       23.76445068139802       96.94370578198152
H           42.09981152713082       24.20555579691031       97.93375716786031
H           41.04367775010738       23.32646679242587       96.83077160797232
H           42.13699259000332       24.56063271198439       96.21029091268908
C           47.65291273811913       19.88386192569529       92.83970310953792
H           48.47766810961635       20.59058742430701       92.73690586587223
H           46.74822245774350       20.36800781749465       92.48709751394779
H           47.86187073136529       19.02716989490371       92.20283522212756
C           49.38703029003351       17.68299045950074       94.41851465777856
H           49.57573822152880       16.78727512567395       94.99625083980048
C           50.16318120460617       17.90829500887423       93.35808029541535
H           50.08877040475123       18.78825659525006       92.75014542013493
H           50.93364778630061       17.20883342204029       93.08608011770957
C           49.65268213889627       15.80445431814201       99.37938168516676
H           50.59613207416739       16.30104495344779       99.61442257831153
H           49.70877332946440       15.44719507264114       98.35549411781309
H           49.55090595851422       14.94434914484362      100.03599734614860
C           48.10600167246759       16.32955907662767      102.00811272231920
H           49.15089742238338       16.09431594036593      102.17065825921040
C           47.20707768978209       15.94218655203075      102.90871056392420
H           46.15259723163427       16.09157521445219      102.76559954060697
H           47.50717989125011       15.42607060110358      103.80312169849262
C           44.57906618231527       20.13092236888947      103.62434586457962
H           45.61625214109627       20.07206037032801      103.94740948508785
H           44.10335276376600       19.17603082622135      103.84852714623953
H           44.07898579325249       20.90012567666295      104.20528302613100
C           42.70919639301612       22.26176523008496      102.16930309493280
H           43.05090912525410       22.57271391630204      103.15394637247974
H           41.75511864425949       21.74591942061146      102.29667960915104
H           42.53585901156888       23.15099923187551      101.57195504944093
O           44.20795095492976       17.95672089370155       97.71356612381670
H           44.52765370393008       17.06252405449012       97.86870048813799
H           43.33454796348025       17.97460091675507       97.31103930806955
C           47.18415723198640       22.97129170788315       98.12235409618451
H           48.01808561900679       23.66497344540998       98.05618680406981
H           46.47754079622239       23.28466765695587       98.88362021146560
H           46.66629805634517       22.87042841565822       97.16966937408544
S           47.85819960236945       21.34630745081843       98.65970219355862
H           48.29691261305094       20.97208649547737       97.44941636116367
72
 energy: -105.891973592369 gnorm: 0.024207523425 xtb: 6.7.1 (edcfbbe)
Fe          45.76483687308388       19.72507199570199       98.16938372627551
N           44.65429202910396       21.11738202090215       97.21358606146015
N           46.75760796026069       19.29359931207370       96.39593348505520
N           46.91802597197494       18.30452593954822       99.13533623347914
N           44.90387567029189       20.23998649098855       99.92492671974934
C           43.70504605215659       21.92329421261532       97.76570395667322
C           43.09790045024005       22.73531812599393       96.74513104087075
C           43.69797859771241       22.39054442106623       95.56182794663717
C           44.68408996192640       21.39155610905347       95.87143431727135
C           46.56769875723944       19.91133834944627       95.19090119321493
C           47.52144756532233       19.44944943677728       94.24394493024913
C           48.30420497193781       18.50044850374620       94.90062009903215
C           47.79629403831326       18.42798223378174       96.24706040128760
C           47.92668372984649       17.57419752889798       98.58380990813369
C           48.52694009739996       16.74664118262429       99.57924117504517
C           47.84192209258487       16.98721447779177      100.76026188235946
C           46.86240105935676       17.99375876619122      100.45831386225797
C           45.21825173207676       19.72075875231343      101.14925657415053
C           44.47480957711601       20.40668233836799      102.16706841966574
C           43.68471651443948       21.33059340384462      101.52858359398893
C           43.97063410509124       21.21230035264139      100.12760597768792
C           43.39011475239452       21.97419037665455       99.11724106947688
H           42.62109477944609       22.67240797140125       99.41174953732913
C           45.56935575809194       20.86201063896262       94.94892679099614
H           45.49442516493835       21.24263724956875       93.94193308451176
C           48.33550922292853       17.63445785025949       97.25238167668863
H           49.17807624561491       17.01684771366387       96.98754752204051
C           46.09304070726766       18.67047753221315      101.39816253124755
H           46.22550446778002       18.37903512520625      102.42803770725855
C           43.41560571079058       22.92323163114085       94.20030197939620
H           44.22970279198689       23.56164959009045       93.85360337364152
H           42.49880582271288       23.50647635153574       94.20262142866254
H           43.30037284873184       22.10886506083160       93.48611770386596
C           42.03386771966947       23.75745896482572       96.95042203407614
H           42.10216176494853       24.20100477181994       97.94052315471878
H           41.04218270311589       23.31452259324544       96.84533527093315
H           42.12840308773202       24.55306691569472       96.21423561706658
C           47.64159388540678       19.88393211151520       92.82733874881797
H           48.45971236938694       20.59833622277881       92.71411043408180
H           46.72992450523288       20.36102552518038       92.47703577732359
H           47.85221440615151       19.02560531938011       92.19156282566838
C           49.38318563374460       17.68435400882121       94.40803704251977
H           49.56619025421080       16.78630396583729       94.98400799467588
C           50.16021257704909       17.91755736985224       93.35003192442984
H           50.08548238153524       18.79999375268956       92.74359960081297
H           50.93223365806855       17.21929599549802       93.07167832180197
C           49.65516679186589       15.79821431563810       99.38248363602092
H           50.60528385446785       16.28797036596889       99.60815261060482
H           49.69802025678468       15.43953125756620       98.35688008591767
H           49.55072115780027       14.93970435322030      100.04228883721841
C           48.10555910696100       16.32497677781699      102.01965652981886
H           49.14943003042330       16.08955026590261      102.18740639929227
C           47.19735722893406       15.95100226796605      102.91612667874783
H           46.14425332366940       16.11811884316300      102.77259536809736
H           47.48322952790938       15.44629439949914      103.82415656729889
C           44.57214403940300       20.12547930824030      103.62415329435660
H           45.61389848042617       20.07510899652497      103.93815507406443
H           44.10268204136042       19.16936621078910      103.86134871598166
H           44.07309153833174       20.89917599114743      104.20159958691744
C           42.70824252437532       22.26330253556809      102.15780635902662
H           43.05782473328846       22.57507890386429      103.14025621465490
H           41.74165120281683       21.76987138282125      102.28797252124461
H           42.55521841178581       23.15235875326723      101.55136477034731
O           44.17940695423167       17.94422074029848       97.77148575111880
H           44.50063731649865       17.03286795378800       97.83555632773151
H           43.33882238520070       17.93128459717104       97.28747476392913
C           47.20666571488092       23.00498690222804       98.12693263548368
H           48.00525106847670       23.73914905527835       98.03308206173865
H           46.49814485403460       23.30112829500776       98.89240037366865
H           46.68757649365954       22.85610425472579       97.18322949112552
S           47.94772925720242       21.41243602212200       98.68409614792678
H           48.39236067879919       21.02932868738111       97.48886454107915
72
 energy: -105.893124139043 gnorm: 0.014469662148 xtb: 6.7.1 (edcfbbe)
Fe          45.76217500162721       19.71558278913199       98.16988882622255
N           44.65941084277554       21.10996609018462       97.21458691718556
N           46.75911918248657       19.29706556233572       96.39762941680810
N           46.91845808133903       18.30617082126428       99.13754943766281
N           44.90470549966376       20.22769114428150       99.92052840896494
C           43.70831010800159       21.91879637649550       97.76625158091890
C           43.10051636983133       22.73236683205531       96.74530323277310
C           43.69740184795041       22.38802380476944       95.56397180244925
C           44.68589098165432       21.38800125456062       95.87128881726272
C           46.56789169163941       19.91213874423443       95.19003905385418
C           47.51969617659471       19.44674407694675       94.24125771495447
C           48.30229263144080       18.49757091192977       94.89612929634653
C           47.79649133589419       18.42818654837648       96.24480387344518
C           47.92507244925913       17.57290086053401       98.58445160794950
C           48.52612982762508       16.74295933460618       99.58251236228077
C           47.84473371783940       16.98385462554841      100.76346373402710
C           46.86371292193994       17.99126019979285      100.46097426269019
C           45.21039212462357       19.70690364370626      101.14776267158059
C           44.46352924919569       20.39230443357032      102.16366553841348