72
 energy: -105.423731432016 gnorm: 0.224342450941 xtb: 6.7.1 (edcfbbe)
Fe          45.80900000000000       19.77800000000000       98.16099999999999
N           44.68000000000000       21.09100000000000       97.22600000000000
N           46.77699999999999       19.35500000000000       96.49200000000000
N           46.91000000000000       18.42100000000000       99.09799999999998
N           44.97000000000000       20.26400000000000       99.88599999999998
C           43.67800000000000       21.92299999999999       97.75099999999999
C           43.10200000000000       22.75100000000000       96.71399999999998
C           43.70900000000000       22.42100000000000       95.56300000000000
C           44.70300000000000       21.41500000000000       95.87099999999998
C           46.56600000000000       19.90400000000000       95.25400000000000
C           47.54800000000000       19.39600000000000       94.28600000000000
C           48.34099999999999       18.50400000000000       94.92999999999999
C           47.83600000000000       18.47700000000000       96.28199999999998
C           47.89800000000000       17.60600000000000       98.57200000000000
C           48.47800000000000       16.73000000000000       99.56799999999998
C           47.81099999999999       16.97700000000000      100.73199999999999
C           46.87199999999999       18.05900000000000      100.42700000000001
C           45.24700000000000       19.76100000000000      101.12600000000000
C           44.52099999999999       20.44700000000000      102.16400000000000
C           43.76600000000000       21.39600000000000      101.55500000000001
C           44.01400000000000       21.25500000000000      100.13199999999999
C           43.35600000000000       21.98600000000000       99.12400000000000
H           42.54200000000000       22.64600000000000       99.42500000000000
C           45.58700000000000       20.86200000000000       94.97100000000000
H           45.51700000000000       21.20400000000000       93.93800000000000
C           48.35699999999999       17.66400000000000       97.26600000000001
H           49.19300000000000       17.01800000000000       96.99599999999998
C           46.11100000000000       18.72400000000000      101.36700000000000
H           46.20600000000000       18.39300000000000      102.40100000000000
C           43.38900000000000       22.94300000000000       94.17599999999999
H           44.21400000000000       23.60100000000000       93.82800000000000
H           42.44700000000000       23.53100000000000       94.20399999999999
H           43.28500000000000       22.09200000000000       93.47000000000000
C           42.02100000000000       23.79300000000000       96.92100000000001
H           42.10599999999999       24.21800000000000       97.94399999999999
H           41.02100000000000       23.32300000000000       96.80799999999999
H           42.14200000000000       24.61200000000000       96.17999999999999
C           47.68599999999999       19.86800000000000       92.84800000000000
H           48.52800000000000       20.58900000000000       92.77400000000000
H           46.75000000000000       20.37300000000000       92.52700000000000
H           47.89500000000000       19.00000000000000       92.18700000000000
C           49.38900000000000       17.69700000000000       94.43299999999999
H           49.59799999999999       16.77200000000000       94.98600000000000
C           50.17499999999999       17.89600000000000       93.37400000000000
H           50.05199999999999       18.79200000000000       92.74800000000000
H           50.95600000000000       17.16600000000000       93.11299999999999
C           49.68700000000000       15.77900000000000       99.38099999999999
H           50.62500000000000       16.31800000000000       99.63299999999998
H           49.73799999999999       15.44100000000000       98.32400000000000
H           49.58299999999999       14.90300000000000      100.05600000000000
C           48.09800000000000       16.31600000000000      101.94699999999999
H           49.15300000000000       16.10100000000000      102.16799999999999
C           47.23299999999999       15.91800000000000      102.86700000000000
H           46.15500000000000       16.09100000000000      102.73199999999999
H           47.58100000000000       15.41000000000000      103.77800000000001
C           44.58000000000000       20.12400000000000      103.66400000000000
H           45.64100000000000       20.06300000000000      103.98899999999999
H           44.08700000000000       19.14700000000000      103.85700000000000
H           44.07200000000000       20.92600000000000      104.24099999999999
C           42.69000000000000       22.27100000000000      102.20999999999999
H           43.03299999999999       22.58800000000000      103.21800000000000
H           41.74799999999999       21.69200000000000      102.31500000000000
H           42.51200000000000       23.17500000000000      101.58900000000000
O           44.18700000000000       17.96800000000000       97.66400000000000
H           44.62100000000000       17.15000000000000       97.90799999999999
H           43.36800000000000       18.04900000000000       97.32800000000000
C           47.13699999999999       22.86500000000000       98.12899999999999
H           48.05200000000000       23.49500000000000       98.10899999999999
H           46.44599999999999       23.28800000000000       98.88900000000000
H           46.65700000000000       22.92500000000000       97.12899999999999
S           47.53400000000000       21.13400000000000       98.53399999999999
H           48.14200000000000       20.88300000000000       97.38400000000000
72
 energy: -105.472022422847 gnorm: 0.091945894617 xtb: 6.7.1 (edcfbbe)
Fe          45.78350130748599       19.75124890987089       98.15987915926840
N           44.66097930017753       21.10275274218110       97.22058248153246
N           46.76181672653894       19.32081870394859       96.45382651519624
N           46.91229201840515       18.37350808610645       99.10640016313421
N           44.94686749481759       20.27137672799067       99.90215332283150
C           43.68417182713450       21.92490444059185       97.75894300632788
C           43.09654199229765       22.74688686649175       96.72878180847319
C           43.70693405891377       22.41286901550557       95.55653286625491
C           44.69565722426939       21.40720087521144       95.86852542029909
C           46.56798353456577       19.90507275204970       95.23409049323980
C           47.53748814738732       19.42077601332130       94.27331866286332
C           48.33113389300792       18.50562605580006       94.92780364850445
C           47.83035384339100       18.46105138677591       96.27910899805275
C           47.91639368111538       17.59756116121085       98.57487740261845
C           48.49839532972192       16.73639453321291       99.56050069593233
C           47.82068169626547       16.98547417827095      100.73410798976352
C           46.86506623794050       18.03800043771318      100.43520536458973
C           45.24310362833032       19.76420657499868      101.13495710288211
C           44.51137648124389       20.44435944873871      102.17122072101886
C           43.73572910234105       21.38474376416849      101.54765690602471
C           44.00097738052264       21.26066109979105      100.12987390284138
C           43.36574434078326       21.98272440552678       99.12322545784764
H           42.55911604181363       22.64159054436834       99.41952346032726
C           45.58260215604743       20.86160435401441       94.96233600736960
H           45.51535411788876       21.21128888084144       93.94077683570619
C           48.36183018417957       17.65800019395957       97.26195419417574
H           49.19150980998083       17.01996485232118       96.99383981623895
C           46.11070646429786       18.70943886791511      101.37818530752011
H           46.21462169888042       18.39103585334811      102.40644363019717
C           43.39903424689843       22.93764339029560       94.18613628277635
H           44.20499323071369       23.58969886510165       93.82935628864907
H           42.46987713389294       23.51449428919214       94.20234092327418
H           43.28694749909496       22.10900372726747       93.47975540566884
C           42.03032710482312       23.78233467687020       96.92984064363431
H           42.09989056504457       24.21586166088219       97.93109868232517
H           41.03739930961309       23.33348815002697       96.81255550430049
H           42.13781398689386       24.58934679813741       96.19758596621131
C           47.67334033629470       19.87235816793220       92.85360073928420
H           48.50735123046569       20.58014723376032       92.77178542082736
H           46.76119327758777       20.36804185232739       92.51630809914450
H           47.88319550263734       19.01749850827933       92.20156120375151
C           49.39227543041792       17.68677826931876       94.43260868558292
H           49.59620230496203       16.77694532284096       94.99525049673791
C           50.17072436218584       17.89584682223213       93.36784957737555
H           50.07036295999657       18.78169062954007       92.75443291284628
H           50.94379287698877       17.18465285896013       93.10614847160485
C           49.66633757339272       15.79302439611234       99.37561473158395
H           50.59913576634502       16.31292870202154       99.62574557641672
H           49.73416105900809       15.44264118969640       98.34268831313410
H           49.57364536561177       14.92695378508961      100.03806547664489
C           48.10415830470667       16.33077103966566      101.97129182644704
H           49.15172577940345       16.09431132363247      102.15670223436723
C           47.22521547721873       15.93008763655475      102.88547151670706
H           46.16024791226809       16.07574943165350      102.74294835131390
H           47.55648705291865       15.41165740827126      103.77528373054126
C           44.58464978771085       20.12839476848434      103.64359519207918
H           45.62529524390842       20.06454558915409      103.97982162051814
H           44.09766467777084       19.16842319660398      103.84977371973392
H           44.08032435631646       20.90591088272810      104.22366303033787
C           42.70351639186729       22.26917995098815      102.19534060253099
H           43.03127562917712       22.58104529491659      103.19245872435633
H           41.76894137523878       21.70775430087653      102.30786608793227
H           42.51244776843868       23.16345331305999      101.59719339163814
O           44.21105997375633       17.97009620297540       97.67403324161677
H           44.60367369738535       17.13075802774948       97.90296928770218
H           43.34254446798857       18.03604987148627       97.31969564713356
C           47.14442149254027       22.90307671566321       98.11962647672388
H           48.04986701087902       23.51164934576204       98.10532177215525
H           46.45725793559948       23.27939143358274       98.88266451097337
H           46.65757690286485       22.92049577913682       97.13943682866973
S           47.63486338834733       21.21825560813250       98.58285934640489
H           48.16885453108033       20.91042185679215       97.39902211731038
72
 energy: -105.488199416655 gnorm: 0.030903038735 xtb: 6.7.1 (edcfbbe)
Fe          45.76377613110899       19.72870055094094       98.16044038446381
N           44.65269115039802       21.11776396799007       97.21725932319792
N           46.76321059976793       19.30893976890899       96.42525644888538
N           46.92053015505353       18.33943041612928       99.11841383325631
N           44.93263542234214       20.27392758198527       99.91963420699093
C           43.69291788861609       21.92395702622644       97.76002967141093
C           43.09543137456470       22.74265466386870       96.74005589308194
C           43.70439802999725       22.40405812462079       95.55303867494848
C           44.68922498271348       21.40085206710130       95.86728290768583
C           46.57256987370054       19.90635423157342       95.21564636099839
C           47.52958437696341       19.44198439070777       94.26219600084983
C           48.32118580157488       18.50542000260120       94.92154874801405
C           47.81869923827401       18.44330963318369       96.27000866205857
C           47.92703704669393       17.58828861983323       98.58175012088915
C           48.51652855808840       16.74428554792834       99.56129302015640
C           47.82900928696670       16.98964641321959      100.74300795103393
C           46.86073107546515       18.01770971815700      100.44645679480402
C           45.23760395676292       19.76033486854108      101.14314038314826
C           44.50425185302901       20.43820615685910      102.17441211296476
C           43.71186142245006       21.37173039507836      101.54060201107687
C           43.98755220570559       21.25436296943816      100.12980446030828
C           43.37528453662005       21.97680790135343       99.12251244273405
H           42.58052156936920       22.64598488944180       99.41403054877718
C           45.57493957894258       20.86096285187030       94.95520033413477
H           45.50806547489987       21.22137162257284       93.94205781943052
C           48.35616399975462       17.64759789826274       97.25498841788975
H           49.18992065202785       17.02143041994104       96.99104377687313
C           46.10841107290845       18.69228114245055      101.38866582681335
H           46.22354422921050       18.38789321604870      102.41526639649075
C           43.40568680233527       22.93091490436127       94.19552568414863
H           44.20599902285900       23.57753362236226       93.83842143959825
H           42.48458264270713       23.50451312902218       94.20592080179033
H           43.29176639158369       22.11447353613337       93.48661527056693
C           42.03817668735375       23.77100809200976       96.93876668790617
H           42.09848377760448       24.21005306609534       97.92898429580846
H           41.04830044612237       23.33227967304970       96.81941112055254
H           42.14025220559311       24.56839402309101       96.20740580532697
C           47.66113772553376       19.87917778870004       92.85374681908384
H           48.49061398188448       20.58079341308283       92.76163058039005
H           46.76067347296849       20.36829150436952       92.50306750796456
H           47.87124177322784       19.02654075675963       92.21226235586319
C           49.39177001035030       17.68139441922273       94.42975206001815
H           49.58789891162422       16.78346501970514       95.00194144965587
C           50.16651034950549       17.90280797110403       93.36389387041547
H           50.08156074318910       18.78049069414949       92.75426467905416
H           50.93281209154677       17.19985038755027       93.09614279782988
C           49.65213485328336       15.80690126533343       99.37410343281127
H           50.58733355380140       16.31186852959422       99.61979698118775
H           49.72174035093630       15.44950030713557       98.35239077015750
H           49.55685509117234       14.94677877629788      100.03067396476256
C           48.10624365409343       16.33102413480848      101.99077393335079
H           49.15033842444278       16.09410257162493      102.15517020736455
C           47.21379429615910       15.93197324132144      102.89618735320298
H           46.15842708587222       16.07894811118542      102.75730117534199
H           47.53093090368739       15.42187217800422      103.78504487954339
C           44.58419172252297       20.13226588276749      103.62615275071819
H           45.61707121746497       20.06767812816640      103.95992655208627
H           44.10263983476300       19.17893818349769      103.83995349606239
H           44.08246476447390       20.89830761397250      104.20826054099939
C           42.71123532260640       22.26412220767271      102.17955832016308
H           43.04042554355036       22.57158039782783      103.16875583707150
H           41.77288273241955       21.72219808853344      102.30113007298172
H           42.51923361175688       23.15350427317951      101.59048734689046
O           44.21853226089395       17.96817649593755       97.68612854660248
H           44.55821036768626       17.09445218539128       97.88695117303379
H           43.33461716413163       18.00841630566028       97.31912526036122
C           47.16174940009100       22.93679705543587       98.11973067711087
H           48.03754110277560       23.57078345876509       98.08973982044159
H           46.46935560420022       23.28173727813935       98.87972494635565
H           46.66339695252656       22.90736980122941       97.15578458235153
S           47.74061831177488       21.28112266042588       98.62037633607247
H           48.22128729295437       20.93535181048922       97.41597428363352
72
 energy: -105.494316407371 gnorm: 0.022659919378 xtb: 6.7.1 (edcfbbe)
Fe          45.76296087677704       19.71936309718214       98.16203013004875
N           44.65143418523817       21.11716849157706       97.21471151775057
N           46.75492167908195       19.29567522155975       96.40751936672589
N           46.91752511886983       18.31829494171799       99.12504802221243
N           44.92337669438368       20.25964312051319       99.92535433176037
C           43.70188777598843       21.92090979876398       97.75806463287194
C           43.09664853613597       22.73773558204914       96.74483700745616
C           43.70135814834379       22.39609031792681       95.55330708379867
C           44.68638933733753       21.39505367890036       95.86608119484598
C           46.57144220507493       19.90454629636663       95.20292273782864
C           47.52392512871400       19.44883520212909       94.25232530611099
C           48.31293767446573       18.50081280945834       94.91137097517728
C           47.80606255268840       18.42957851648064       96.25911717211709
C           47.92640197436239       17.58175270660698       98.58719282955614
C           48.52454955128172       16.74875406543235       99.56924222244064
C           47.83523152646458       16.99032103608140      100.75550422927047
C           46.85912838078256       18.00521803680109      100.45589940293385
C           45.22965484430941       19.74806458423077      101.14538085366219
C           44.49305372866202       20.42489682455028      102.17100763817581
C           43.69600130748893       21.35551401837222      101.53346416754364
C           43.97902913281734       21.23830319162936      100.12806532150130
C           43.38445480411069       21.97394211410056       99.12176118447601
H           42.60119142629922       22.65742280738668       99.41062532529578
C           45.56935566062428       20.86149740688800       94.95051952593765
H           45.49938867013871       21.22996746737156       93.94041207488178
C           48.34631038913516       17.64060465322117       97.25065523770458
H           49.18567127889477       17.02004048787231       96.98970993678354
C           46.10672338625595       18.68079228327997      101.39534874903649
H           46.22930295511664       18.38570906075478      102.42410637743626
C           43.40931654798940       22.92608737474686       94.19928448099488
H           44.21497957460614       23.56943299730743       93.84743573482027
H           42.49068394068570       23.50325725143133       94.20716415350752
H           43.29586656692820       22.11269605124065       93.48612605934419
C           42.04038263730585       23.76234409109029       96.94629211139369
H           42.09986146565151       24.20509459991490       97.93529992153292
H           41.05003356826043       23.32307655985487       96.82971340323171
H           42.14072442029570       24.55635590038980       96.21141325285481
C           47.65114823909671       19.88369890701998       92.84378936502186
H           48.47757499079590       20.58810400798999       92.74263973020157
H           46.74946243215566       20.36913627138277       92.48744591750467
H           47.86169170937595       19.02732743592183       92.20766837569563
C           49.38638154267243       17.67936482305357       94.42036380566063
H           49.57941102514467       16.78617337629811       94.99844300751370
C           50.15914391773277       17.90912806194885       93.35493824393212
H           50.08586329071979       18.79237221650993       92.75167989278867
H           50.93009960188524       17.21095549411016       93.08466145492413
C           49.65072890807922       15.80794413378514       99.37696605224740
H           50.59310630378086       16.30420089017191       99.61542851700766
H           49.71090337765894       15.44892882014326       98.35458244625868
H           49.54917537123838       14.94968348478629      100.03506046876562
C           48.10718133520936       16.33204220970248      102.00835946525362
H           49.14979484942199       16.08616091278263      102.16325329077216
C           47.20534858567091       15.94912329887984      102.91172863703115
H           46.14967920462376       16.08704017390266      102.76291104769882
H           47.50768075912087       15.42705808284546      103.80066557013097
C           44.58033642421022       20.13123988943569      103.62033690302690
H           45.61617621410998       20.07052315971667      103.94612183069037
H           44.10298753496034       19.17708237965755      103.84229308425768
H           44.07920364664153       20.89827443345850      104.20171617022086
C           42.71156931213962       22.26323262182221      102.16799730130457
H           43.05110004420074       22.56945412404922      103.15406535210566
H           41.76189819574777       21.74051726637979      102.29697509140772
H           42.53014511835409       23.15238091449958      101.57432665318439
O           44.20239461126741       17.95027198498673       97.70963626716606
H           44.50518877710999       17.04758059980628       97.86276205014279
H           43.32585786166598       17.97378903941504       97.31310510272627
C           47.18583729266958       22.97567174355467       98.12511720136824
H           48.02640765506565       23.66071799019671       98.06756183395220
H           46.48184358478799       23.29430578504293       98.88661608127285
H           46.67493524238925       22.88790957321130       97.16840845148857
S           47.84086625434622       21.34548536798605       98.65411355110275
H           48.31970913438347       20.99226788036507       97.45594811315215
72
 energy: -105.497422608662 gnorm: 0.020382005146 xtb: 6.7.1 (edcfbbe)
Fe          45.75715039527077       19.70032188589830       98.16096746976064
N           44.65440717001285       21.10927751970034       97.21297251817407
N           46.75057921979021       19.29044569602101       96.40006493627173
N           46.91307804714560       18.30640084872623       99.12979445207377
N           44.91737985165733       20.23940720871838       99.92463144845665
C           43.70947425986156       21.91560681824329       97.75657975822519
C           43.09906035663256       22.73275527805519       96.74656062121235
C           43.69817647503510       22.38950367306152       95.55479029693670
C           44.68513608832367       21.38809754536193       95.86411770531681
C           46.57024971857842       19.90339204617493       95.19566113515945
C           47.52092933990157       19.45070438207731       94.24551059808039
C           48.30814666359679       18.49653944857419       94.90284639458416
C           47.79760117581991       18.42183375400410       96.25156767865013
C           47.92326227069803       17.57770331606288       98.59111162966207
C           48.53044980060414       16.75102879205250       99.57729400761231
C           47.84160387402253       16.98687973600370      100.76490691597279
C           46.85910087224906       17.99597572935244      100.46387991534836
C           45.22015156017381       19.73139488408454      101.14527201312583
C           44.48004168130924       20.40829012760101      102.16658472665767
C           43.68469091255602       21.33852352315382      101.52668435799576
C           43.97354682793100       21.21931330050333      100.12470697174102
C           43.39228538514277       21.97038339882704       99.12052433232556
H           42.62129696289705       22.66828323455960       99.40873085175819
C           45.56459359689467       20.86015841195466       94.94638433084252
H           45.49111167241701       21.23329375950089       93.93727733994812
C           48.33690205084307       17.63572290271776       97.24912337012009
H           49.17903055445109       17.01613859648743       96.98959936468084
C           46.10470469742356       18.66989458893864      101.40025321503887
H           46.23229779481672       18.38180365517876      102.43143433567435
C           43.41215247644105       22.92255733968749       94.20039556947253
H           44.22531345001307       23.56226734151628       93.85499112764258
H           42.49615188536843       23.50555272371433       94.20521564843185
H           43.29846438642915       22.11071064318180       93.48370138216436
C           42.04012044072169       23.75385527660000       96.95320984532657
H           42.10351629713835       24.19867306396992       97.94243715534995
H           41.04985845500804       23.30998453569094       96.84380268979299
H           42.13483099659703       24.54751059652143       96.21593374056468
C           47.64056926203894       19.88431847039910       92.83277478617718
H           48.46108406904366       20.59568176173963       92.72212356381830
H           46.73258928237362       20.36365992105698       92.47852682654957
H           47.85184675353046       19.02601216533657       92.19782390124850
C           49.38275905751281       17.68164747741555       94.41082559516444
H           49.57153613026868       16.78548249070284       94.98609100966947
C           50.15571454552289       17.92053782802938       93.34721147909556
H           50.07976393237631       18.80549076541172       92.74504621111478
H           50.92572984097713       17.22215498734037       93.06721758211530
C           49.65404138574191       15.80350252102019       99.38038043753961
H           50.60267167686878       16.29324549459231       99.61033768959985
H           49.70132531741617       15.44361916331138       98.35609955464392
H           49.54884646538605       14.94662921761088      100.04121408810234
C           48.10557672140146       16.32470879366194      102.01810266464717
H           49.14680089038055       16.07840003665128      102.17897627118597
C           47.19412339833280       15.95493950467582      102.91711998124120
H           46.14071544753450       16.11771273568093      102.77166582155961
H           47.48292481166671       15.44946023542157      103.82227114785630
C           44.57387024462763       20.12571261187227      103.61943613089602
H           45.61383783671960       20.07244478609939      103.93755008197195
H           44.10158409502737       19.17041321261138      103.85259304849183
H           44.07326135517107       20.89726589748341      104.19680833590620
C           42.71116690893538       22.26370322972800      102.15642729358269
H           43.05942752819543       22.57139464497756      103.13998208126668
H           41.75020113540330       21.76084036520484      102.28975221221677
H           42.54650117463204       23.15259044980354      101.55434673317129
O           44.17319922004652       17.93351286218164       97.74910796021263
H           44.46455615613262       17.01672940866404       97.83752580191370
H           43.31845603954213       17.93009750923156       97.29776330349384
C           47.21030738465572       23.01382166723161       98.13172070378658
H           48.01964106218977       23.73646265848569       98.05117651882198
H           46.50339848156133       23.31736856169001       98.89613202785590
H           46.69879190587893       22.88441243355480       97.18167277724675
S           47.91968647465774       21.40962572709360       98.67839260954909
H           48.42564634447698       21.06021482154980       97.49828391813517
72
 energy: -105.498678266004 gnorm: 0.013128058369 xtb: 6.7.1 (edcfbbe)
Fe          45.75516663915199       19.68607453019259       98.15933795290476
N           44.65963418059671       21.10040476384376       97.21192286961542
N           46.75204649028410       19.29135774032890       96.40227812692457
N           46.91182669705119       18.30512262490990       99.13052045371535
N           44.91665817528572       20.22372135293510       99.92030972259998
C           43.71429433158314       21.90962714322926       97.75597448813028
C           43.10200840740526       22.72832080305394       96.74552727090362
C           43.69633797063253       22.38573973350481       95.55591273267265
C           44.68579105245813       21.38246095125006       95.86186171503709
C           46.57014486040224       19.90222652355000       95.19498429052788
C           47.51839540353122       19.44761917272006       94.24378134778357
C           48.30602454532544       18.49261316141546       94.89895393132619
C           47.79723279937534       18.42038357327629       96.24980590122985
C           47.92094065021966       17.57524798407190       98.59192060148744
C           48.52970916570117       16.74683017799842       99.58171034413517
C           47.84498256090615       16.98283014739561      100.76811610090532
C           46.86018043143656       17.99246958728909      100.46684958587251
C           45.21314537756590       19.71754995274390      101.14367182068119
C           44.47071345115774       20.39424156143264      102.16288895225567