72
 energy: -105.980091490955 gnorm: 0.000045511655 xtb: 6.7.1 (edcfbbe)
Fe          45.86589282467136       19.86921027753100       98.24336018961036
N           44.70776583070435       21.16820278643473       97.28172056671342
N           46.81312310857071       19.43717548594014       96.51587410047235
N           46.97676602356371       18.47743230058557       99.18404340334342
N           44.90879908584473       20.24943560259844       99.94222354119172
C           43.75192165578873       21.96059197613011       97.82704530775111
C           43.10937785292717       22.76396409108438       96.80874892319359
C           43.69473818090925       22.42513663827706       95.63034272693540
C           44.69585549733961       21.42905186111219       95.94769782925761
C           46.53890470634720       19.95106540726357       95.28361048589296
C           47.45522036568445       19.43825635307298       94.30057404255633
C           48.31149083333753       18.60171704141608       94.96882373926196
C           47.87647589482508       18.60377966593825       96.35007311109324
C           48.01950025515785       17.77413874404239       98.65838059443205
C           48.58639110351145       16.89474990877940       99.64435721496825
C           47.83907269937887       17.05385243988673      100.78107381315614
C           46.86148995466522       18.07739755682978      100.47771310830349
C           45.12564667761050       19.67164207809976      101.15173717711471
C           44.28482418940921       20.27431806152298      102.16482756682659
C           43.55783894994627       21.23293022655544      101.53422322953202
C           43.96057990749805       21.19814570054109      100.14408791107508
C           43.41522460980249       22.00523359314568       99.16599858461130
H           42.65132003702541       22.70591101209513       99.46514643876618
C           45.53729516919262       20.86706345003842       95.00921007088249
H           45.42222002083121       21.18505007540561       93.98478701195619
C           48.46339384286343       17.85134299330852       97.34949323990884
H           49.31982182502487       17.25128058996644       97.08498973239115
C           46.01571791568887       18.64844706871467      101.41003091133182
H           46.08663584016402       18.29089613147809      102.42465944339909
C           43.42180099337050       22.93378373128350       94.25689438088284
H           44.30948621563284       23.40998240177511       93.83916915853678
H           42.61606609675967       23.66332522352845       94.26865599558251
H           43.13385439966891       22.11578372712489       93.59649073724364
C           42.01837911375787       23.74212627300959       97.07634601212034
H           42.35151089500014       24.50557422862412       97.77969313708157
H           41.15296557236272       23.23923511928646       97.50793037470521
H           41.70636677025423       24.23446878038236       96.15866794941601
C           47.40114196050983       19.73605390222696       92.84340194764206
H           47.88775067450141       20.68719969247433       92.62056703313256
H           46.36911022472444       19.79752021952008       92.50140248485476
H           47.90786438612493       18.95234386097159       92.28400975946568
C           49.41375537016146       17.82021606998624       94.45296552782688
H           49.58178845626183       16.86687637907781       94.94031832174625
C           50.21585020453553       18.18556470453926       93.45857214014158
H           50.12593407149403       19.14015879294080       92.97018489397145
H           51.01251618889715       17.54710416584259       93.11497956694744
C           49.72317008822026       15.96300792027431       99.40603984863495
H           50.58921294446515       16.50340217960403       99.02332737049078
H           49.45049483525612       15.20157039263394       98.67408584940034
H           50.00485518523987       15.46117052565550      100.32808467064149
C           47.99375441710722       16.33905997374040      102.03140159595391
H           49.01730037221581       16.12527248168826      102.31898867114802
C           47.00226238093665       15.90435055434689      102.80033966698176
H           45.96793518664484       16.04331152939426      102.53426708154835
H           47.19236862260036       15.37077809612981      103.71659164518528
C           44.27681733197224       19.86774176530721      103.59767363638170
H           45.26743739548012       19.99151596337413      104.03514258491715
H           43.99215247150276       18.82014700187085      103.69764266839708
H           43.57231639424777       20.46954781864309      104.16615982434574
C           42.53417439887281       22.16257720130932      102.08793236948931
H           42.41355866184116       22.01167172935029      103.15768135632598
H           41.56947300632345       21.99946675993688      101.60709029318069
H           42.82679994721518       23.19869936661427      101.91771403305056
O           44.45489243307770       18.18955320713595       97.77913663330142
H           44.64782739368840       17.58212408690081       98.50249748245940
H           44.86006703963827       17.82340068847573       96.98465940833806
C           47.55622274395613       22.70046678270457       97.42740984022338
H           48.48425073166123       23.26028476520835       97.49107125213415
H           46.70886888253010       23.35955785015805       97.58484817493533
H           47.46027696776270       22.20163598115626       96.46919373297719
S           47.51035378542948       21.46262226094236       98.77067261524374
H           48.56270992980699       20.76632672704774       98.32724425705457
