72
 energy: -105.923582567625 gnorm: 0.206404058379 xtb: 6.7.1 (edcfbbe)
Fe          45.80900000000000       19.77800000000000       98.16099999999999
N           44.68000000000000       21.09100000000000       97.22600000000000
N           46.77699999999999       19.35500000000000       96.49200000000000
N           46.91000000000000       18.42100000000000       99.09799999999998
N           44.97000000000000       20.26400000000000       99.88599999999998
C           43.67800000000000       21.92299999999999       97.75099999999999
C           43.10200000000000       22.75100000000000       96.71399999999998
C           43.70900000000000       22.42100000000000       95.56300000000000
C           44.70300000000000       21.41500000000000       95.87099999999998
C           46.56600000000000       19.90400000000000       95.25400000000000
C           47.54800000000000       19.39600000000000       94.28600000000000
C           48.34099999999999       18.50400000000000       94.92999999999999
C           47.83600000000000       18.47700000000000       96.28199999999998
C           47.89800000000000       17.60600000000000       98.57200000000000
C           48.47800000000000       16.73000000000000       99.56799999999998
C           47.81099999999999       16.97700000000000      100.73199999999999
C           46.87199999999999       18.05900000000000      100.42700000000001
C           45.24700000000000       19.76100000000000      101.12600000000000
C           44.52099999999999       20.44700000000000      102.16400000000000
C           43.76600000000000       21.39600000000000      101.55500000000001
C           44.01400000000000       21.25500000000000      100.13199999999999
C           43.35600000000000       21.98600000000000       99.12400000000000
H           42.54200000000000       22.64600000000000       99.42500000000000
C           45.58700000000000       20.86200000000000       94.97100000000000
H           45.51700000000000       21.20400000000000       93.93800000000000
C           48.35699999999999       17.66400000000000       97.26600000000001
H           49.19300000000000       17.01800000000000       96.99599999999998
C           46.11100000000000       18.72400000000000      101.36700000000000
H           46.20600000000000       18.39300000000000      102.40100000000000
C           43.38900000000000       22.94300000000000       94.17599999999999
H           44.21400000000000       23.60100000000000       93.82800000000000
H           42.44700000000000       23.53100000000000       94.20399999999999
H           43.28500000000000       22.09200000000000       93.47000000000000
C           42.02100000000000       23.79300000000000       96.92100000000001
H           42.10599999999999       24.21800000000000       97.94399999999999
H           41.02100000000000       23.32300000000000       96.80799999999999
H           42.14200000000000       24.61200000000000       96.17999999999999
C           47.68599999999999       19.86800000000000       92.84800000000000
H           48.52800000000000       20.58900000000000       92.77400000000000
H           46.75000000000000       20.37300000000000       92.52700000000000
H           47.89500000000000       19.00000000000000       92.18700000000000
C           49.38900000000000       17.69700000000000       94.43299999999999
H           49.59799999999999       16.77200000000000       94.98600000000000
C           50.17499999999999       17.89600000000000       93.37400000000000
H           50.05199999999999       18.79200000000000       92.74800000000000
H           50.95600000000000       17.16600000000000       93.11299999999999
C           49.68700000000000       15.77900000000000       99.38099999999999
H           50.62500000000000       16.31800000000000       99.63299999999998
H           49.73799999999999       15.44100000000000       98.32400000000000
H           49.58299999999999       14.90300000000000      100.05600000000000
C           48.09800000000000       16.31600000000000      101.94699999999999
H           49.15300000000000       16.10100000000000      102.16799999999999
C           47.23299999999999       15.91800000000000      102.86700000000000
H           46.15500000000000       16.09100000000000      102.73199999999999
H           47.58100000000000       15.41000000000000      103.77800000000001
C           44.58000000000000       20.12400000000000      103.66400000000000
H           45.64100000000000       20.06300000000000      103.98899999999999
H           44.08700000000000       19.14700000000000      103.85700000000000
H           44.07200000000000       20.92600000000000      104.24099999999999
C           42.69000000000000       22.27100000000000      102.20999999999999
H           43.03299999999999       22.58800000000000      103.21800000000000
H           41.74799999999999       21.69200000000000      102.31500000000000
H           42.51200000000000       23.17500000000000      101.58900000000000
O           44.18700000000000       17.96800000000000       97.66400000000000
H           44.62100000000000       17.15000000000000       97.90799999999999
H           43.36800000000000       18.04900000000000       97.32800000000000
C           47.13699999999999       22.86500000000000       98.12899999999999
H           48.05200000000000       23.49500000000000       98.10899999999999
H           46.44599999999999       23.28800000000000       98.88900000000000
H           46.65700000000000       22.92500000000000       97.12899999999999
S           47.53400000000000       21.13400000000000       98.53399999999999
H           48.14200000000000       20.88300000000000       97.38400000000000
72
 energy: -105.958305888070 gnorm: 0.079732413763 xtb: 6.7.1 (edcfbbe)
Fe          45.81285170946141       19.76100979827894       98.16180015057090
N           44.67399366879298       21.09884918891184       97.22674180853508
N           46.75573439951031       19.31800408446134       96.46016752284945
N           46.91170185300834       18.38148307550694       99.10169714692616
N           44.95034868739729       20.26806015220148       99.89294822399340
C           43.69545737328935       21.91724790425827       97.76312331990565
C           43.10095155459625       22.73881991869000       96.73012314631680
C           43.70951617536940       22.40709957243276       95.56429462379549
C           44.70041269846074       21.40173431466321       95.88005632562648
C           46.56547729063549       19.90906798086366       95.24211713417988
C           47.53589988395506       19.42002810203352       94.27806836444569
C           48.32410832121263       18.50950676814195       94.92884784821850
C           47.82026834075998       18.46352584208801       96.28206363766159
C           47.91097528485405       17.60331018002686       98.57073648067502
C           48.49307019956880       16.74057131558118       99.56341094810909
C           47.82075219173440       16.98931210491850      100.72895934661724
C           46.86431712658950       18.04385178254101      100.42658622216473
C           45.24788664247144       19.76414841944703      101.12611227597952
C           44.51065369262484       20.44283088001304      102.16396838925375
C           43.73780166514083       21.37555748202345      101.54218794552308
C           44.00782783845938       21.24984110564512      100.12199376268455
C           43.37648229629299       21.97810026617150       99.11833426041876
H           42.57091271110220       22.64072301288778       99.41569545497612
C           45.58677031549374       20.85835803078416       94.97038919464681
H           45.51563988399984       21.20816992883774       93.94702148857817
C           48.35454044782347       17.66065286241055       97.26516151362141
H           49.18761084710507       17.02441173180854       96.99675413565966
C           46.11049141679695       18.71358167509183      101.37033729837825
H           46.21344914085559       18.39221804716538      102.39969340466834
C           43.40306082346405       22.93587838232152       94.19025190750921
H           44.20654082492116       23.58889309529690       93.82948674538420
H           42.47325194298092       23.51218056566887       94.20325825977530
H           43.28822805475222       22.10970216093626       93.48157642525555
C           42.03230816973544       23.77711688062965       96.93038138592352
H           42.10104563414142       24.21348767941384       97.93051042448404
H           41.03707464107511       23.33324405201742       96.81432799104022
H           42.13827700130079       24.58582732674126       96.19952975665045
C           47.67198011385450       19.87229974649728       92.85546549923812
H           48.50487086650877       20.58065752736537       92.77083334165940
H           46.76029275986653       20.36777757092598       92.51611358888077
H           47.88121159026736       19.01834271402289       92.20233632674547
C           49.39023223724499       17.69033081022992       94.43248942610819
H           49.59267977009011       16.77847240451404       94.99435673462742
C           50.17008410790417       17.89747253690101       93.37174758250239
H           50.07180841850515       18.78111630919500       92.75584380274941
H           50.94155092891300       17.18542704055004       93.10621738220442
C           49.66251405926278       15.79530883396050       99.37640998948149
H           50.59654488537424       16.31340934838236       99.62434232104829
H           49.73077152731155       15.44354277081851       98.34402561901663
H           49.57105053945028       14.92796971123531      100.03675602790827
C           48.10281174368877       16.33208121194956      101.97073776721345
H           49.15125333204528       16.09844327271657      102.15958541650332
C           47.22541422476777       15.92809771675219      102.88217208982771
H           46.16124541355578       16.07833637453965      102.74434727377889
H           47.55382631798521       15.41231629184138      103.77539702399240
C           44.58491177747648       20.12864004116007      103.63947965091027
H           45.62473178018140       20.06540773360124      103.97757399109487
H           44.09887566122004       19.16931450360426      103.84886792610787
H           44.08052971826665       20.90501847547520      104.22117738441501
C           42.70582765066075       22.26566174144664      102.19180956727533
H           43.03285462214154       22.58046464577760      103.18850968557830
H           41.76834848536856       21.71008022282369      102.30613644522856
H           42.51475373185312       23.16112619639116      101.59525718217273
O           44.23448689781703       18.00118118992688       97.68670699630250
H           44.62575280643438       17.15846985768038       97.90922397527478
H           43.36683999880712       18.06481415999057       97.32681836039497
C           47.13639879569721       22.89083940125245       98.11866755124598
H           48.05098505870006       23.49101290291536       98.11169354404655
H           46.45241984392151       23.27566187947378       98.87870229046926
H           46.65420863371022       22.92557386488420       97.13871151828704
S           47.53738161350351       21.17275920103155       98.55660996198989
H           48.16385933791063       20.91016611925605       97.40816248471778
72
 energy: -105.968169752836 gnorm: 0.024245659604 xtb: 6.7.1 (edcfbbe)
Fe          45.80990803425339       19.74335114391573       98.16226852404722
N           44.66841658076665       21.10049890844217       97.22297370249039
N           46.75148310392144       19.30293091402238       96.44022867338357
N           46.91551490024283       18.35477232147398       99.10774625788999
N           44.93474377463576       20.25861291722649       99.90138466400711
C           43.71050623336026       21.90610254185176       97.76724887126171
C           43.10379968032274       22.72849898628010       96.74151594319559
C           43.70959068038397       22.39413932496326       95.56703789065286
C           44.69699244179372       21.38818786650144       95.88764534607253
C           46.56282686880989       19.90867798797986       95.23264152864144
C           47.52686268068921       19.43731353336290       94.27103583449367
C           48.30677743350947       18.51160997128105       94.92297992444200
C           47.79793629920448       18.44731407899353       96.27572839275850
C           47.91401976830886       17.59709580858195       98.57092606037777
C           48.50544875475762       16.74890145760591       99.56535447737927
C           47.82797873573656       16.99509395729585      100.73048166165245
C           46.86032174345948       18.03090407265979      100.42755728701961
C           45.24450010999987       19.75366931192500      101.12609023855003
C           44.50225859983743       20.43463688446998      102.16198817647106
C           43.71742035226060       21.35340156144290      101.53120012208136
C           44.00003156009698       21.22839928529887      100.11446823255459
C           43.39307360978973       21.96466105711373       99.11292438255423
H           42.60689288779249       22.64580230490986       99.40857026501200
C           45.58174721564198       20.85162881182401       94.96913800884737
H           45.51162510590142       21.21615758372918       93.95509332139915
C           48.34110494533851       17.64962911308514       97.25984839423243
H           49.18144656027635       17.02927073363538       96.99488688130025
C           46.10750120791131       18.69908489305507      101.37391698888381
H           46.22207225105250       18.38901865420144      102.40090966262923
C           43.41482355484710       22.92516419198598       94.20295597399733
H           44.21466360417103       23.57224465575327       93.84483575261801
H           42.49283230842471       23.49916844015837       94.21188125082396
H           43.29726708255652       22.11010659463876       93.49241082766231
C           42.04217782653134       23.75979116245625       96.94210843975864
H           42.10488121644729       24.20079250182601       97.93186902959002
H           41.04972676277416       23.32538925664533       96.82522955939419
H           42.14484408879155       24.55889751940267       96.21151551766027
C           47.65701680729568       19.87932940254558       92.85822103400356
H           48.48380010404682       20.58370379126598       92.76260003234431
H           46.75449550026413       20.36640542115621       92.50756601460047
H           47.86680842175701       19.02697285250317       92.21570923883807
C           49.38619794472235       17.68742761990491       94.42992800476648
H           49.57633730141193       16.78452727748244       94.99919586635527
C           50.16403537077686       17.90579762544193       93.37166846826030
H           50.08320841198405       18.78181745146323       92.75883386292172
H           50.92949280095775       17.20214188654534       93.09919010701623
C           49.64576082783291       15.80982791719043       99.37428619720735
H           50.58238830611167       16.31432822690915       99.61555771860976
H           49.71054999978324       15.45247506899283       98.35194847632728
H           49.55014700486682       14.94840779080299      100.02926803592264
C           48.10159208763535       16.33477271512377      101.98786561175895
H           49.14783384287634       16.10916975861218      102.16226408939131
C           47.21227969952538       15.93178104161106      102.88929780727311
H           46.15743628331704       16.08643174208480      102.75767249855144
H           47.52468070680170       15.42392230117370      103.78306991098560
C           44.58494823438299       20.13087101119150      103.61871581264039
H           45.61862662062448       20.06930016516395      103.95063927109364
H           44.10476218129130       19.17763897635305      103.83607785545152
H           44.08321876588955       20.89847832435309      104.20016278635703
C           42.71456637876891       22.25663856182269      102.16907880447245
H           43.04750871186588       22.56868384472259      103.15646754861883
H           41.77016038529802       21.72533837387218      102.29312497588067
H           42.52940968785357       23.14720913355553      101.57854404465859
O           44.28174613853714       18.06069804319316       97.73501017268568
H           44.62816723291930       17.17992688113352       97.90163521110917
H           43.41052469241794       18.09766179700849       97.33345482284038
C           47.13238802401992       22.91145324833686       98.11423748689575
H           48.04291854901497       23.49955260849575       98.11053918276841
H           46.45109952565556       23.27887363559076       98.87169657768015
H           46.65017237066294       22.93005664976453       97.14530622652369
S           47.54710316687295       21.19673102084670       98.57023766793380
H           48.21359934735813       20.93472752379040       97.43633251146996
72
 energy: -105.971038393667 gnorm: 0.025464934686 xtb: 6.7.1 (edcfbbe)
Fe          45.82395991442634       19.74651984545416       98.16538618751360
N           44.66920403405160       21.09156880582180       97.21916657826625
N           46.73946257948145       19.28613102082660       96.42814606164316
N           46.91409513303499       18.34338665479471       99.11078700096233
N           44.92808890492984       20.23899751979657       99.90226016590246
C           43.71976916135015       21.89473676627208       97.76622871325866
C           43.10763516673050       22.71865445778344       96.74595372894755
C           43.70868674299646       22.38239006199806       95.56977441108398
C           44.69434813284039       21.37547463555006       95.88922201391124
C           46.55555758261679       19.90114695268782       95.22555888127688
C           47.51904090328541       19.43659422643604       94.26426181688291
C           48.29395655505334       18.50459839887145       94.91365145685499
C           47.78262830284289       18.43400212347915       96.26728967916826
C           47.91206317735114       17.59308094133186       98.57166825329983
C           48.50865181356419       16.75098533880137       99.57037213270759
C           47.83225093852569       16.99750299234053      100.73614330514827
C           46.85933469030083       18.02410995581677      100.42902774292605
C           45.23649703870462       19.73485470598396      101.12386382339666
C           44.49018679678701       20.41841598023634      102.15610052432632
C           43.70441021456064       21.33168498781830      101.52197473368469
C           43.99534664424299       21.20453342708756      100.10873341119466
C           43.40392644286354       21.95587878367883       99.11062454064309
H           42.63333656453631       22.65350646521784       99.40645064626990
C           45.57690102272890       20.84597239093737       94.96583528625203
H           45.50732031826627       21.22249166601416       93.95674476952800
C           48.33121417078340       17.64188334872379       97.25567050337767
H           49.17468956767837       17.02619560234078       96.99113524780893
C           46.10437273222822       18.68740458546881      101.37645222076880
H           46.22736383358400       18.38375140718749      102.40386648301329
C           43.42410807705040       22.91617409247905       94.20812956877911
H           44.23206402347558       23.55816290480643       93.85789592449387
H           42.50546834919316       23.49568102188477       94.21465946933859
H           43.30658446474812       22.10284205126212       93.49483583710366
C           42.04688563178311       23.74548561336728       96.95307820309817
H           42.11270107204149       24.18795786971615       97.94247498857158
H           41.05445284601507       23.30849554352295       96.84164887960128
H           42.14661495497299       24.54219860651187       96.21939431764974
C           47.64235036337157       19.88139550054839       92.85244038320691
H           48.46355551775471       20.59205566757099       92.74994983504564
H           46.73553595555395       20.36233428776713       92.50040996846261
H           47.85514927851063       19.02746244119167       92.21258871677922
C           49.37748832651579       17.68320232409217       94.42159665488002
H           49.56035746377670       16.78168767914826       94.99277244602403
C           50.15615136980647       17.91217023838902       93.36714303341938
H           50.08689359525481       18.79589024665192       92.76267624403171
H           50.92652829340367       17.21328875191889       93.09191324434974
C           49.64042951725260       15.80814743378220       99.37303379592558
H           50.58388756861786       16.30580252716948       99.60496328448804
H           49.69284111796050       15.44929518039837       98.34964413074479
H           49.54067774805969       14.94910806799665      100.03121889588489
C           48.09918142839371       16.34156424066048      102.00166283052211
H           49.14463585351551       16.11293256921547      102.17217782558120
C           47.20087459597092       15.95142892419383      102.89916199990054
H           46.14526886381169       16.09608127804994      102.75602245724980
H           47.49918118693196       15.43512178967819      103.79484668314952
C           44.58313986894360       20.12648818892834      103.61086745394903
H           45.62087501540449       20.07075622379118      103.93241674552536
H           44.10804887659510       19.17203915892139      103.83732114568340
H           44.08228883696356       20.89657292290877      104.19058367466657
C           42.71644658878967       22.25375795317873      102.14979597291406
H           43.05911912676269       22.56589275541127      103.13409140093994
H           41.75919556116276       21.74416528267504      102.27818407179622
H           42.54938783657461       23.14307652972196      101.55052573123162
O           44.30060387391845       18.12239352094532       97.82892629006687
H           44.64888600065805       17.21241384468026       97.87427588409896
H           43.47049168640864       18.13990957237635       97.31940223823044
C           47.12844792487120       22.93289121974053       98.11451515484647
H           48.03344473948337       23.52871928344788       98.10610300910787
H           46.44095086197348       23.29517522951933       98.86899355597500
H           46.64514983272688       22.93027372150213       97.14489433565547
S           47.56475589957366       21.22586839463027       98.59793255375527
H           48.27360092510045       20.97118529688954       97.48448084325759
72
 energy: -105.972236494722 gnorm: 0.014338219438 xtb: 6.7.1 (edcfbbe)
Fe          45.83109245034113       19.74453312567247       98.16991695347612
N           44.67597676430703       21.08218053612807       97.21852383982144
N           46.73689462609468       19.28312233772504       96.42622652694942
N           46.91765860566145       18.34354876527719       99.11448545416825
N           44.93354449174011       20.22623764388793       99.90234610509113
C           43.72913888757304       21.88667647829181       97.76605051631330
C           43.11318286514071       22.71037574210938       96.74898954451385
C           43.70932816771323       22.37294401630107       95.57278221851264
C           44.69563452584237       21.36655176468194       95.88988395353303
C           46.55310278183261       19.89736913313041       95.22351953255875
C           47.51468252684151       19.43207185004633       94.26039046489245
C           48.28703872270421       18.49778226558757       94.90652865949878
C           47.77670236501825       18.42797065582368       96.26240268012046
C           47.91269981200070       17.59237542854085       98.57297125986409
C           48.51077669285178       16.75052752543948       99.57396926551651
C           47.83617465674592       16.99649175791161      100.74030322162574
C           46.86347600752326       18.02216596110090      100.43152968298898
C           45.23214516545985       19.71917239186620      101.12308691160098
C           44.47850371633077       20.40130419080636      102.15141329205316
C           43.69662064928390       21.31379632596411      101.51536178719778
C           43.99743966172013       21.18789190986562      100.10515487993334
C           43.41408382576978       21.95005367219374       99.11078611405958
H           42.65250452995917       22.65613041778948       99.40680529976774
C           45.57531052313642       20.84220914491115       94.96315545741842
H           45.50488202479029       21.22519537617285       93.95647000683140
C           48.32556388044360       17.63691439180859       97.25319142635807
H           49.16778163858771       17.01935235060534       96.98665832560215
C           46.10396847658586       18.67877699650451      101.37961916769804
H           46.22915110897442       18.37511878158765      102.40692771718270
C           43.43391298950017       22.90874557887676       94.21022395072092
H           44.25184923792363       23.54515780339658       93.86782344931696
H           42.51891221174220       23.49628544568416       94.21245559539643
H           43.31622223015592       22.09587881830493       93.49425824058501
C           42.04944636220586       23.73198810829459       96.96416864620119
H           42.12211567441391       24.17539762306047       97.95447858145920
H           41.05756906248225       23.28808749411441       96.86264931207990
H           42.14094288399155       24.52880994806955       96.22777201291406
C           47.62712268938027       19.87941267086128       92.84581058225021
H           48.43990791403450       20.60086071327961       92.73708441422109
H           46.71142112416524       20.35187336111263       92.49829836857887
H           47.84470197821786       19.02610790854133       92.20440854870228
C           49.37037538963871       17.68034884535978       94.41313963701663
H           49.54522227291935       16.77328882451467       94.97840885450529
C           50.15199397141070       17.92124558984992       93.36390891475729
H           50.08433554820196       18.81233212327421       92.76687898033001
H           50.92430240031124       17.22391308898852       93.08146044662681
C           49.63795557846518       15.79910857420128       99.37024013346633
H           50.58822087086483       16.29129624433121       99.59148470388894
H           49.67543934263282       15.43844243000480       98.34483339113036
H           49.53574755649928       14.94228668621384      100.03316380729053
C           48.09360766302124       16.34142857234450      102.00836120969183
H           49.13842658551764       16.11563413084197      102.18785703385481
C           47.18543772811624       15.96285652752749      102.90043759401696
H           46.13043918367140       16.11845565011635      102.75150037894107
H           47.47100990302988       15.45864903039004      103.80997680894123
C           44.57820272550516       20.11658311658669      103.60844048241997
H           45.62079896628628       20.06900397406140      103.92109806012797
H           44.10958414665644       19.15952712694981      103.84351963182480
H           44.07698829778466       20.89017776441626      104.18573212576071
C           42.71614690446516       22.25286259914855      102.13166629148816
H           43.06232485140129       22.56605037692488      103.11559684579547
H           41.74697829073535       21.76290764231117      102.25732089873024
H           42.57150763529300       23.14153521392914      101.52142911669345
O           44.33168821579575       18.16521598369814       97.83175024628405
H           44.66678299746551       17.27241854044487       97.89992194565269
H           43.50865640250966       18.15924465620150       97.32740782538626
C           47.12161053081203       22.95111401727425       98.11628394061655
H           48.01971289126185       23.56037239763169       98.10294564146650
H           46.42639074499155       23.31465651629588       98.86538684416549
H           46.64014970881099       22.93169838881166       97.14387585514791
S           47.57255139404872       21.24972036623170       98.61842747765832
H           48.32722679268802       21.00417858979554       97.53066290874909
72
 energy: -105.972588204546 gnorm: 0.033707195894 xtb: 6.7.1 (edcfbbe)
Fe          45.84242003642056       19.75026788810073       98.17711580854072
N           44.68879036624449       21.07943630544246       97.22119143432944
N           46.74841754029347       19.29505001132526       96.43229519430659
N           46.92657465964142       18.35184437651048       99.11832961059871
N           44.94626870351602       20.22206356134519       99.90311503218577
C           43.73888588314048       21.88278567394038       97.76751927263315
C           43.11902270631153       22.70412659429618       96.75156222283256
C           43.71115467542393       22.36589548085277       95.57535142055426
C           44.70114343298975       21.36257070763290       95.89108716919930
C           46.55724203335260       19.89872405540364       95.22594447498268
C           47.51231640058211       19.42557463356880       94.25867984342101
C           48.28409926021607       18.49113195137580       94.90193875827688
C           47.78049605704491       18.42936869587006       96.26204127733800
C           47.91680827674104       17.59447580248496       98.57441111592520
C           48.51189734465668       16.74728790234385       99.57481587355605
C           47.84004676960837       16.99444122756670      100.74190706308600
C           46.87173883213555       18.02492346906288      100.43418458807372
C           45.23296855993958       19.71041586581063      101.12460085417428
C           44.47036391168559       20.38799143317496      102.14994016907355