78
 energy: -116.058055592564 gnorm: 0.000042465452 xtb: 6.7.1 (edcfbbe)
Fe          10.47861288249682      -31.09121571198280        8.81055407589008
N           11.01260395044896      -32.66364430885591        9.91029287578762
N           11.74733466679245      -29.93164570053860        9.81999155646738
N            9.86147759001069      -29.49646749969776        7.74480476053907
N            9.16962814617215      -32.24658919480362        7.80705407386104
C           10.52314232177517      -33.92864391141464        9.83209931149151
C           11.15110120747967      -34.78394708902204       10.81655898731495
C           12.03920766083766      -34.00357398070405       11.48656499015959
C           11.93929879427989      -32.68234390076340       10.90345932432104
C           12.60256184563428      -30.32400372688258       10.80012729068767
C           13.39048262803354      -29.21258593533696       11.27150633626716
C           12.98385544694895      -28.12074905737639       10.55297862919794
C           11.95789203451078      -28.60180925997295        9.64555253841762
C           10.30828328758515      -28.21460303070941        7.86646600678850
C            9.64996035893507      -27.35065140474888        6.92235717456208
C            8.79605414730838      -28.14594699838074        6.20265941072502
C            8.94621331544876      -29.48325411777272        6.74036240672182
C            8.37756471245432      -31.87126497415353        6.76559677946984
C            7.63856172042357      -33.00248976732228        6.25319676749243
C            8.00286591366280      -34.07275814616562        7.01085296559730
C            8.96251158031298      -33.58154400183018        7.97248072578741
C            9.57477797079264      -34.37127369541593        8.92831071049951
H            9.29661400155421      -35.41356101213638        8.96573683245700
C           12.69563290646789      -31.60474547663425       11.31539656940528
H           13.40110488480419      -31.77034976901698       12.11521292436317
C           11.28224238924360      -27.79074954979278        8.75469880353244
H           11.54286767689182      -26.74355419197753        8.73831145416813
C            8.26410735725110      -30.58816152461323        6.26485890039604
H            7.59271757937006      -30.44042330322988        5.43319243372396
C           12.95533133754808      -34.36168565933105       12.60588581257407
H           12.84802036677376      -35.40984467761789       12.87433584398550
H           12.73581178687238      -33.75764699984138       13.48625056374417
H           13.99356822451871      -34.18402344077468       12.32421219594749
C           10.83167411953228      -36.22801779510647       11.00248463888405
H           11.04230405094691      -36.79030788382799       10.09204314344938
H            9.77650658875857      -36.35850316977375       11.24326028989219
H           11.42175965990643      -36.65327100934510       11.81046842597518
C           14.47036634205512      -29.29966014588916       12.29255334957843
H           15.03146659525978      -30.22632836450963       12.18153467555456
H           14.05419975931985      -29.27541144586596       13.30093629495452
H           15.15582614233470      -28.46151143059013       12.18379264121371
C           13.45835614202586      -26.75598647981355       10.61306126943162
H           13.45565963961409      -26.21648322857244        9.67262222195429
C           13.87811882515053      -26.13245975674898       11.70927834245628
H           13.85738610530341      -26.60058245916457       12.67771155138834
H           14.23285626239684      -25.11550363328362       11.67803999288884
C            9.83851979370284      -25.87642728284544        6.83337804475077
H           10.71585109933397      -25.63074949174288        6.23248487268492
H            9.97665260719327      -25.44492662190267        7.82367526121236
H            8.96734727146153      -25.41621296973351        6.37131051757961
C            7.88271754880790      -27.78253328675985        5.14236291920250
H            6.96559863803261      -28.35874427011337        5.09678669952417
C            8.08521990432060      -26.82620906764036        4.24171138626818
H            8.99583692226325      -26.25429186523044        4.20726981198075
H            7.35115810264981      -26.60022046319430        3.48607026781509
C            6.67845060116931      -32.93461256508273        5.11545636310164
H            7.17313880506275      -32.56124028013206        4.21861541832307
H            5.85228944292280      -32.26242204260924        5.34943362945951
H            6.26738424329770      -33.91710616564998        4.89661707540666
C            7.54833835998484      -35.48972979245050        6.92538571616992
H            8.39177437801684      -36.15354608969950        6.73292834829538
H            6.82402214795051      -35.61607701782005        6.12452448962901
H            7.08233439759931      -35.79997679399573        7.86095821050831
C           14.55158105514121      -30.78515821809463        5.01691173682142
H           14.28473907504178      -30.99620263272565        3.98138262618369
H           15.50289968458382      -31.27249688100035        5.22996116683358
H           14.67605172231906      -29.71310168308459        5.13223538948187
N           13.13223522594018      -32.58395069598014        6.02729933512645
H           13.52898085014890      -33.33858882991888        5.49186129686636
C           13.49414421317109      -31.26506467760168        5.94209511020477
C           12.15138661470164      -32.68089870690351        6.95285029477389
H           11.67408351505756      -33.59850801360988        7.22869793964142
N           11.87046115242702      -31.50436756478658        7.45827778301634
C           12.69796780496133      -30.61366994533769        6.83991888746780
H           12.66500793134832      -29.57124099030196        7.07975397951005
O            8.75546121833760      -30.60917077889649       10.24553957755565
H            8.48171654375840      -29.74918311799080        9.90843526143919
H            8.10915820309031      -31.25359337583956        9.93710371317325
