78
 energy: -115.973217993632 gnorm: 0.266319443693 xtb: 6.7.1 (edcfbbe)
Fe          10.58800000000000      -31.11000000000000        8.63300000000000
N           11.00200000000000      -32.64500000000000        9.87800000000000
N           11.77800000000000      -29.90500000000000        9.79200000000000
N           10.04900000000000      -29.47300000000000        7.51900000000000
N            9.28600000000000      -32.27700000000000        7.59600000000000
C           10.56500000000000      -33.94000000000000        9.74200000000000
C           11.22700000000000      -34.77700000000000       10.70900000000000
C           12.04700000000000      -34.00200000000000       11.41700000000000
C           11.91900000000000      -32.65500000000000       10.91000000000000
C           12.54800000000000      -30.29900000000000       10.86100000000000
C           13.25800000000000      -29.14200000000000       11.35200000000000
C           12.92900000000000      -28.09500000000000       10.58900000000000
C           11.96500000000000      -28.55600000000000        9.61000000000000
C           10.42800000000000      -28.17400000000000        7.74900000000000
C            9.65400000000000      -27.30900000000000        6.88800000000000
C            8.82600000000000      -28.09000000000000        6.16700000000000
C            9.06300000000000      -29.45900000000000        6.55000000000000
C            8.45600000000000      -31.81800000000000        6.57700000000000
C            7.57600000000000      -32.87900000000000        6.17800000000000
C            7.93900000000000      -34.05900000000000        7.04600000000000
C            9.00700000000000      -33.60300000000000        7.89800000000000
C            9.63200000000000      -34.37700000000000        8.83700000000000
H            9.36500000000000      -35.43299999999999        8.86900000000000
C           12.61100000000000      -31.56800000000000       11.36500000000000
H           13.27800000000000      -31.72900000000000       12.21200000000000
C           11.37200000000000      -27.76100000000000        8.65500000000000
H           11.67800000000000      -26.71600000000000        8.61500000000000
C            8.43100000000000      -30.56400000000000        6.03600000000000
H            7.86000000000000      -30.42900000000000        5.11700000000000
C           12.98400000000000      -34.42700000000000       12.56700000000000
H           12.88500000000000      -35.52000000000000       12.74100000000000
H           12.70600000000000      -33.88700000000000       13.49700000000000
H           14.03700000000000      -34.19900000000000       12.29700000000000
C           11.01100000000000      -36.29599999999999       10.84600000000000
H           10.75300000000000      -36.72500000000000        9.85400000000000
H           10.17700000000000      -36.49400000000000       11.55200000000000
H           11.94300000000000      -36.77600000000000       11.21500000000000
C           14.25200000000000      -29.19400000000000       12.52700000000000
H           14.86200000000000      -30.12000000000000       12.45600000000000
H           13.69600000000000      -29.20200000000000       13.48900000000000
H           14.92800000000000      -28.31300000000000       12.48600000000000
C           13.36700000000000      -26.62500000000000       10.70200000000000
H           13.47600000000000      -26.03100000000000        9.78300000000000
C           13.63000000000000      -26.00500000000000       11.85500000000000
H           13.54100000000000      -26.54200000000000       12.81100000000000
H           13.93900000000000      -24.94900000000000       11.86300000000000
C            9.77900000000000      -25.77600000000000        6.86300000000000
H           10.41000000000000      -25.46900000000000        6.00100000000000
H           10.25600000000000      -25.42300000000000        7.80200000000000
H            8.77200000000000      -25.31900000000000        6.75300000000000
C            7.76000000000000      -27.72200000000000        5.10600000000000
H            7.24000000000000      -28.53800000000000        4.58400000000000
C            7.41000000000000      -26.48300000000000        4.76200000000000
H            7.88700000000000      -25.61500000000000        5.24100000000000
H            6.64000000000000      -26.31300000000000        3.99500000000000
C            6.49200000000000      -32.80800000000000        5.09900000000000
H            6.95700000000000      -32.55600000000000        4.12200000000000
H            5.75400000000000      -32.02000000000000        5.36000000000000
H            5.98300000000000      -33.79200000000000        5.01300000000000
C            7.25800000000000      -35.43200000000000        7.04500000000000
H            7.76400000000000      -36.09600000000000        6.31200000000000
H            6.19100000000000      -35.32200000000000        6.75400000000000
H            7.33100000000000      -35.88799999999999        8.05500000000000
C           14.56600000000000      -31.41500000000000        4.57700000000000
H           14.47100000000000      -32.28700000000000        3.89500000000000
H           15.63200000000000      -31.30000000000000        4.86800000000000
H           14.21700000000000      -30.50300000000000        4.04700000000000
N           13.93000000000000      -32.71000000000000        6.64500000000000
H           14.64500000000000      -33.39900000000000        6.53000000000000
C           13.73100000000000      -31.64200000000000        5.79600000000000
C           13.03800000000000      -32.67300000000000        7.61600000000000
H           12.98300000000000      -33.39000000000000        8.43400000000000
N           12.25200000000000      -31.63600000000000        7.41200000000000
C           12.65700000000000      -30.97500000000000        6.28100000000000
H           12.14200000000000      -30.09100000000000        5.92700000000000
O            8.84900000000000      -30.49600000000000        9.80400000000000
H            8.57900000000000      -29.64800000000000        9.45100000000000
H            8.46100000000000      -30.93400000000000       10.47300000000000
78
 energy: -116.027048113471 gnorm: 0.106430992649 xtb: 6.7.1 (edcfbbe)
Fe          10.59232875112486      -31.10426569197703        8.64301839655233
N           11.01030024380295      -32.65148985898499        9.87281697240662
N           11.77708915685774      -29.89695776809327        9.78769034083807
N           10.03128066345897      -29.47591243304233        7.52700951638617
N            9.29054993348917      -32.26811651022974        7.60590741729177
C           10.56615556825757      -33.93857445051736        9.73763849092446
C           11.22377792010352      -34.79248890920773       10.70495955434322
C           12.05340965836814      -34.00507653544875       11.42688416116587
C           11.91656111197726      -32.66086254787038       10.90305252309555
C           12.54675198953888      -30.27992297807185       10.85222412272323
C           13.27099160105584      -29.13409388426327       11.36197486560139
C           12.93074364370748      -28.06772788578534       10.59293318000713
C           11.98337988849341      -28.55931685735122        9.60242897427614
C           10.41508444302506      -28.17941674331298        7.73510159462887
C            9.64862482133883      -27.29842071021831        6.87677642566770
C            8.81407896550654      -28.08778747426655        6.13710507959598
C            9.07282745193629      -29.45788454321267        6.54346967030573
C            8.46633622186193      -31.85281888640579        6.58711604238045
C            7.58828504193244      -32.92135689241279        6.19197873844945
C            7.91866031304958      -34.02818334037758        7.01686535471579
C            8.99011877785214      -33.58143611248057        7.87091354955360
C            9.62346482626043      -34.36736861149961        8.82302590417233
H            9.35431564333576      -35.41772180216756        8.86128249879737
C           12.61256664332175      -31.56208254165679       11.36261630067616
H           13.27502159692248      -31.72468688792791       12.20674906584329
C           11.37360704797647      -27.76709133619729        8.64750910418691
H           11.66638948660844      -26.72361321637426        8.62168755604232
C            8.43711193284417      -30.57844137458227        6.04014570372335
H            7.84146194799257      -30.43861490682505        5.14357958299841
C           12.97418145732293      -34.41963868615120       12.55529241161108
H           12.88527754697280      -35.49554062362424       12.73800036621990
H           12.71249314819234      -33.89212417438423       13.47876093830518
H           14.01734870094947      -34.19662254617948       12.30330535286777
C           11.01064329483785      -36.28347056553422       10.84011697171578
H           10.75814243093239      -36.72176714611027        9.86985973894606
H           10.19247623375730      -36.49080496973360       11.53957323993328
H           11.92130070056389      -36.76664899098800       11.20962691907139
C           14.24611314900696      -29.19480229922746       12.51535595218919
H           14.85155620201048      -30.10593061088516       12.45649229338190
H           13.70723070152476      -29.20081581343197       13.47068050623158
H           14.91484238556510      -28.32909431708988       12.48714475989190
C           13.36482577392278      -26.64495211961589       10.70727246788758
H           13.46269618950905      -26.06944464215758        9.78655621384452
C           13.62894084680661      -26.02010137459948       11.85042627372344
H           13.53591447981126      -26.52637870512905       12.80340396932602
H           13.93205108530900      -24.97648336561560       11.86437408286393
C            9.78362174496635      -25.79222654569503        6.86750858423599
H           10.39865275113653      -25.47434103881995        6.01579208958436
H           10.25002718001305      -25.43124207693482        7.78813222557635
H            8.80009282003124      -25.32304141480853        6.77843199196243
C            7.78034690042925      -27.72019150748162        5.12018051673378
H            7.27108169417670      -28.54132188360753        4.61701820425751
C            7.41832819242352      -26.49060516913700        4.76542991422693
H            7.86916115266676      -25.61696944876581        5.21097966572967
H            6.65503210420498      -26.32189192538349        4.01194191543481
C            6.51795766594515      -32.82228614929159        5.12545330214552
H            6.95544858100062      -32.56639834985575        4.15021207632047
H            5.77988630467762      -32.04358156576886        5.36532322584974
H            5.99257935017700      -33.77615059199962        5.01806042291889
C            7.26871004943038      -35.39627780923921        7.03545397791664
H            7.75677674121173      -36.07575155911690        6.32261216635955
H            6.21158971903257      -35.32109053568993        6.75865773074601
H            7.33011523636433      -35.86080001046304        8.02817686678828
C           14.56669552064832      -31.41957250670700        4.57754578514341
H           14.47990635862800      -32.27363413405663        3.89572199932428
H           15.62033566701078      -31.29914573314998        4.85479033922254
H           14.22642335791284      -30.51995881844944        4.05797544579085
N           13.94266779922554      -32.70724692990000        6.63373896992831
H           14.66154022376237      -33.40047053656175        6.52173379146594
C           13.73149328871677      -31.64779043181891        5.78764788894053
C           13.02752382652310      -32.66118826043672        7.61012422702520
H           12.97431145945757      -33.37090283721672        8.41884975333300
N           12.23264687313409      -31.63043126791806        7.42594423905286
C           12.65303454831410      -30.98590963658262        6.29473815655221
H           12.14670490270090      -30.10637171683798        5.94237506142916
O            8.86068331260668      -30.48465922260187        9.80246739820953
H            8.55862434698690      -29.64272816803873        9.46395002328807
H            8.43169070748871      -30.93946957644633       10.50332889914682
78
 energy: -116.041181357903 gnorm: 0.035579256665 xtb: 6.7.1 (edcfbbe)
Fe          10.59423227705073      -31.09841771704975        8.64495308738176
N           11.01672025475029      -32.65200085155167        9.86453776236181
N           11.78269365468562      -29.89627560745156        9.77309048182905
N           10.02577306444123      -29.47945280562362        7.52418190838266
N            9.29639811029032      -32.26167931287996        7.61082546024024
C           10.56924604334452      -33.93179921807793        9.72884761007999
C           11.22104612137107      -34.79668463191408       10.69559384082035
C           12.05462670366217      -34.00212804018722       11.42591873306774
C           11.91463975849792      -32.66149235882399       10.89017141498422
C           12.54573851363789      -30.27064761752177       10.83669647928361
C           13.27424388054318      -29.13462932018916       11.36366719813133
C           12.92933723958061      -28.05654824536185       10.59030984933854
C           11.99480520423230      -28.56642759295536        9.59196945578301
C           10.40624932850693      -28.18623775206376        7.72598678943719
C            9.65085375595963      -27.29626175017056        6.87103881444230
C            8.81461057879855      -28.08997060540295        6.11508140302152
C            9.08240582923118      -29.45993655070311        6.54093301062684
C            8.47799757264053      -31.86911761434923        6.59772633660653
C            7.60287754323365      -32.95107730992533        6.20401862968443
C            7.91108756861937      -34.00219686293329        6.99225868116404
C            8.98489786092373      -33.56339464172429        7.85730866842875
C            9.61829524174951      -34.35496005739680        8.81260541205512
H            9.34080533605164      -35.39915932042237        8.85570478251385
C           12.61340735859430      -31.55777194520168       11.35370347975283
H           13.26948884392869      -31.71960099766469       12.19804131733750
C           11.36939275238204      -27.77438568616032        8.64346680738430
H           11.64787339840514      -26.73038784208114        8.63079586457974
C            8.43694664771236      -30.58747901398349        6.05194061549713
H            7.80794438175830      -30.44759806172592        5.18192987241332
C           12.96131757014206      -34.40789174847320       12.54107641897089
H           12.87890436941981      -35.47523083550768       12.73026987110034
H           12.70922931559845      -33.88410935144533       13.46132549811110
H           14.00034425885422      -34.18474404795255       12.30037783772092
C           11.00873943385368      -36.26798312035452       10.83303396798545
H           10.75922062136277      -36.71551070991023        9.87518182691496
H           10.19761383936728      -36.48094094512439       11.52944629148805
H           11.90749238605438      -36.75292548795513       11.20766534428935
C           14.23636793288827      -29.19544447727664       12.50131550645291
H           14.83879528602102      -30.09999919652852       12.44948467665285
H           13.70901282581033      -29.19933067630149       13.45564178640518
H           14.90242150522542      -28.33707870236555       12.48076161992941
C           13.35431375325301      -26.67426735953649       10.70702453661071
H           13.44322670648089      -26.11603930685071        9.78125123029809
C           13.62257094478296      -26.04049895401370       11.84468986200801
H           13.52573909219503      -26.51948589459342       12.80195787501856
H           13.93220294003483      -25.00761369303067       11.85855489067400
C            9.78768315811043      -25.80985588676789        6.87360198947781
H           10.38872496506480      -25.48227261676010        6.02401605507632
H           10.26008869179248      -25.45445237517288        7.78387665463892
H            8.81523309780444      -25.33107512036885        6.80547592216942
C            7.81399331205281      -27.72641627644941        5.13522057178068
H            7.30835598855270      -28.55659487358543        4.65574348320301
C            7.43582432494673      -26.50336881159376        4.76566189942831
H            7.86279736097980      -25.61218137880887        5.17930770035326
H            6.66599064300233      -26.34719095856346        4.02789012210390
C            6.54470498852881      -32.83846327172424        5.14857236501796
H            6.97760803772388      -32.57814767288721        4.18067382312836
H            5.81624990730566      -32.06192958016128        5.39326135591073
H            6.00977557654222      -33.77731332185459        5.03312115711480
C            7.27800583936885      -35.36111752906379        7.02402767922078
H            7.76516554277936      -36.04246479342498        6.32271088055322
H            6.22577881708077      -35.30299489159241        6.75265795113724
H            7.33989705461095      -35.81388993597169        8.01321095051190
C           14.56328988019276      -31.41983759739162        4.57819720773792
H           14.48520490155071      -32.26462178311816        3.89537422070726
H           15.61025215242790      -31.29761179251013        4.85060703646228
H           14.22924922153178      -30.52598453644647        4.06427093902898
N           13.94777936274444      -32.70454052610131        6.62815760557259
H           14.66926848686208      -33.39930928806181        6.52069831021305
C           13.72671839346879      -31.65053469297393        5.78300646329950
C           13.01811787075884      -32.65166875305805        7.60651726229967
H           12.96545343613729      -33.35781791017344        8.40815806656010
N           12.21766552793016      -31.62706041850410        7.43515453488401
C           12.64696457767255      -30.99354289003453        6.30494507315141
H           12.14858679166204      -30.11560867634517        5.95118860143462
O            8.88446787619034      -30.46773854165995        9.83863642208428
H            8.51141406446044      -29.65019841362932        9.49682639555927
H            8.39854254423528      -30.93738104652423       10.51786849291743
78
 energy: -116.045131086387 gnorm: 0.033205834596 xtb: 6.7.1 (edcfbbe)
Fe          10.58971387212360      -31.09335985709478        8.64985827225084
N           11.02224342285906      -32.65016487124919        9.85488657978345
N           11.79157324628413      -29.90341939980671        9.75774631917920
N           10.03065506070307      -29.48323345252839        7.52276417081494
N            9.29874906665465      -32.25493806837731        7.61677337123646
C           10.57362945985911      -33.92715781171159        9.72195933775887
C           11.22112195618756      -34.79263701867507       10.68745264630660
C           12.05401044513930      -33.99725304086847       11.41775944765937
C           11.91766594487022      -32.66022491590701       10.87861789706747
C           12.54908496958961      -30.27570912881311       10.82320536455405
C           13.27021626098897      -29.14314185224866       11.35875965413345
C           12.92551381482479      -28.06477731084961       10.58539602213538
C           12.00103611334936      -28.57508098005563        9.58137198661549
C           10.41282244073244      -28.19188802912184        7.72308285953291
C            9.66426956490138      -27.30006595867676        6.87227205995940
C            8.82854951515816      -28.09185557875769        6.11241900345045
C            9.09197775845736      -29.46068452171059        6.54115773915626
C            8.48737829372722      -31.86081666279897        6.60135038131829
C            7.61620715856994      -32.94473418353073        6.19780592104865
C            7.91982958628451      -33.99934590555069        6.99524589892198
C            8.99205627766197      -33.55647631015096        7.86201238198349
C            9.61924127544016      -34.34950628267523        8.81158160301634
H            9.33004769213470      -35.38947653167471        8.85751297855965
C           12.61733567122086      -31.55953553563288       11.34376545782488
H           13.26818507506653      -31.71852476795238       12.19135836661186
C           11.37189474993034      -27.77995989505812        8.64127241317970
H           11.63346851149281      -26.73168280393630        8.64362890626772
C            8.43463677216264      -30.58337056427526        6.06064325574095
H            7.76961027992505      -30.44298675242749        5.21641509049034
C           12.95584255845938      -34.39398597498015       12.53504013869449
H           12.87465555445823      -35.46036242456144       12.72878198054195
H           12.69998559188071      -33.86435638520357       13.45111371278879
H           13.99458179499522      -34.16684801073254       12.29597759993528
C           11.00392256157151      -36.26045515871136       10.82724995632333
H           10.75727370470808      -36.71269755387226        9.87044049646695
H           10.18981694039959      -36.46931363082459       11.52173795129687
H           11.89993783755559      -36.74510298036794       11.20902353221653
C           14.23071963108764      -29.20058792864126       12.49363673783907
H           14.83334659776256      -30.10527787064335       12.44333833940375
H           13.70481880047873      -29.20109182082887       13.44886584920610
H           14.89492788621480      -28.34054164333979       12.47023006244135
C           13.34906939478890      -26.68992366674492       10.70108117892097
H           13.43131449776754      -26.14036782293931        9.77026452004339
C           13.62113564167871      -26.05403119322593       11.83702251498578
H           13.50867502047315      -26.52127937778952       12.79932242107130
H           13.93632008443939      -25.02428830693798       11.84709413899954
C            9.79923336465027      -25.81720964907086        6.88681423290304
H           10.37938093318424      -25.47949668310605        6.02593930800074
H           10.29439184892960      -25.47551378571726        7.79080726182855
H            8.82486824686494      -25.33577084773567        6.85178777354659
C            7.83118140953300      -27.73538672421241        5.13836723879064
H            7.32847308222405      -28.57757490318606        4.67735326566077
C            7.44364902912108      -26.51989023871737        4.74949646025430
H            7.87099182565979      -25.60999072808501        5.12706349171111
H            6.66270823923508      -26.38755937930180        4.01968534681514
C            6.56122298994865      -32.83950484303397        5.14924162418485
H            6.99877861101776      -32.58144693675781        4.18533994775621
H            5.83873612419328      -32.06439531415133        5.40722181261562
H            6.02884625796027      -33.78009822715615        5.04104010962436
C            7.28658020096223      -35.35050711113540        7.02202349324508
H            7.78134436320425      -36.02583058039355        6.32246657442830
H            6.23717460583046      -35.28790907402671        6.74325246063746
H            7.34571124812869      -35.79008565508706        8.01479105929021
C           14.55633788438832      -31.41508815600599        4.57999836672516
H           14.48470742551994      -32.25767947527993        3.89319373594602
H           15.60273992815858      -31.29134333455545        4.85444235051158
H           14.22358606299035      -30.52041228395455        4.06691339951881
N           13.94147970097646      -32.70142570198696        6.62826520400163
H           14.66667559528917      -33.39331254867153        6.52445854940894
C           13.71655282820323      -31.64859329660149        5.78244513082362
C           13.00817564406252      -32.64869645052521        7.60535165049244
H           12.95540499124060      -33.35510104872220        8.40569290046952
N           12.20490111202911      -31.62694963739018        7.43532848950454
C           12.63568474804130      -30.99439714385350        6.30599675000864
H           12.14053160876644      -30.11542679470631        5.95178001066155
O            8.92488533717036      -30.42881387986027        9.92665267034835
H            8.44162456598168      -29.67775696967845        9.51817038716193
H            8.35537183151589      -30.95431285487290       10.52132242538907
78
 energy: -116.047287581241 gnorm: 0.024185068258 xtb: 6.7.1 (edcfbbe)
Fe          10.58766347601077      -31.08852985307487        8.65758923463160
N           11.02534898167004      -32.64716068480254        9.84642175721670
N           11.80302048119714      -29.91568052935527        9.73976545296564
N           10.03212630376300      -29.48872422909286        7.52922966996069
N            9.29618660740951      -32.24239841274759        7.63431063001716
C           10.57606206730817      -33.92271324823259        9.71726553363370
C           11.22089933290183      -34.78748759287128       10.68000663921621
C           12.05298512046364      -33.99264804439412       11.40825385834892
C           11.92066123164735      -32.65919281471184       10.86797426300613
C           12.55395233876422      -30.28583127054934       10.80896160016228
C           13.26489016274914      -29.15521946196992       11.35203961599718
C           12.92061779139505      -28.07838510461863       10.57979282164154
C           12.00568237554462      -28.58666801984720        9.57141961258520
C           10.41935166381725      -28.19846171204740        7.72550087488699
C            9.68099086997675      -27.30649918580936        6.87388399648013
C            8.84675949584580      -28.09543768648365        6.11234831626501
C            9.09760724143558      -29.46209024602452        6.54707993122694
C            8.49286368394641      -31.84779285363477        6.61229689814501
C            7.63097832649287      -32.93395316079892        6.19547428165843
C            7.93568006703424      -33.99580186599801        6.99929610557263
C            8.99898534279955      -33.54766110696054        7.87337340130482
C            9.61788744903842      -34.34480082085877        8.81450946277372
H            9.31843972325693      -35.38128498236438        8.85920961719012
C           12.62277474564469      -31.56421031441915       11.33394211796449
H           13.26887028777577      -31.71964645520828       12.18500385914130
C           11.37332073233308      -27.78631285662778        8.64293083779588
H           11.61988431659626      -26.73474797337750        8.65991786751598
C            8.42442010397477      -30.57688855026860        6.07671828654938
H            7.73219668308649      -30.44079514230894        5.25531512701385
C           12.95209495619714      -34.37768378463402       12.53147895727317
H           12.87387901688420      -35.44372898249073       12.73270768779239
H           12.68768569420948      -33.83881483838415       13.44131928053723
H           13.99088952159628      -34.14451007457452       12.29335210039711
C           10.99721903398581      -36.25465105186194       10.82152420203153
H           10.75588006572124      -36.70924774473462        9.86291733552731
H           10.17572500986489      -36.45683122032405       11.51117507612688
H           11.89036356331676      -36.73982130292834       11.21270839082978
C           14.22469750342394      -29.20795171367667       12.48766646819726
H           14.82828085265071      -30.11356261874134       12.43960937326456
H           13.69821691934496      -29.20406576052795       13.44371078543327
H           14.88704847477912      -28.34486256016536       12.45855977887521
C           13.34172116786881      -26.70261026302586       10.69345976869464
H           13.42680142533498      -26.16242489839179        9.75734107364227
C           13.61295074749297      -26.06518471327151       11.82871141692138
H           13.49644451357451      -26.52844678134294       12.79347743204977
H           13.94010321184943      -25.03891119211779       11.83419034919849
C            9.80870545230463      -25.82363873223002        6.89512634177633
H           10.36087411784985      -25.47275107385205        6.01918608240980
H           10.33325848125201      -25.49199608316131        7.78915686480722
H            8.82745796579460      -25.34870772791107        6.89540822793480
C            7.84911747084111      -27.74527996410368        5.13594339397919
H            7.33918501019362      -28.59601783318713        4.69766601905298
C            7.46344857624943      -26.53671103588240        4.72535603013240
H            7.89266053405418      -25.61370013583380        5.07484688054825
H            6.66898125114962      -26.42877997464081        4.00410782342586
C            6.58132845808390      -32.83897224373057        5.14623092218598
H            7.02252978418512      -32.58301761283838        4.18443514290327
H            5.85864754835488      -32.06672467958767        5.40957028471187
H            6.05444671229832      -33.78411394140780        5.04330078401262
C            7.30110488415083      -35.34224667848476        7.01710720551342
H            7.80508568179978      -36.01493863598795        6.32196502622898
H            6.25459390267700      -35.27514867329715        6.72547983334797
H            7.35052382821008      -35.77308718144189        8.01341652063137
C           14.54730133408358      -31.40438423332433        4.58287547610383
H           14.48229877522198      -32.24592706432346        3.89192003364665
H           15.59333430940480      -31.27861287307012        4.86311541164452
H           14.21424294336262      -30.50794878870201        4.07011597617902