72
 energy: -105.376963679294 gnorm: 0.285113172258 xtb: 6.7.1 (edcfbbe)
Fe          36.71899999999999       13.08400000000000       86.94600000000000
N           34.82099999999999       13.14300000000000       87.42400000000001
N           37.12400000000000       12.42700000000000       88.74400000000000
N           38.61199999999999       13.07000000000000       86.47799999999999
N           36.33200000000000       13.89700000000000       85.22400000000000
C           33.75200000000000       13.59500000000000       86.65899999999999
C           32.47300000000000       13.49400000000000       87.38199999999999
C           32.79300000000000       13.04600000000000       88.61600000000000
C           34.24000000000000       12.82200000000000       88.63199999999999
C           36.27799999999999       12.21800000000000       89.79399999999998
C           36.96600000000000       11.63000000000000       90.93200000000000
C           38.26100000000000       11.50700000000000       90.58400000000000
C           38.34100000000000       11.97900000000000       89.22699999999999
C           39.65000000000000       12.51700000000000       87.19399999999999
C           40.91900000000000       12.59800000000000       86.48000000000000
C           40.65600000000000       13.26100000000000       85.33300000000000
C           39.22800000000000       13.54200000000000       85.34199999999998
C           37.21300000000000       14.25200000000000       84.22499999999999
C           36.53700000000000       14.81800000000000       83.07700000000000
C           35.23300000000000       14.80300000000000       83.36699999999999
C           35.10000000000000       14.27800000000000       84.71999999999998
C           33.88700000000000       14.18600000000000       85.41200000000001
H           32.99600000000000       14.60300000000000       84.94300000000000
C           34.92400000000000       12.43500000000000       89.73800000000000
H           34.35299999999999       12.28500000000000       90.65400000000000
C           39.51400000000000       12.00400000000000       88.48399999999999
H           40.40700000000000       11.58600000000000       88.94999999999999
C           38.57100000000000       14.12100000000000       84.30300000000000
H           39.16700000000000       14.50700000000000       83.47600000000000
C           31.80600000000000       12.83700000000000       89.75699999999999
H           31.54600000000000       11.75900000000000       89.83000000000000
H           30.88000000000000       13.41900000000000       89.56300000000000
H           32.26500000000000       13.16200000000000       90.71500000000000
C           31.05800000000000       13.68000000000000       86.86799999999999
H           31.07200000000000       13.74400000000000       85.75900000000000
H           30.63000000000000       14.62000000000000       87.27800000000001
H           30.43200000000000       12.81400000000000       87.17100000000001
C           36.32599999999999       11.23600000000000       92.26899999999999
H           35.97500000000000       10.18300000000000       92.21599999999999
H           35.45700000000000       11.89600000000000       92.47799999999999
H           37.07500000000000       11.32600000000000       93.08499999999998
C           39.35500000000000       11.13000000000000       91.35799999999999
H           40.26900000000000       11.71900000000000       91.21200000000000
C           39.49099999999999       10.07600000000000       92.33700000000000
H           38.64100000000000        9.41700000000000       92.56999999999999
H           40.44599999999999        9.92000000000000       92.86099999999999
C           42.22900000000000       12.03200000000000       86.97599999999998
H           42.08200000000000       10.97600000000000       87.28799999999998
H           42.58500000000000       12.62000000000000       87.84899999999999
H           42.98399999999999       12.06500000000000       86.16200000000001
C           41.54299999999999       13.72400000000000       84.35700000000000
H           41.57200000000000       14.80500000000000       84.15800000000000
C           42.44400000000000       12.91100000000000       83.56699999999999
H           42.47700000000000       11.82000000000000       83.70399999999999
H           43.10500000000000       13.37500000000000       82.82100000000000
C           37.14099999999999       15.32900000000000       81.76599999999999
H           38.07000000000000       14.76300000000000       81.54000000000001
H           37.39099999999999       16.40700000000000       81.86299999999999
H           36.41700000000000       15.18000000000000       80.93600000000001
C           34.11799999999999       15.19200000000000       82.39300000000000
H           34.15200000000000       14.52600000000000       81.50500000000000
H           34.25899999999999       16.24300000000000       82.06100000000001
H           33.13000000000000       15.08000000000000       82.88900000000000
O           36.73000000000000       15.02000000000000       87.72900000000000
H           35.83300000000000       15.19400000000000       88.01400000000000
H           37.41900000000000       15.57800000000000       87.79099999999998
C           35.17200000000000       10.34100000000000       86.06399999999998
H           35.21500000000000        9.24200000000000       85.90999999999998
H           34.66499999999999       10.79100000000000       85.18399999999998
H           34.56300000000000       10.53600000000000       86.97299999999998
S           36.84199999999999       11.04900000000000       86.26000000000001
H           37.05800000000000       10.50800000000000       87.45000000000000
72
 energy: -105.436429784861 gnorm: 0.116367563236 xtb: 6.7.1 (edcfbbe)
Fe          36.72019885529242       13.09444418164565       86.94760419552441
N           34.78960499004921       13.14288866905660       87.42437366710553
N           37.13749464955505       12.41617359729690       88.76567526490633
N           38.64161099057822       13.08212175820103       86.48488474172437
N           36.31851484051138       13.90108477611954       85.19548057830656
C           33.73641452995142       13.59511589944586       86.65203882747305
C           32.47500176454447       13.48384060095487       87.36815960274335
C           32.78921183629873       13.04404423950271       88.62086178539731
C           34.22156486195298       12.83682414574208       88.64097500683128
C           36.27662682162551       12.20385813994891       89.81312552909620
C           36.94532042641409       11.62132714739928       90.94296947008409
C           38.27069073889206       11.49608913643698       90.58999247685499
C           38.36074719513843       11.98662711989106       89.23273177806196
C           39.66345352838665       12.50399991506475       87.20044250865080
C           40.91670952393657       12.57483222859417       86.49276780132868
C           40.66194978284155       13.25668411850169       85.32819673800959
C           39.24342620774554       13.55480998441877       85.34724073166241
C           37.20912143235065       14.26427816864158       84.21122399816782
C           36.53651375381153       14.81925551474054       83.06592493206607
C           35.20886209007946       14.80233421493281       83.36232678326155
C           35.08324641006150       14.27173541319907       84.70336089924459
C           33.88032687405953       14.17651584218520       85.40013005707831
H           32.99750719984859       14.59522786233454       84.93920938222466
C           34.91230144836332       12.43528142050577       89.75936047016152
H           34.34435447204743       12.27319136449895       90.66221926859369
C           39.52879998473898       11.99367476374842       88.48822596599378
H           40.41418320714532       11.58742756064334       88.95383235517632
C           38.57999250565628       14.13503836708174       84.29244876430975
H           39.17118332770264       14.50159249830038       83.46572090401833
C           31.82204303312764       12.83372124715948       89.75090802639740
H           31.55286601173057       11.77345696987053       89.83306308430475
H           30.90652247494278       13.40545619919638       89.56711647478610
H           32.25568486614085       13.15610374545766       90.70293120053637
C           31.07883074419333       13.68566323502910       86.85701295960935
H           31.06753542344541       13.74732324579629       85.76596962063276
H           30.63996015758056       14.60392178827270       87.26734963368888
H           30.45131923428385       12.83931147067384       87.16303589056672
C           36.32238480249857       11.24249515844930       92.25686726646904
H           35.97695997278655       10.20213983712016       92.21719155528821
H           35.46758581860517       11.88630446631761       92.48111465659569
H           37.06108560418490       11.32709562894990       93.06195238007427
C           39.38080192052401       11.10592138822758       91.38035077007319
H           40.28481097722448       11.68929886002768       91.21318797201580
C           39.47794323887523       10.11171080186681       92.32001894745919
H           38.65435929881767        9.44235862938257       92.54592169095599
H           40.41521834755066        9.93882817354857       92.83790088775324
C           42.21921424184812       12.02938457046089       86.97863708962473
H           42.09017294974527       10.98702485586418       87.28847345502083
H           42.58197348665849       12.60727044844275       87.83707751883900
H           42.96789589550643       12.07113866056693       86.18069972154419
C           41.57113365802756       13.70858141214464       84.32567456766826
H           41.57370387386582       14.78131436256477       84.12625321216410
C           42.42978220727405       12.93343044325719       83.59882327601923
H           42.45825964869199       11.85417567267208       83.71082257580807
H           43.07990004667963       13.37416041465664       82.85148679374397
C           37.14529385732212       15.31709071080895       81.78208462405064
H           38.06217583706505       14.77066549897704       81.54208953743853
H           37.38598796841138       16.38414945344231       81.86313889094721
H           36.43393207954347       15.18407571457235       80.95996586032567
C           34.11347737391957       15.18990344890251       82.40973843007819
H           34.15014022116470       14.53926999386842       81.52708015454908
H           34.25263454658226       16.22332288961300       82.07270473017421
H           33.13285771682089       15.08684671137169       82.87775808198370
O           36.72311191106117       15.02206865242731       87.73497352415129
H           35.83372186516527       15.22615509529986       88.02645657483349
H           37.44105834322778       15.62437640046069       87.80484930212583
C           35.14981115689287       10.32659948969343       86.06620358004865
H           35.21802913457411        9.24655174839917       85.90924859649242
H           34.67586100433882       10.78942896276366       85.19589945678453
H           34.56425950690549       10.53756875664176       86.96504125837947
S           36.82450427636975       11.01093226995927       86.23210364096930
H           37.05726101624608       10.48608386778908       87.43631804497078
72
 energy: -105.454203643458 gnorm: 0.054317121971 xtb: 6.7.1 (edcfbbe)
Fe          36.72434543570466       13.10705233762911       86.95006256217755
N           34.76183669249882       13.14717499682053       87.42974289279860
N           37.14898942941053       12.40502887066059       88.78768933471551
N           38.67182323178209       13.10019528471484       86.49258489687558
N           36.30919979263631       13.90796180854866       85.16929229592633
C           33.72160039690447       13.58768740772051       86.64784637397580
C           32.47626616585646       13.47544949714689       87.35646821450379
C           32.78690120241944       13.04525642634516       88.62601900735311
C           34.20621466517935       12.84954630122520       88.65189589604580
C           36.27601488920681       12.18682681500056       89.82936979317081
C           36.93520261001846       11.61655599484950       90.95072000391350
C           38.27833201386444       11.49591066168504       90.59410175437075
C           38.37336551880279       11.99022127159900       89.24039047075961
C           39.67830962409851       12.49868387954652       87.20570426414380
C           40.91701023306018       12.56204664943566       86.50084794688379
C           40.66560342853277       13.26322392105172       85.33163490627528
C           39.25853494815479       13.56945489734159       85.35298807832450
C           37.20647039753064       14.27437507279288       84.19921178952913
C           36.53507851116265       14.81741305283856       83.05859005810053
C           35.18892238976206       14.79731933961709       83.35804858655520
C           35.07032407711630       14.26024592227348       84.68357457211536
C           33.87241468596954       14.15201124286826       85.38402766547092
H           32.99239384850441       14.57102346754146       84.92754451110213
C           34.90284104184683       12.43090992554665       89.77492890009387
H           34.33410314726331       12.25483648421254       90.66906653168098
C           39.54226993801375       11.98409689942536       88.49321218744268
H           40.42540471394796       11.58643619069328       88.95989457964137
C           38.58824952073328       14.14729289364600       84.28661936225477
H           39.17710036206879       14.49256092484119       83.45498902923283
C           31.83397304623933       12.83138106147340       89.74610616011898
H           31.56466205593268       11.77892507687265       89.83294802200712
H           30.92310401564806       13.39651880308684       89.56871401128707
H           32.25746587772562       13.15142284530350       90.69389579787877
C           31.09667852252722       13.69157267648031       86.84321816896417
H           31.07331766718352       13.75511865543122       85.76180826600259
H           30.65919659688460       14.60034253927090       87.25655603282702
H           30.46544944000338       12.85836867309294       87.15222722903496
C           36.32238445494849       11.24601949324978       92.24758853771921
H           35.97502914939504       10.21281108914731       92.21999008981672
H           35.47479677879360       11.88169166176715       92.48294691937951
H           37.05687940298368       11.32875314500433       93.04512415603611
C           39.40334668699202       11.09321360129865       91.39205767513323
H           40.30235354809727       11.66970482043496       91.20054885871474
C           39.46919199577012       10.12974464438347       92.29383504168334
H           38.65179552866124        9.47074154371821       92.52805942719340
H           40.38442311576772        9.95337833923462       92.83312886418055
C           42.21370273168507       12.02520933718723       86.97913347087179
H           42.10188118014020       10.98888555722241       87.28990450741840
H           42.57701938452470       12.59757378996956       87.83197187844779
H           42.95792742669203       12.07950106725609       86.19052167295683
C           41.58794089703212       13.70093101030705       84.30364222524916
H           41.56446223469690       14.76906564711723       84.10612891127427
C           42.40462799851058       12.94417252809568       83.61021844075157
H           42.45152350921154       11.87486354072043       83.72891743661583
H           43.07102618357920       13.36728220816094       82.87823285935751
C           37.14568254692867       15.30690660366942       81.79640186644205
H           38.05767204922356       14.77081549059941       81.55441886357431
H           37.38413012894672       16.36816362589127       81.87148204343335
H           36.44357821370573       15.18484096334557       80.97534751482517
C           34.10537904928798       15.18843842770478       82.42442777258117
H           34.14188143277676       14.54896195439576       81.54161135870923
H           34.24520781224421       16.21367840386957       82.08693033694588
H           33.12584858799283       15.09366120954175       82.87464724488829
O           36.73026893918065       15.05060341167776       87.75327334945705
H           35.85218591016563       15.30409047353912       88.05151672291991
H           37.44585659993978       15.68264661156197       87.82543217382252
C           35.12751827190823       10.30600478142703       86.06312881945209
H           35.19769942262932        9.23626170956635       85.90668053707243
H           34.67314738057434       10.78153715609810       85.20112170657787
H           34.56153934707577       10.53570394157918       86.95769701912425
S           36.81590922376186       10.96090897877944       86.19790902951307
H           37.06421274198121       10.44578446384874       87.41048251430645
72
 energy: -105.471107560877 gnorm: 0.075427776942 xtb: 6.7.1 (edcfbbe)
Fe          36.72737225994282       13.10870885541213       86.94799337733777
N           34.74029263284544       13.15309060760146       87.43593495071251
N           37.15710715197866       12.39593829411206       88.80625233398494
N           38.69766123033521       13.11699316774131       86.50018202997470
N           36.30208730001505       13.91695466750067       85.14975036783007
C           33.71057071599761       13.57874916779654       86.64564437207453
C           32.47434498655532       13.46831699016684       87.34921244953074
C           32.78254518770184       13.04634041793736       88.62915614473145
C           34.19570931313255       12.85977590157153       88.66187401174551
C           36.27650190620103       12.17416948616863       89.84029947328990
C           36.93409399424636       11.61486123002075       90.95583597474146
C           38.28766394391089       11.50124605227871       90.59410684267034
C           38.38208161533341       11.99387913598833       89.24660393887130
C           39.69151497582849       12.50160797596460       87.21109968364961
C           40.92151531783898       12.55869184133499       86.50381790084052
C           40.66895806306783       13.27574340298610       85.33754068899772
C           39.26994616911621       13.58445951930750       85.35814158810642
C           37.20314306639869       14.28427716346296       84.19220254995992
C           36.53197482801563       14.81506012678298       83.05468614589819
C           35.17229208890660       14.79020569282913       83.35459730772060
C           35.05931377383371       14.24777131892760       84.66673587138327
C           33.86484223743437       14.12070934757958       85.36958476262021
H           32.98307500516232       14.53179017786962       84.91142981859983
C           34.89633073762138       12.42610137225349       89.78191176024816
H           34.32489580789984       12.23303075000710       90.67073407570021
C           39.55258966959519       11.98248261702857       88.49638467522259
H           40.43546992023118       11.58650248816466       88.96305747223259
C           38.59327127213968       14.15675029014394       84.28718719198862
H           39.18144850377710       14.48079413256152       83.44710177386318
C           31.83916239073172       12.82878965570957       89.74489237681595
H           31.57433610394035       11.77828315856143       89.83401840167549
H           30.92841058377416       13.38851700700086       89.57273440480606
H           32.26010608879418       13.14789369425846       90.69056709569050
C           31.10696500828503       13.69848171668732       86.83033806238259
H           31.08059327303518       13.76519475859917       85.75262299835543
H           30.67617253008706       14.60559853329349       87.24582639146897
H           30.46876755337925       12.87477830599851       87.13832535799008
C           36.32513643274174       11.24841898035317       92.24554462284907
H           35.97278954928732       10.21911368556660       92.22437376981678
H           35.48077290452397       11.88171041045681       92.48808765528138
H           37.05871573397128       11.32929601023513       93.03890102618143
C           39.42566547593326       11.09344418360280       91.39295310902391
H           40.32554843530306       11.65866260558622       91.18308915107922
C           39.45561382463438       10.14513574602773       92.30050217520576
H           38.63635798190617        9.48915711224787       92.51725612197883
H           40.36190720037844        9.94275302924515       92.84028743530794
C           42.21474588640985       12.02327391032686       86.97788748242924
H           42.11444728367530       10.98801881016156       87.28740446418914
H           42.57497421434105       12.59124116950700       87.83175428576251
H           42.95805179148120       12.08897423394371       86.19514290120055
C           41.59582570193112       13.70848630082163       84.29369045860399
H           41.54729452350698       14.77204523850525       84.08800579484402
C           42.41846900899314       12.94318576282055       83.62775318871614
H           42.45134438365223       11.87655531097836       83.74217024117182
H           43.07115139632474       13.34798037512143       82.87753103630290
C           37.14601209170148       15.29992323366310       81.80506131368895
H           38.05757599639275       14.76849326164934       81.56480981737697
H           37.38462103502864       16.35868765417356       81.87971051429975
H           36.45067823806609       15.18544448055759       80.98161710625769
C           34.09351272797684       15.18899294442782       82.43332865185523
H           34.12692470215389       14.55771274833831       81.54764164076325
H           34.23608494397408       16.21204753199265       82.09930799194285
H           33.11233674440972       15.10068046797841       82.87451283737576
O           36.74353793490302       15.12883798732756       87.79829470422756
H           35.87647146428935       15.43332927953013       88.09306323936082
H           37.44816979034719       15.78961331507465       87.86564357701097
C           35.10129247132512       10.26697830007341       86.05166285384142
H           35.14019814949511        9.19985393177154       85.90287693358587
H           34.66243591911578       10.76307066909079       85.19706149168395
H           34.56517396904728       10.53578221107851       86.95255844339179
S           36.82841904882801       10.84302188290593       86.12992647909608
H           37.07161583685947       10.38053820324931       87.36920286058402
72
 energy: -105.484886635995 gnorm: 0.068457596526 xtb: 6.7.1 (edcfbbe)
Fe          36.72939824910517       13.10952417764139       86.94445766863929
N           34.72398110187736       13.16489226049732       87.44358906502083
N           37.16144226406652       12.37862252499483       88.81957866858839
N           38.72058126516634       13.12957304104700       86.50623071612539
N           36.29625107637865       13.92738904002897       85.13349452914503
C           33.70311534185633       13.57213993011048       86.64491531390371
C           32.46837577026523       13.46205163867372       87.34593271724624
C           32.77552882945987       13.04789783560055       88.63023330822537
C           34.18970285136967       12.86855839241792       88.67052619272363
C           36.27793679980653       12.16063273452473       89.84557899239704
C           36.93955198322818       11.61156739464159       90.96043625993160
C           38.29838123212254       11.50672906512503       90.59322262467839
C           38.38841567596837       11.99567655897988       89.25282554600585
C           39.70344462183994       12.50919195586441       87.21619866009142
C           40.93076351105238       12.55820061935252       86.49932431393258
C           40.67426163424852       13.28663798122133       85.34133452756049
C           39.27874966138134       13.59832965820243       85.36161151155821
C           37.19883464205275       14.29474198787437       84.18810144783252
C           36.52794187893207       14.81374258412415       83.05104739389996
C           35.15907718728553       14.78358796954939       83.34976130985589
C           35.05018153068774       14.23842404037865       84.65269358336040
C           33.85961507337385       14.08963884571181       85.35883108198824
H           32.97242159595500       14.48521944927575       84.89353525138962
C           34.89305802798497       12.41952704353895       89.78035984320751
H           34.31891992763381       12.21116324675793       90.66726263835596
C           39.56048839508735       11.98796379247849       88.49817649279905
H           40.44402096578190       11.58744038702202       88.96355979360175
C           38.59548194712483       14.16277782487002       84.29255718197184
H           39.18371184218834       14.46773645345918       83.44294445260405
C           31.83785433445192       12.82644461071576       89.74631968034190
H           31.58078301301243       11.77368303233708       89.83590157713674
H           30.92383517143379       13.38159277513750       89.57908411618426
H           32.26263056134155       13.14579211932361       90.69086221856267
C           31.10899128927334       13.70468201888055       86.82033464490357
H           31.08741493030128       13.77546909917938       85.74217054856689
H           30.68852125852811       14.61602227953279       87.23686460809574
H           30.46138158415858       12.88774685872489       87.12384805449925
C           36.32998162504074       11.24845373038372       92.25043201150800
H           35.97016925035590       10.22113371764815       92.23079786225767
H           35.48689739350252       11.88532154519512       92.49384688181459
H           37.06488904570220       11.32788999580875       93.04207627080430
C           39.44744920253846       11.09593383884192       91.38579476937851
H           40.35040019841785       11.64842161105654       91.16990437207500
C           39.44721894322054       10.14534775237510       92.30581037190390
H           38.60838665524154        9.51460132771282       92.51666152550203
H           40.34208335755709        9.93096500619907       92.85936823120981
C           42.22192401658008       12.02183760162177       86.97401483619073
H           42.12717945765377       10.98477303664581       87.28078789426691
H           42.57407224829682       12.58730567520282       87.83402040423377
H           42.96751402208479       12.09778874112367       86.19539689154436
C           41.59501057963892       13.71949235705510       84.28493823871163
H           41.53285651809485       14.77690259352390       84.06800646796515
C           42.42493784435439       12.93465114689506       83.62705678986691
H           42.46349179367914       11.87330391984732       83.77293856110936
H           43.08366355701062       13.33081979974041       82.87890472051268
C           37.14594483378026       15.29752587177515       81.80639566234503
H           38.05923203528871       14.76491093709836       81.57162894617569
H           37.38777501624006       16.35583957187832       81.88506167750289
H           36.45557248294681       15.18747958490354       80.97847753704762
C           34.08075925491862       15.19140614660450       82.43457623014270
H           34.10859457999380       14.56526453654634       81.54499379707009
H           34.22744882497648       16.21648274219179       82.10714595650700
H           33.09777353379867       15.10762783981120       82.87562867569426
O           36.75771089408920       15.24167692093162       87.86092279740818
H           35.90563355205915       15.59367660809156       88.14627997631669
H           37.43963900017103       15.93329349159593       87.92372012667052
C           35.07621488612478       10.21944427081371       86.03464526835724
H           35.05340250243606        9.14965981315323       85.89870751938609
H           34.65091955674229       10.74205326899709       85.18789805336530
H           34.58253654369758       10.53957256635007       86.94873713400338
S           36.86316603434240       10.66058389708659       86.04606533790358
H           37.08150373364089       10.30054730749747       87.33165166831647
72
 energy: -105.491944676240 gnorm: 0.040713845542 xtb: 6.7.1 (edcfbbe)
Fe          36.73381875533093       13.14001828391392       86.95861562568206
N           34.73137728047502       13.17042738451378       87.44749475927233
N           37.16133111308575       12.37658724478846       88.81774083941497
N           38.72013841689380       13.14094444108900       86.51209795855307
N           36.29828124412083       13.93248027208813       85.14125910516935
C           33.70612575840787       13.56480366109763       86.64475011916716
C           32.46351979977599       13.45765584694179       87.34940099945749
C           32.77123511084164       13.04606837217897       88.62821253870673
C           34.19380657245557       12.86433800162236       88.67123322185252
C           36.28026465074175       12.15536196826782       89.84207078058915
C           36.94685240589199       11.60943011511195       90.96083912361378
C           38.30345372717057       11.50923985315739       90.59500463212422
C           38.38998466177284       11.99551655180985       89.25481155165457
C           39.70539311410674       12.51991739415854       87.21762792872472
C           40.93914949422195       12.56730093626428       86.49287495072318
C           40.68108123365178       13.28850383373451       85.34018632102074
C           39.27870917213597       13.60330153607833       85.36078423856269
C           37.19727167237630       14.29528685781262       84.19061084659469
C           36.52570340040455       14.81102453929791       83.05099303315542