69
 energy: -103.647389470791 gnorm: 0.000053731745 xtb: 6.7.1 (edcfbbe)
Fe         -17.92231927758363        6.40147170750689       76.21252919697901
N          -19.25940693436707        7.76176422789967       76.76154210118530
N          -19.37074967659374        5.12305775779808       75.74598818764034
N          -16.53659974257401        5.03610469526530       75.65982244229168
N          -16.43477216931067        7.68467083713211       76.67875417204431
C          -19.01943146550459        9.01115003645670       77.23581837058644
C          -20.26130619337588        9.69688559641263       77.52836654031387
C          -21.25700025639352        8.82637558335835       77.21995487253069
C          -20.60932210199778        7.62250505984649       76.74063268361678
C          -20.70665526075069        5.33932427177213       75.85529519363648
C          -21.45292006443551        4.18006992539371       75.43052509785637
C          -20.52799905224829        3.24243732265917       75.06118576749692
C          -19.23051774539811        3.86312138547589       75.26022419814620
C          -16.77744733099643        3.77854601336096       75.18821023280562
C          -15.54444965516554        3.09247682449254       74.91059271096704
C          -14.53542722909412        3.96526894225821       75.22813828047529
C          -15.18221494528311        5.17611049781892       75.68705575800188
C          -15.09273728320256        7.46420172356261       76.57668414302680
C          -14.35190845785930        8.62435237963740       77.01346893301834
C          -15.27655065017126        9.55356799826731       77.38134234138538
C          -16.57010520996086        8.94923849401530       77.16678787198077
C          -17.77342585147542        9.57661125911049       77.42741828883715
H          -17.73486009225955       10.58319301310748       77.81347297440215
C          -21.29387026663226        6.50129947046495       76.32160350489158
H          -22.37144646375407        6.53176484244208       76.36670759773538
C          -18.03288673865708        3.22487564970203       75.00803854319945
H          -18.07567160589427        2.20879487762547       74.64821207206187
C          -14.50280710436129        6.30009067961418       76.12101198921117
H          -13.42487494921551        6.26663186252116       76.10676617871638
C          -22.73257404472685        9.00105115615768       77.32400336007767
H          -22.97910303701497        9.98413448976697       77.71715850027185
H          -23.16038777209031        8.24877562452342       77.98660151032136
H          -23.19985420822763        8.89565519335347       76.34483357135380
C          -20.34856946727907       11.08524373237020       78.06192220688349
H          -19.87529661463963       11.78941461586806       77.37738033218092
H          -19.84380899435710       11.15812490224210       79.02545493305600
H          -21.38545483560458       11.38275415617361       78.19560398832728
C          -22.93696556534958        4.09653332648512       75.35904724898484
H          -23.35842460314888        5.03783019306411       75.01010006597950
H          -23.36107931134027        3.87894449109726       76.34045312459254
H          -23.23354662088683        3.30585495138109       74.67304014313963
C          -20.73382698212778        1.90797687145192       74.54178994003674
H          -20.00971262580618        1.57255449655772       73.80832534280474
C          -21.71755261657569        1.08847517392709       74.89736925936297
H          -22.43551084430645        1.35132265752944       75.65439134717043
H          -21.82165067189127        0.10973926814752       74.45931585477021
C          -15.43707816686210        1.72902739923573       74.32386333171064
H          -16.21026075417696        1.57078624304487       73.57370713283605
H          -15.55244772237886        0.96390425043346       75.09320943427090
H          -14.46404761003083        1.60044920597979       73.85426774407571
C          -13.10382534928103        3.78639739252522       75.12184188493352
H          -12.53819014239999        4.67471279921423       74.86522805544689
C          -12.45485282078447        2.64404411082757       75.32024295852457
H          -12.95955817326310        1.74321794044561       75.62284786902721
H          -11.38523138122919        2.57815969031843       75.21075548470769
C          -12.86480648127944        8.71413018030246       77.02873086253355
H          -12.46204689611430        8.58862695500691       76.02329795541861
H          -12.43945131362194        7.93538950700480       77.66216700658416
H          -12.54031130079924        9.67946859544428       77.40868973184618
C          -15.07194816521781       10.93207145750650       77.90758239601765
H          -14.01268110251135       11.16518203688713       77.98055076621154
H          -15.51506437508389       11.03323995442210       78.89842548104993
H          -15.54075105406619       11.66585987561279       77.25174265362172
O          -17.72361501289640        5.57530421995845       78.32527917981125
H          -17.24274655210216        4.75506041602735       78.16851958814252
H          -17.09943832361049        6.20009826895040       78.71091559215981
O          -17.79975792351296        7.21778111149894       74.08853869367940
H          -17.23363417189234        7.98654463769572       74.21981828348186
H          -17.26425261699145        6.54219551658889       73.65783693956094
