87
 energy: -128.467184962713 gnorm: 0.000027235106 xtb: 6.7.1 (edcfbbe)
Fe          11.78271407537318        1.69241692961842       -2.32150207910752
N           12.39727199246345        2.79886556959124       -3.87612239423147
N           13.46101380352304        2.15295536900953       -1.32745445866996
N           11.15299714326636        0.59472094624817       -0.76223741151588
N           10.11391799117957        1.21438377492330       -3.32522403910403
C           11.74885587587813        2.98291613292762       -5.05342242423376
C           12.50544095613936        3.85835512375243       -5.92328401011041
C           13.62807078043699        4.20081562877723       -5.23763382984156
C           13.54310970020375        3.52549676191084       -3.96034935511618
C           14.46807623243253        2.95844631792477       -1.75737013512685
C           15.51344880485397        3.03980197112462       -0.77114572233632
C           15.13022828843886        2.23221385160918        0.26536081127457
C           13.82764230834151        1.70697750828157       -0.09936370215940
C           11.79683056969204        0.42843352564137        0.42513462628939
C           11.01138578701657       -0.37476538341191        1.32540144027820
C            9.86402588005457       -0.70229481190181        0.64937153771327
C            9.98460161814287       -0.08720714021021       -0.65824390295336
C            9.09357218969101        0.42982915449148       -2.88848645953452
C            8.07065595845417        0.30860438473752       -3.90386332783353
C            8.50099469659987        1.04116283324189       -4.96604037639709
C            9.77827255165636        1.60123255201425       -4.58278568620017
C           10.53203391205868        2.42484380169207       -5.39753906190012
H           10.13706780834681        2.65439528326109       -6.37574609862872
C           14.51188156738135        3.61272221824814       -2.97890643259394
H           15.37452768102445        4.23042611659728       -3.18085652733218
C           13.04272741634917        0.94238620492619        0.74065228753186
H           13.42740963522316        0.74646253370386        1.72949255759589
C            9.01648954537952       -0.17139619275306       -1.64489441923654
H            8.12842191775530       -0.74630324696163       -1.42764680147330
C           14.75846051870254        5.08072965909187       -5.65115915579146
H           14.59529003926998        5.47652293359950       -6.65067719589709
H           15.69732359568524        4.52594593733912       -5.65172272392938
H           14.86356941254154        5.92042625020739       -4.96338731642615
C           12.07432256886100        4.26375476869886       -7.29141154680750
H           11.11838136829093        4.78678206056607       -7.25275994731973
H           11.95444680711277        3.38846201025177       -7.93044667717004
H           12.80719632075981        4.92382242739954       -7.74943763258629
C           16.77574859999635        3.81768225483045       -0.92187423904489
H           16.55962832328821        4.86593502056492       -1.13095083357319
H           17.37337076065179        3.42676777918621       -1.74650323874973
H           17.37158245288996        3.75957560058675       -0.01434434478423
C           15.88187446295450        1.95423701410951        1.47160842967025
H           16.42989597647939        2.79665180507983        1.88129573676688
C           15.98099576386291        0.77181947772792        2.06872442850867
H           15.50324112218217       -0.10849236283545        1.67316530509733
H           16.56607112177785        0.63836269590339        2.96389635774997
C           11.43755454896047       -0.80868624529945        2.68474404561864
H           11.23085761896092       -0.03288906574278        3.42405212877534
H           12.50642141372853       -1.01483324125612        2.70642442847882
H           10.90229202611965       -1.71091169785436        2.97479961093196
C            8.74575231096518       -1.51003171372219        1.08029270383489
H            8.25131263948811       -2.07934021856201        0.30089401840233
C            8.28440516866956       -1.59666365274248        2.32446380383017
H            8.70079269585013       -1.02025946578966        3.13183351542304
H            7.45191680069410       -2.23411347497164        2.57330567733519
C            6.81661999887203       -0.48298967433701       -3.74687498629645
H            6.22926811982482       -0.11152435367132       -2.90639228626605
H            7.04457321051449       -1.53296532750243       -3.55974295174832
H            6.20529635651260       -0.42134570871837       -4.64398799206208
C            7.84307250983481        1.26795775396720       -6.28436705912721
H            7.65238098470175        2.33022797919929       -6.43970920071523
H            6.89493017647158        0.73839567237620       -6.34128387312138
H            8.48099682264193        0.91791174784821       -7.09633578631767
C           10.46126155817384        6.81109368323921       -0.46816118278284
H           10.33417042080552        6.94321647992950        0.60641152088664
H            9.66203162062249        7.35220552464351       -0.97483699672253
H           11.41346054579041        7.24214432254477       -0.76120008331656
N            9.35174474533338        4.56859822913271       -0.58373939224706
H            8.49165077051291        4.85784795523089       -0.14774746886034
C           10.43567612167546        5.37090369503169       -0.82946662197312
C            9.65227317512124        3.32775329465880       -1.02876990645630
H            8.98717250992640        2.49136783523674       -0.96589752120660
N           10.85783637271249        3.29521558082752       -1.54014137130316
C           11.35779819898112        4.55836686734326       -1.42387508310552
H           12.34069188883028        4.79649750510014       -1.77355354490515
C           15.39700440238891       -1.86617808281744       -4.69313736801307
H           15.13372757172771       -2.29864452167337       -5.65853476250426
H           15.81564165284945       -2.65569076131878       -4.06887186556050
H           16.15633131878510       -1.10601864152010       -4.84778845758562
N           13.08704547593303       -1.98026869222859       -3.73215655518122
H           12.95612672736202       -2.96432846628828       -3.89957553140129
C           14.20791131075398       -1.25609888886059       -4.04574688564800
C           12.20101219983452       -1.13450235321363       -3.15945418188392
H           11.23167754958873       -1.42627940333028       -2.81172237164534
N           12.69119991864546        0.07824344334566       -3.09159042627910
C           13.93853627082098        0.01898248600638       -3.63887448331306
H           14.55448836734594        0.89175054445528       -3.70299526673420
