72
 energy: -105.836653338802 gnorm: 0.312192323970 xtb: 6.7.1 (edcfbbe)
Fe          33.29300000000000        0.46700000000000        6.93800000000000
N           31.42200000000000       -0.26900000000000        7.45300000000000
N           34.10400000000000       -1.33700000000000        7.37200000000000
N           35.19300000000000        1.28200000000000        6.63000000000000
N           32.52600000000000        2.38300000000000        6.88000000000000
C           30.36600000000000        0.49200000000000        7.82700000000000
C           29.33500000000000       -0.33600000000000        8.25700000000000
C           29.75300000000000       -1.65400000000000        8.08200000000000
C           31.08500000000000       -1.55000000000000        7.60600000000000
C           33.42800000000000       -2.46400000000000        7.78400000000000
C           34.32500000000000       -3.55500000000000        7.93300000000000
C           35.59500000000000       -3.01200000000000        7.59500000000000
C           35.38499999999999       -1.65000000000000        7.26300000000000
C           36.27999999999999        0.57000000000000        6.45600000000000
C           37.35800000000000        1.35900000000000        6.01000000000000
C           36.86200000000000        2.70300000000000        5.91400000000000
C           35.50000000000000        2.59000000000000        6.31300000000000
C           33.24400000000000        3.51500000000000        6.73600000000000
C           32.36200000000000        4.62500000000000        6.66600000000000
C           31.07100000000000        4.13000000000000        6.76100000000000
C           31.21500000000000        2.71800000000000        6.91300000000000
C           30.17200000000000        1.80400000000000        7.23600000000000
H           29.14900000000000        2.11300000000000        7.02300000000000
C           32.05300000000000       -2.49300000000000        7.93400000000000
H           31.66400000000000       -3.40500000000000        8.38300000000000
C           36.35100000000000       -0.77100000000000        6.75600000000000
H           37.32200000000000       -1.22600000000000        6.56800000000000
C           34.55499999999999        3.58600000000000        6.39700000000000
H           34.91499999999999        4.58500000000000        6.15400000000000
C           28.94300000000000       -2.96800000000000        8.43100000000000
H           27.85500000000000       -2.77200000000000        8.32600000000000
H           29.15400000000000       -3.27200000000000        9.47800000000000
H           29.23100000000000       -3.78300000000000        7.73300000000000
C           27.98800000000000        0.12900000000000        8.90900000000000
H           27.15200000000000       -0.05000000000000        8.20000000000000
H           28.03800000000000        1.21500000000000        9.14000000000000
H           27.80200000000000       -0.44900000000000        9.83900000000000
C           33.96200000000000       -5.01500000000000        8.37400000000000
H           33.72100000000000       -5.62400000000000        7.47700000000000
H           33.07600000000000       -4.99500000000000        9.04400000000000
H           34.82600000000000       -5.47400000000000        8.90000000000000
C           36.81700000000000       -3.70200000000000        7.58700000000000
H           37.70900000000000       -3.13100000000000        7.87800000000000
C           37.06800000000000       -5.07800000000000        7.24500000000000
H           36.24200000000000       -5.73700000000000        6.94000000000000
H           38.08900000000000       -5.48600000000000        7.28500000000000
C           38.77900000000000        0.84700000000000        5.68400000000000
H           38.78499999999999        0.39000000000000        4.67100000000000
H           39.08100000000000        0.07900000000000        6.42800000000000
H           39.49700000000000        1.69500000000000        5.70100000000000
C           37.47600000000000        3.94300000000000        5.51500000000000
H           36.91200000000000        4.86700000000000        5.70200000000000
C           38.74200000000000        4.12000000000000        4.89900000000000
H           39.37900000000000        3.25200000000000        4.67200000000000
H           39.10099999999999        5.12700000000000        4.64100000000000
C           32.76100000000000        6.13400000000000        6.50200000000000
H           33.15900000000000        6.30300000000000        5.47900000000000
H           33.54600000000000        6.39700000000000        7.24200000000000
H           31.86700000000000        6.77700000000000        6.65200000000000
C           29.71000000000000        4.88400000000000        6.70500000000000
H           29.81200000000000        5.78600000000000        6.06400000000000
H           29.41400000000000        5.20000000000000        7.72800000000000
H           28.93100000000000        4.22100000000000        6.27200000000000
O           34.31700000000000        0.64600000000000        9.61500000000000
H           34.58799999999999       -0.24000000000000        9.85400000000000
H           34.37600000000000        1.37000000000000       10.12800000000000
C           31.39500000000000       -0.63600000000000        4.29500000000000
H           31.28300000000000       -1.73300000000000        4.43100000000000
H           31.17400000000000       -0.39800000000000        3.23300000000000
H           30.64700000000000       -0.13200000000000        4.94300000000000
S           33.07600000000000       -0.08300000000000        4.72800000000000
H           32.78800000000000        1.20900000000000        4.68100000000000
72
 energy: -105.916733950614 gnorm: 0.136666238540 xtb: 6.7.1 (edcfbbe)
Fe          33.31352942812238        0.47652353889940        7.03908864146525
N           31.44007825491533       -0.25193148010545        7.45890057457499
N           34.09117911680006       -1.33772324199158        7.36884203561304
N           35.17244099806895        1.28768670230971        6.62024546738229
N           32.52260222288349        2.36856286346787        6.88476101583558
C           30.34437403568467        0.49642636042733        7.75922254076498
C           29.30305503373109       -0.34461469158082        8.24911814950877
C           29.73289225129117       -1.65086930682427        8.10837120470065
C           31.09791169627392       -1.54482209905765        7.66859335772803
C           33.42340659634883       -2.46910183171831        7.77356342140454
C           34.33237626084862       -3.56152774351820        7.93152230560456
C           35.58969862068668       -3.04698075359822        7.59013818483462
C           35.38745533445537       -1.65928331930221        7.25135900902529
C           36.28538584302257        0.56211717524278        6.45711166550544
C           37.37337082763682        1.37251725090807        6.00241944746621
C           36.87921736565423        2.68766453550195        5.90788603757732
C           35.49659462229290        2.58379882664736        6.31466513812512
C           33.22707872743518        3.51800981531183        6.71063030431805
C           32.33467813698071        4.64393098790430        6.66337807748191
C           31.05884670637103        4.13556590718803        6.74991905719983
C           31.20610183733587        2.70967386851239        6.92721722621079
C           30.17642363208826        1.81396917961246        7.24463377613707
H           29.15634731938319        2.13096790857997        7.06166514533436
C           32.05067340100101       -2.52187301950516        7.93379604703487
H           31.66043573802915       -3.43393180391042        8.36364393206683
C           36.36697596221767       -0.79117685646796        6.75717091958554
H           37.33394245195984       -1.23985283385657        6.57629105463974
C           34.56509430770456        3.60080789957140        6.39498538278624
H           34.92213172516286        4.59477722057244        6.15774978772796
C           28.95682364239198       -2.93916310863445        8.42369007308942
H           27.87891671633722       -2.76580784984286        8.32373029373770
H           29.15356682001355       -3.25999749432004        9.45522354034464
H           29.23550688469163       -3.75594528867154        7.74497358577410
C           27.99989482979376        0.12192872607687        8.89221339933690
H           27.16099461843318       -0.05062233461260        8.20754173547284
H           28.04376125076599        1.19153096836522        9.12998227413912
H           27.81100689241277       -0.43829662322882        9.81641424949809
C           33.97085425368493       -4.98350681953579        8.36397764643051
H           33.72671452530972       -5.60290924043544        7.48958951775073
H           33.09711091443054       -4.98547710867673        9.02841349305702
H           34.81311541517362       -5.45443887956300        8.88620375697694
C           36.83384491345741       -3.74146247561560        7.58241995336233
H           37.70879149374522       -3.14911651606014        7.85956275673774
C           37.05896133461295       -5.04814715830263        7.26126593221975
H           36.25708654529362       -5.70778362537256        6.94401940387993
H           38.06223937984915       -5.46337764439409        7.28850427435755
C           38.76261436011158        0.85558362753615        5.68968377851778
H           38.78171476455591        0.40022228833719        4.68955770352613
H           39.07150677032266        0.09461603641027        6.41702923270416
H           39.48663156992577        1.67433736839393        5.71286986472717
C           37.50305717111942        3.92957365901029        5.51059147220644
H           36.92678548170089        4.84005150644453        5.69765063198459
C           38.71384465377511        4.11080079753281        4.91626499713942
H           39.35801132919794        3.27534113615130        4.66948379308693
H           39.07678910601454        5.10260311056342        4.65772034202738
C           32.75063920485964        6.10905082102474        6.50642497351348
H           33.14949002405965        6.29234694836590        5.49903388362920
H           33.52671733109904        6.38381900324870        7.23226878812465
H           31.88277559082127        6.76039142885113        6.65425988992081
C           29.73061018604471        4.87672093702161        6.70430288226265
H           29.81432155990916        5.77084367961950        6.07557995227881
H           29.42282265860748        5.19024773281990        7.71066124097543
H           28.95004872458846        4.23257780715345        6.28285599716895
O           34.29310389511490        0.62785565322796        9.56883151079716
H           34.59077233080563       -0.23631435694818        9.84555197405193
H           34.38031096147532        1.37913149089428       10.12796355952755
C           31.38344468469048       -0.63208041789365        4.29409084220311
H           31.29907548360014       -1.71549492887397        4.43365867756791
H           31.18147354036315       -0.39675641164721        3.24303821716297
H           30.65267185939174       -0.13476656108331        4.93810609314549
S           33.06565359492134       -0.07506692637091        4.73851179924147
H           32.78362427814041        1.22064598381392        4.65039310870332
72
 energy: -105.946128347201 gnorm: 0.049342122901 xtb: 6.7.1 (edcfbbe)
Fe          33.32746113818733        0.48413815124714        7.10489537863892
N           31.46634562390694       -0.23838289371169        7.49438091880253
N           34.08076444459274       -1.33203599421609        7.37367770089897
N           35.15549305605595        1.28266830784125        6.62332028005721
N           32.52938341333540        2.35769159291058        6.90219460423647
C           30.33197217569585        0.50004746695580        7.70095300098983
C           29.27895201054040       -0.34818363987699        8.22561673369891
C           29.72747442059601       -1.64045212624790        8.13453307169320
C           31.12259883561753       -1.53521192787951        7.74787775251811
C           33.42081073841901       -2.46579312935309        7.76818703925729
C           34.34049161493894       -3.56275591195701        7.92211079200235
C           35.57963137891041       -3.06764753040897        7.58238089671496
C           35.38755189936877       -1.66278083877660        7.23933138768139
C           36.28452948212735        0.54663580285929        6.46356460661220
C           37.37571865866722        1.37891322958256        6.00290528929023
C           36.88172132757954        2.66438158340690        5.91050697164200
C           35.48369793850446        2.56804985839381        6.32120021192056
C           33.21937133169545        3.51637904226343        6.69171684781275
C           32.31551787389407        4.64946776824256        6.65342810583424
C           31.05364228785355        4.13288630730912        6.74571580671031
C           31.20654849657120        2.69774607095717        6.94339882633449
C           30.18248625780232        1.81831200804399        7.25623296945516
H           29.16106817064028        2.16363628159103        7.13469243467517
C           32.04999405736667       -2.54955549669755        7.94048978168802
H           31.65522013170245       -3.47812187865402        8.32324961485690
C           36.37987528677134       -0.81098614682390        6.75907138448041
H           37.34748272689690       -1.25533593945581        6.59039743223467
C           34.57266685528734        3.61019285058291        6.39694579086585
H           34.92972825125918        4.60195155937575        6.16658969722617
C           28.97588347631825       -2.90279332435507        8.42484692508855
H           27.90304607105115       -2.74536128994036        8.31994404560114
H           29.15833026160971       -3.24652327685213        9.44522782847753
H           29.25613288329717       -3.71243883136148        7.75012172011978
C           28.00776329136298        0.11623495739394        8.85843392638020
H           27.15554099673278       -0.04934078090348        8.20029312825570
H           28.05390433784662        1.17421677781204        9.10712455009521
H           27.82428378864500       -0.43419776471777        9.78228812613811
C           33.98037973364233       -4.95087702660083        8.35128528727249
H           33.73229765650291       -5.57594092710567        7.49007113840201
H           33.11552886833589       -4.96107508591854        9.01449941667073
H           34.81125804552144       -5.42671047212726        8.87119489007653
C           36.84807989799059       -3.76185514453218        7.57254100844857
H           37.70453160917658       -3.15150396263666        7.84927527499091
C           37.05274736337346       -5.02331930263036        7.26390041316294
H           36.26525679101040       -5.68727560650403        6.94965650026127
H           38.04118243548827       -5.45342818122142        7.29346522482022
C           38.74367545824757        0.86494612777840        5.69937441333821
H           38.77196319913136        0.41223556102348        4.70583318937873
H           39.05189587414035        0.10472568553033        6.41555827918039
H           39.47626040392458        1.66394466932085        5.72883645287777
C           37.51258464277580        3.91084373076962        5.51062993930436
H           36.92726744020121        4.80705418563607        5.70868230383946
C           38.68792903133053        4.09532553292310        4.92956162022677
H           39.34576331489710        3.28794731858303        4.66391639678479
H           39.05307313913685        5.08004522881953        4.67876321715364
C           32.73406908087015        6.07972728159007        6.50704171056894
H           33.13911812330831        6.27259318918140        5.51136516805430
H           33.50502151301181        6.35183227881873        7.22880325766057
H           31.88616583166819        6.74334552688946        6.65751556203567
C           29.75069211039460        4.86430477790706        6.70463366474388
H           29.82594067867960        5.75618765409093        6.08548208893264
H           29.43679706931019        5.17716174379277        7.70192991111121
H           28.96532680087540        4.23520508572820        6.29040346101060
O           34.22482640316235        0.61570181305474        9.50939380797363
H           34.60022524466909       -0.21560899348460        9.81802798447102
H           34.39320467134198        1.36672241267861       10.09047554561294
C           31.37434674978163       -0.62473401352330        4.29573856879394
H           31.32228937218849       -1.69943651396078        4.43996041416022
H           31.18959852763190       -0.39081819581948        3.25167636846043
H           30.65391782275922       -0.13486493054628        4.93814977594109
S           33.06135681205170       -0.06186650826364        4.73590835999988
H           32.78434329182006        1.23681416617898        4.61960380529410
72
 energy: -105.956795618698 gnorm: 0.045924843525 xtb: 6.7.1 (edcfbbe)
Fe          33.33802529569549        0.49122465008153        7.16551738500686
N           31.48617402647940       -0.22992983547612        7.53851562884631
N           34.07997494311540       -1.32975783988426        7.37902400094373
N           35.14831498093369        1.26988018641630        6.63662454495421
N           32.53726826186531        2.35116910730265        6.91734882749996
C           30.33729372694405        0.50150550139253        7.69425576851031
C           29.27186998101301       -0.34579834468246        8.19977163240623
C           29.74112650282750       -1.62840183936206        8.15640599975149
C           31.14481453955733       -1.52415312234303        7.80189634238058
C           33.42231400983309       -2.46288598346565        7.76328008978045
C           34.34589875457031       -3.56021599270505        7.90555600067103
C           35.57912600924293       -3.06894612512072        7.57034228286456
C           35.38820854256613       -1.66418631108053        7.23169464257343
C           36.28045327956570        0.53170665925210        6.47270059133544
C           37.36874629128817        1.37075143092991        6.01206351817757
C           36.87095686357952        2.64647129215610        5.92120947543127
C           35.47153649476096        2.55223841519624        6.33187951136266
C           33.22025763668058        3.50886027703708        6.68800355746791
C           32.31070716087928        4.63788583216344        6.64351250984519
C           31.05533668225678        4.12124353663719        6.74912369039885
C           31.21458305009265        2.69017241739184        6.96280257791472
C           30.18875267647172        1.82338992032276        7.28878404250258
H           29.16759426942174        2.20212513456307        7.23361194202937
C           32.05397482904265       -2.56162641063292        7.94655697121111
H           31.65432952037028       -3.51887104182759        8.26512961075184
C           36.38689452153223       -0.82326790336504        6.76288745216968
H           37.35763074476152       -1.26845477349873        6.60596227158946
C           34.57463253194999        3.60686112320780        6.40280801344181
H           34.93725310389659        4.59884054485713        6.17934724194497
C           28.99181666171967       -2.88340116267090        8.43456501936669
H           27.92176010862765       -2.72092468931745        8.31720586554677
H           29.16626272882437       -3.23748578036813        9.45191757290646
H           29.28668024316099       -3.67777238601543        7.74986784344861
C           27.99805900622638        0.11730329001697        8.81507752121927
H           27.13779234935992       -0.04581088678049        8.16705623294019
H           28.05354924089100        1.17286292715370        9.06726827602723
H           27.82482649351368       -0.43437846963785        9.73992340086097
C           33.98581337281811       -4.93608153222221        8.34081907782801
H           33.73282495792820       -5.55842227817909        7.48067199847325
H           33.12629328234700       -4.93387439417909        9.00816157415740
H           34.82082590580340       -5.40485617120679        8.85755917726368
C           36.85751521116411       -3.75423940126767        7.56739272122986
H           37.70805291733567       -3.13767630464153        7.83929478198305
C           37.05414778393772       -5.03119739330594        7.26635612463607
H           36.26392528028452       -5.68482295121790        6.94295118840086
H           38.03882738812047       -5.46717302541757        7.29200936063617
C           38.73442114366594        0.86209268346550        5.71468121586164
H           38.76549877003811        0.42081217310039        4.71705721973297
H           39.03132670984043        0.09559855740674        6.42699616258003
H           39.47045281743621        1.65701210791083        5.76035994656970
C           37.50043073330419        3.89330160359392        5.52637268173672
H           36.91151554744783        4.78027997962773        5.73627113865398
C           38.67556470258144        4.08568099904125        4.93598634011310
H           39.33612731653435        3.29055745701542        4.64094486981967
H           39.03119192504447        5.07540835231860        4.69977917398211
C           32.72424891328583        6.06116780036715        6.50374162934633
H           33.13311222005616        6.25606822223632        5.51132564055405
H           33.49194108852979        6.31831426672885        7.23302427490496
H           31.87923816088647        6.72655212137773        6.65943945717898
C           29.75842267399124        4.85277251692409        6.70858698933465
H           29.83981303937208        5.74555615837303        6.09231965637826
H           29.44841811484482        5.16334506054545        7.70705822740637
H           28.97106232135519        4.22819891510706        6.29385648878802
O           34.10514259021617        0.60131451246543        9.45526407590405
H           34.61756432556790       -0.18896112169606        9.74098133134305
H           34.40677754676871        1.36256448101270       10.00485453759394
C           31.37718934379349       -0.60912799303827        4.30263326605412
H           31.35357827465874       -1.68370546777537        4.45416767457298
H           31.19647897994065       -0.38243785737848        3.25716365376248
H           30.64964738411810       -0.12870284856953        4.94330579424611
S           33.05785339065996       -0.02353723970452        4.74496630404571
H           32.78195980280535        1.27299466333850        4.55514838884894
72
 energy: -105.961979350695 gnorm: 0.037996448497 xtb: 6.7.1 (edcfbbe)
Fe          33.33704134827521        0.48948868385068        7.16242577547792
N           31.50604551016235       -0.22055698242852        7.58649070891826
N           34.07987784022097       -1.32457825470484        7.38076909293937
N           35.14131509535900        1.25391591216322        6.66208915277179
N           32.54628058942248        2.34358835373867        6.94286213573068
C           30.35126293506103        0.50272166473855        7.70458130091852
C           29.27076783069652       -0.34239517498876        8.17409861233392
C           29.76038651398859       -1.61424779023088        8.17959142566456
C           31.16769650688928       -1.51010263293824        7.85590325997017
C           33.42347711672259       -2.45762811828011        7.75295423947882
C           34.34796381498510       -3.55620405031478        7.88349475350670
C           35.57979134448215       -3.06766313421686        7.55453213118043
C           35.38880542152175       -1.66388765306692        7.22913036218765
C           36.27604992320285        0.51758512949904        6.49276326628925
C           37.35863454816374        1.35929351626837        6.03071945043349
C           36.85554981872090        2.62962561302222        5.93923218896777
C           35.45860299483279        2.53512305721159        6.35295223882865
C           33.22239091203469        3.49818648293793        6.69311802521935
C           32.30808965444941        4.62038974206563        6.63428058133682
C           31.05795848072145        4.10476616385785        6.75852043523116
C           31.22612324088169        2.68266146318682        6.99481437044912
C           30.19805409695640        1.82898113188336        7.34055493052752
H           29.18431996169436        2.23412153487804        7.34204237944899
C           32.05796182235251       -2.56903860912879        7.94629486577232
H           31.65548751290349       -3.54924383842857        8.20218172979048
C           36.39499076526679       -0.83366200605530        6.77503660636054
H           37.36696631781617       -1.28194679951918        6.62642839657203
C           34.57502578397648        3.59953083802201        6.41586469593521
H           34.94385086430060        4.59059981817245        6.19563712330456
C           29.00888432119343       -2.86820191077455        8.44434412951713
H           27.94163923976537       -2.69757008364993        8.31454845157210
H           29.17573870556454       -3.23177093080311        9.45888633489601
H           29.31749063868824       -3.64769718512653        7.74876896339559
C           27.98065182544040        0.11925352042576        8.75726464829924
H           27.12303267462985       -0.04346174382676        8.10640635177606
H           28.03974795068511        1.17452252500444        9.00909150221426
H           27.80614635128630       -0.43377532762674        9.68139518700546
C           33.98858841280714       -4.92477537653346        8.33022651087580
H           33.72833596750443       -5.54718305904248        7.47299255305691
H           33.13600242814183       -4.90654686873979        9.00510248724563
H           34.83078082807478       -5.38497710317663        8.84245877519791
C           36.86372637380046       -3.74338109987016        7.55951409855143
H           37.71168039449127       -3.12759912878585        7.82984756328634
C           37.05590743735598       -5.03060564036544        7.26460050659251
H           36.25753893196931       -5.67477840933454        6.94629666880570
H           38.03652752552777       -5.47308437682706        7.30327714193976
C           38.72653474396353        0.85778128285666        5.73963125140834
H           38.76394461487740        0.43257189014319        4.73519838120070
H           39.01058805462118        0.08111269391836        6.44638473373486
H           39.46126236693343        1.65422165711457        5.80635805168619
C           37.48208425435453        3.87385633974386        5.54864760695600
H           36.89829333610390        4.75514135293298        5.77946938056525
C           38.65580898623741        4.07187031811401        4.94524791326465
H           39.31637193612268        3.28568936626870        4.62660017627934
H           39.00160790895036        5.06997492825697        4.73172584702787
C           32.71602068709279        6.04263564100106        6.49567904857209
H           33.12843957463519        6.23994998334690        5.50592494081442
H           33.47903933916191        6.28661756728136        7.23450538817439
H           31.86944085107691        6.70542729056813        6.65543121752834
C           29.76264717231307        4.83717932329338        6.71190070604314
H           29.85360957074229        5.73085145559594        6.09731296556155
H           29.45468612059302        5.14563093428853        7.71185239744154
H           28.97526998699808        4.21569658064871        6.29272312235775
O           34.16721641224682        0.63883621127759        9.33987954779587
H           34.55111114575526       -0.15932305697994        9.66225417246997
H           34.35513730003110        1.34497621986286        9.95133980295994
C           31.38523334611484       -0.59290225203206        4.30361440066997
H           31.39354962532851       -1.66732595879363        4.46602105592967
H           31.19456901345472       -0.37483017483364        3.25853935144635
H           30.65386432801974       -0.12331815052957        4.95072466734601
S           33.06516635961166        0.01563939731402        4.71413445064732
H           32.78731439167387        1.30724729719988        4.49551331234626
72
 energy: -105.966113560143 gnorm: 0.026261311358 xtb: 6.7.1 (edcfbbe)
Fe          33.33324467554016        0.48463875830610        7.11531668345031
N           31.51818065754303       -0.21457831673429        7.61176892710906
N           34.08179083789074       -1.32328974810361        7.36596637177849
N           35.13756142942058        1.24145617177317        6.66872446680022
N           32.55355426785647        2.33844304462915        6.96160069925004
C           30.37088021483071        0.50368085700532        7.73408562175554
C           29.28193577803232       -0.34117291705825        8.17428487100762
C           29.77633247030387       -1.60739656625782        8.19547199888311
C           31.17954435970070       -1.50216652150641        7.87767844111033
C           33.42522717803200       -2.45678151531911        7.73301240019474
C           34.34672936884479       -3.55733691155159        7.86209464711280
C           35.58237392492386       -3.06880440760393        7.53864613276773
C           35.39051318331938       -1.66540881755513        7.22423098999097
C           36.27538194300271        0.51130665147011        6.50432391211251
C           37.35498217368622        1.35128778465077        6.04591188083404
C           36.84890758323603        2.62300130631740        5.95346944581973
C           35.45477755403466        2.52449816088481        6.36671483849779
C           33.22700592090711        3.49006222769177        6.70265375011812
C           32.31275965236725        4.60913988006835        6.63474513527061