78
 energy: -115.920697011679 gnorm: 0.319789551268 xtb: 6.7.1 (edcfbbe)
Fe          -1.41500000000000       18.47000000000000       -0.09100000000000
N           -3.30300000000000       18.23800000000000        0.54100000000000
N           -1.90000000000000       20.41500000000000       -0.65500000000000
N            0.54300000000000       18.86300000000000       -0.15800000000000
N           -0.87700000000000       16.71000000000000        0.91100000000000
C           -3.88500000000000       17.13200000000000        1.13900000000000
C           -5.33500000000000       17.29200000000000        1.41100000000000
C           -5.69300000000000       18.59000000000000        0.91700000000000
C           -4.43200000000000       19.11700000000000        0.35900000000000
C           -3.14400000000000       20.99300000000000       -0.74700000000000
C           -3.15500000000000       22.32000000000000       -1.36000000000000
C           -1.76100000000000       22.51500000000000       -1.64300000000000
C           -1.07200000000000       21.30500000000000       -1.20000000000000
C            1.10600000000000       20.04400000000000       -0.72700000000000
C            2.58300000000000       20.02000000000000       -0.66200000000000
C            2.94200000000000       18.74700000000000       -0.11500000000000
C            1.68500000000000       18.07700000000000        0.17800000000000
C            0.33300000000000       16.08000000000000        0.88500000000000
C            0.29000000000000       14.64600000000000        1.24700000000000
C           -1.14400000000000       14.40100000000000        1.47100000000000
C           -1.76100000000000       15.70400000000000        1.19100000000000
C           -3.16800000000000       15.91400000000000        1.37400000000000
H           -3.75000000000000       15.06200000000000        1.72700000000000
C           -4.36700000000000       20.42600000000000       -0.23900000000000
H           -5.28300000000000       21.01300000000000       -0.31000000000000
C            0.34100000000000       21.13100000000000       -1.31100000000000
H            0.89200000000000       21.87800000000000       -1.88300000000000
C            1.58900000000000       16.73900000000000        0.63200000000000
H            2.51000000000000       16.18100000000000        0.79800000000000
C           -7.04300000000000       19.26600000000000        0.98600000000000
H           -7.71700000000000       18.68200000000000        1.64900000000000
H           -7.49100000000000       19.31500000000000       -0.03000000000000
H           -6.92900000000000       20.29000000000000        1.40100000000000
C           -6.26900000000000       16.33900000000000        2.04300000000000
H           -5.69700000000000       15.49200000000000        2.47800000000000
H           -6.97500000000000       15.94400000000000        1.28100000000000
H           -6.83200000000000       16.84700000000000        2.85500000000000
C           -4.29500000000000       23.29100000000000       -1.54600000000000
H           -4.47600000000000       23.83700000000000       -0.59500000000000
H           -5.21700000000000       22.73800000000000       -1.82500000000000
H           -4.03700000000000       24.02500000000000       -2.33900000000000
C           -1.19900000000000       23.75400000000000       -2.24000000000000
H           -1.76300000000000       24.69800000000000       -2.20200000000000
C           -0.00200000000000       23.75000000000000       -2.83400000000000
H            0.44400000000000       22.80800000000000       -3.18500000000000
H            0.55200000000000       24.68900000000000       -2.97900000000000
C            3.57100000000000       21.06100000000000       -1.09200000000000
H            3.03500000000000       22.00300000000000       -1.33400000000000
H            4.11400000000000       20.71200000000000       -1.99600000000000
H            4.29100000000000       21.25800000000000       -0.26900000000000
C            4.35200000000000       18.34100000000000        0.06400000000000
H            5.12700000000000       18.77100000000000       -0.58700000000000
C            4.72200000000000       17.50800000000000        0.94500000000000
H            3.98700000000000       17.04800000000000        1.62200000000000
H            5.78300000000000       17.23400000000000        1.04400000000000
C            1.41900000000000       13.67300000000000        1.35100000000000
H            2.04600000000000       13.92500000000000        2.23300000000000
H            2.04600000000000       13.72700000000000        0.43600000000000
H            1.01800000000000       12.64500000000000        1.47700000000000
C           -1.80500000000000       13.12000000000000        1.86000000000000
H           -1.05400000000000       12.43700000000000        2.31200000000000
H           -2.23900000000000       12.63300000000000        0.96100000000000
H           -2.60400000000000       13.32100000000000        2.60500000000000
O           -1.29300000000000       19.57500000000000        2.27800000000000
H           -2.17200000000000       19.50200000000000        2.64900000000000
H           -0.58600000000000       19.94600000000000        2.67000000000000
C           -0.99800000000000       15.27100000000000       -4.81000000000000
H           -0.67700000000000       15.78500000000000       -5.74100000000000
H           -1.85800000000000       14.60700000000000       -5.04300000000000
H           -0.14900000000000       14.67000000000000       -4.42000000000000
N           -2.42300000000000       17.19100000000000       -3.98200000000000
H           -2.96000000000000       17.25000000000000       -4.82300000000000
C           -1.41400000000000       16.30700000000000       -3.77500000000000
C           -2.57600000000000       17.95000000000000       -2.90500000000000
H           -3.29500000000000       18.76300000000000       -2.81300000000000
N           -1.70200000000000       17.53300000000000       -1.98700000000000
C           -0.98800000000000       16.51100000000000       -2.49400000000000
H           -0.23200000000000       16.00800000000000       -1.90500000000000
78
 energy: -116.001521065948 gnorm: 0.131701195134 xtb: 6.7.1 (edcfbbe)
Fe          -1.41031196648007       18.50002902292839       -0.00410655777192
N           -3.34848890432185       18.23873517171977        0.52229303249248
N           -1.91919514944827       20.41650914345069       -0.67644930577828
N            0.57075012620059       18.86714833587829       -0.18946235769564
N           -0.88068969384336       16.67564861847644        0.87076842990373
C           -3.88539235865017       17.12366366579560        1.12293303949669
C           -5.31492593728373       17.31053418678643        1.39453094929204
C           -5.65622376472266       18.57523886269466        0.91789278901722
C           -4.42611020604609       19.13187132074511        0.36438390868171
C           -3.16213293931863       20.98883414249633       -0.73875173901690
C           -3.12342005716861       22.30689639247060       -1.34785124905044
C           -1.76789934311296       22.50799824473959       -1.66373208184794
C           -1.06037029461574       21.30378464072454       -1.21747512281598
C            1.09963456751955       20.04231615776227       -0.72734121951310
C            2.55938389627299       20.00273693734372       -0.67209291625874
C            2.91858653201267       18.76660827617318       -0.12936947601421
C            1.67218040120917       18.07524505973671        0.16478289823345
C            0.34384448492257       16.08019945696003        0.88885187817098
C            0.25384062831610       14.66531068089847        1.24628530299438
C           -1.12249685298813       14.42822997128936        1.46052805048392
C           -1.77933999696585       15.70485986187021        1.20795000342563
C           -3.16694242373656       15.93024414811661        1.37305835873399
H           -3.74393840293669       15.07882586053734        1.72277351726287
C           -4.34764811206177       20.40505435440125       -0.23313745354264
H           -5.26080712244422       20.99005652674924       -0.30697079967320
C            0.34105677972521       21.10633835805642       -1.28429520273691
H            0.90049765817361       21.85471941386190       -1.83051281110387
C            1.56470822357372       16.75297451696704        0.62679504402331
H            2.47985492734495       16.18913712066750        0.78032662608292
C           -7.00861362546637       19.24928294638682        0.98414497034705
H           -7.69528699945331       18.68884544866408        1.63389281789468
H           -7.47526289079372       19.31454052214824       -0.01074547472679
H           -6.92545627505823       20.26855960684921        1.38875220156271
C           -6.25206246971520       16.34590493605808        2.03769840301216
H           -5.70835737616146       15.50035033861640        2.47479021510472
H           -6.96499738601735       15.95008027453812        1.29863762231855
H           -6.82387882292569       16.83489540542884        2.83961626701024
C           -4.26950152925385       23.26849903174071       -1.54042674334356
H           -4.46981248064356       23.82349157955874       -0.61073259173873
H           -5.19472054676168       22.74563376439732       -1.82061729275303
H           -4.03889472941673       24.00338877696952       -2.32332785486601
C           -1.19560974947134       23.73152981598540       -2.23583618383895
H           -1.75316233305380       24.66930108024549       -2.15950156249436
C           -0.00716166095178       23.75692506114538       -2.84654136688550
H            0.45585976991888       22.83866604936687       -3.18403421572118
H            0.53000163103445       24.68555724523235       -3.01306635551929
C            3.54684132463199       21.05289204072156       -1.09041284569597
H            3.04176335404176       21.99435094464488       -1.33238578895951
H            4.10414183254152       20.72044980727913       -1.97889818355936
H            4.27256682186021       21.25098447362792       -0.28778413919127
C            4.31911270146114       18.35185112252335        0.05022287833498
H            5.08438851742881       18.78940007242924       -0.59505355571641
C            4.72289970875020       17.49172137350083        0.96230639460475
H            4.01477452741302       17.04420115109126        1.64557817496761
H            5.77162875949303       17.22496713860930        1.05630169949914
C            1.39454496381980       13.69427664995274        1.35117440070559
H            2.03396880651573       13.92362070521817        2.21776266473035
H            2.03033668549175       13.72724243560216        0.45396467814080
H            1.02373322499465       12.66791891405618        1.47234514933054
C           -1.78892672225573       13.14320059218874        1.85314864414898
H           -1.06530155829848       12.45069387841872        2.30310364486354
H           -2.23338654743482       12.64435775580908        0.97806909222397
H           -2.58721837169745       13.31796948391181        2.58851801159062
O           -1.30775252799313       19.55395215581319        2.24079530174594
H           -2.16959816581919       19.50217736374585        2.64830708252938
H           -0.57429876162330       19.95051823839742        2.67435385062744
C           -1.00190446840545       15.27855548558735       -4.80388084728061
H           -0.68218536988285       15.77687890092265       -5.72829915496327
H           -1.84256583295133       14.61405245520219       -5.04044889095119
H           -0.16705767943136       14.68148971594347       -4.42393581619480
N           -2.41719516778652       17.18866365794211       -3.98713610428013
H           -2.95881485356095       17.25172701270676       -4.83199330904886
C           -1.41582527208044       16.29135847245161       -3.77249369549670
C           -2.56480993276665       17.94705224821338       -2.88831196725912
H           -3.27935721666743       18.74990638035653       -2.80110990574430
N           -1.69815737536413       17.55854259791597       -1.96097684285616
C           -0.99137071334325       16.52327954521061       -2.48906858059572
H           -0.23706191601618       16.02054689637648       -1.91007043108858
78
 energy: -116.029591770294 gnorm: 0.039218519491 xtb: 6.7.1 (edcfbbe)
Fe          -1.40807842932472       18.52229521420509        0.06024347987009
N           -3.37396494559340       18.24728796951664        0.52475570916330
N           -1.92601915810943       20.41059712217104       -0.68013447050374
N            0.58634701366344       18.87474949400043       -0.19404021728932
N           -0.89213275436082       16.66786808599215        0.84688237250132
C           -3.88260221152221       17.12086508504865        1.10776905971240
C           -5.29975982954780       17.32051800698690        1.37862751596314
C           -5.62675520782670       18.56182257085679        0.91938200540299
C           -4.41324759779460       19.13158064655041        0.36558063061471
C           -3.16613089951551       20.97830115567114       -0.72907311274850
C           -3.09341360602839       22.28826546545426       -1.33996054791833
C           -1.76901719927164       22.48875521051387       -1.67508203494823
C           -1.04785914001891       21.28716746516320       -1.23124697764900
C            1.08942941078226       20.02828506378489       -0.72967664350977
C            2.53877163811435       19.98687002128572       -0.68241568004738
C            2.89536111372663       18.77738645234227       -0.13798754924378
C            1.64965785425857       18.07563359368552        0.14982845002904
C            0.33869787936302       16.08982678244371        0.87687467630535
C            0.21997554068234       14.68808056585794        1.24890329690069
C           -1.10713570876556       14.45711810748020        1.45547465484903
C           -1.79688082076166       15.71565307903611        1.20489048473367
C           -3.16572552652440       15.94654643108009        1.36019174184691
H           -3.73831806232005       15.10018257620285        1.72091351182172
C           -4.32413196870422       20.38192463891851       -0.22833094367122
H           -5.23673133147875       20.96378950109490       -0.30178223848036
C            0.33808012920597       21.07680984809420       -1.26293677011719
H            0.91269168144286       21.84532018911472       -1.75896675808248
C            1.53141415029447       16.76486072777670        0.60774838357234
H            2.44335149829708       16.19976841243445        0.75494704314485
C           -6.97433268302940       19.23504486452980        0.98234087347567
H           -7.66096895689274       18.68200412628308        1.62378747655878
H           -7.44083745541782       19.30507740623454       -0.00388398628634
H           -6.89993945521964       20.24980263029613        1.37893994464651
C           -6.23662805516635       16.34950394908055        2.03143355995366
H           -5.70491614447387       15.50941251153981        2.46921839135862
H           -6.95170577566151       15.95690943644554        1.30456189947702
H           -6.80930488149880       16.83400565534927        2.82462451443478
C           -4.24101358162034       23.24329640617812       -1.53533976393984
H           -4.45058949859337       23.79926564174018       -0.61601807642243
H           -5.16239304903250       22.73100176607385       -1.81625827246950
H           -4.02228989731864       23.97524113690891       -2.31289744526445
C           -1.18866650517533       23.69927408704459       -2.22566948727073
H           -1.74126937043256       24.63002996749693       -2.09409657521845
C           -0.01387341177780       23.76032216265864       -2.85912625275830
H            0.48141554590299       22.86411307434645       -3.18188403371208
H            0.48578856876136       24.69251803499841       -3.07161212182847
C            3.51992935162720       21.04648939175440       -1.09302004806883
H            3.03113503904508       21.98626089250401       -1.33244084115496
H            4.08663644050265       20.72219173637723       -1.97004037494125
H            4.24320023934826       21.23795271817256       -0.29697516000010
C            4.27878783100618       18.35151602835196        0.05116558740475
H            5.02725056620780       18.79944524442248       -0.59671421796500
C            4.71221898328428       17.48942492088638        0.97173610178554
H            4.03388787412709       17.04334361619358        1.67104783651282
H            5.75406121201649       17.22826589778127        1.05375729612870
C            1.36728211959306       13.71865056986137        1.35166753864440
H            2.00981514124007       13.94177843094782        2.20808106112758
H            2.00092938264831       13.74525647617116        0.46198727821281
H            1.01158448526195       12.69519519299122        1.46918839235351
C           -1.77397982251070       13.16841131790363        1.84780051549912
H           -1.06303125909608       12.47379780655853        2.29391405340089
H           -2.22204455317963       12.67028443746813        0.98295965631254
H           -2.57012853869764       13.33439280760772        2.57489617722702
O           -1.31189064648760       19.52478096318680        2.19202484111416
H           -2.15532279451719       19.50635768991307        2.64821301846419
H           -0.58434946797978       19.93916903309092        2.65819528366479
C           -1.00549146135093       15.28550223207528       -4.79153219203930
H           -0.68865890273441       15.77843568541015       -5.71090572784245
H           -1.83364856409804       14.61990016490166       -5.03451932811184
H           -0.17851033031187       14.68983782532602       -4.41985575768982
N           -2.41401550411908       17.19080724625193       -3.98664503315626
H           -2.95839357715628       17.25946834229555       -4.83254673131136
C           -1.41699312515999       16.28095556369410       -3.76386560115963
C           -2.55094879328371       17.94695306733974       -2.87412902778351
H           -3.26336607819031       18.74195915586408       -2.78627086758873
N           -1.69530452468519       17.57478806811912       -1.94705918012568
C           -0.99067502490394       16.53444928166576       -2.48547037189028
H           -0.23531460316201       16.03302585494409       -1.91514389398055
78
 energy: -116.039209474331 gnorm: 0.029149346072 xtb: 6.7.1 (edcfbbe)
Fe          -1.41099144099712       18.52506882270825        0.07441039755395
N           -3.37011365951782       18.23877346111458        0.51792026074711
N           -1.91609249832092       20.38917069892193       -0.67969981977515
N            0.57533412809474       18.86666706527490       -0.20516754355885
N           -0.91149538916301       16.67986554322843        0.82731528011395
C           -3.87943604734542       17.11770148105389        1.09913338182076
C           -5.29232906077235       17.31365922786626        1.37033539132806
C           -5.61198799788687       18.55682851001545        0.91809120568907
C           -4.39609330290104       19.12566697132953        0.37458436620013
C           -3.15166512131448       20.95991539304417       -0.72494786789588
C           -3.07109049837006       22.26641937926725       -1.33419828287784
C           -1.75367032670282       22.46316501537335       -1.67512275058936
C           -1.03701181697426       21.26408377264011       -1.23215121315272
C            1.07958067622539       20.01878146314270       -0.72243324719246
C            2.52468427430995       19.97823465351356       -0.68998134161589
C            2.87592056839791       18.77150144022323       -0.14037499008110
C            1.62771059594058       18.07616350271453        0.14265141437260
C            0.32003886505305       16.10591982591233        0.86138701318105
C            0.20543827830180       14.70928812570206        1.24404483459200
C           -1.11762198678714       14.47572093336475        1.45408543400855
C           -1.81025587234892       15.72999793464595        1.19757233222422
C           -3.17091037086734       15.95035868828729        1.35700980945201
H           -3.74370320503728       15.10884728323508        1.72399939398973
C           -4.30638377616487       20.37210650410361       -0.22081187252493
H           -5.22010468971789       20.94833745515311       -0.29696434499568
C            0.34062028750840       21.07319045062873       -1.23918646974433
H            0.92985224253896       21.86584787281774       -1.68153849171507
C            1.50790010278314       16.76924712220914        0.59155488749884
H            2.41697019718689       16.19866351405140        0.71853315694097
C           -6.94896943713244       19.22981866036157        0.97712766671501
H           -7.62951390074415       18.67105523099553        1.61643836799008
H           -7.40256139256320       19.29655802644612       -0.01283226375458
H           -6.86497046518564       20.24164614783418        1.37290165601733
C           -6.22562168460651       16.34542744319699        2.02683714921196
H           -5.69158208322729       15.50902883456219        2.46597395136412
H           -6.94062004274743       15.95470737712982        1.30150751525872
H           -6.79366474433024       16.83730879832271        2.81669588055191
C           -4.21450675226278       23.21650917963157       -1.53013679223619
H           -4.42299890703638       23.76760034776554       -0.60966562222139
H           -5.12855557449556       22.69626437510405       -1.81304015573330
H           -3.99091334897864       23.94413660192701       -2.30800805935214
C           -1.17540614325170       23.67502067600576       -2.21137319470445
H           -1.73040065359406       24.59555420400830       -2.02108795235182
C           -0.02338087050447       23.76746155256441       -2.88233972609721
H            0.51017116643263       22.88767351118516       -3.19728204409306
H            0.42049400655060       24.71877873403727       -3.15506771898953
C            3.49488965558506       21.04236456205000       -1.10006017695942
H            3.00318663836212       21.98075797403591       -1.33541163796984
H            4.06289050601497       20.72162091796181       -1.97574622366982
H            4.21177821850992       21.22769313776525       -0.29930028777693
C            4.24679362170497       18.34099886612917        0.05777845159231
H            4.97596038450843       18.79861460134323       -0.60334488375877
C            4.69855487035382       17.49015027961986        0.98067916506371
H            4.04518211901081       17.04936903485423        1.71216721277060
H            5.74254263344292       17.23520663788340        1.04976201725170
C            1.34967759932450       13.74527217131061        1.35002147786875
H            1.98574236164818       13.97690828439181        2.20600595468383
H            1.97443553594746       13.77685289703322        0.45732964071507
H            0.98983017453756       12.72507125083738        1.46795203779613
C           -1.77489124713861       13.18863476316450        1.84657920578522
H           -1.05568865675313       12.50104076996584        2.28665734486624
H           -2.21963712773274       12.69908086796083        0.97797210028542
H           -2.56617872918328       13.35823842864986        2.57437763865910
O           -1.30932272439011       19.48844682575504        2.16055568021191
H           -2.14185917950913       19.51141625091234        2.64353068867958
H           -0.59110906831178       19.92320304366692        2.62607370796289
C           -1.00796777044901       15.29065638287846       -4.77768248553629
H           -0.69253677505530       15.78727588802025       -5.69519073155205
H           -1.83369496051086       14.62318894255472       -5.02404107637497
H           -0.18104590097861       14.69468458961097       -4.40681667651329
N           -2.41366928924873       17.19748273111931       -3.97722343164891
H           -2.95762846885715       17.27021508153877       -4.82286708388993
C           -1.41745400458440       16.28328096501777       -3.75095858101947
C           -2.54187207277159       17.95320475963055       -2.86249226083666
H           -3.25396054933010       18.74674189953973       -2.76878728438132
N           -1.68723810950043       17.58391330645424       -1.94176538580055
C           -0.98413733809850       16.54298235705050       -2.47901825295564
H           -0.22266467402141       16.04568971867182       -1.91443484511789
78
 energy: -116.044696279408 gnorm: 0.020300139246 xtb: 6.7.1 (edcfbbe)
Fe          -1.41316630083101       18.51789581091720        0.06970268022408
N           -3.35339235017914       18.22760734531807        0.51332922112075
N           -1.89815596952078       20.35925513456889       -0.67452270459569
N            0.55568068600605       18.86628063188578       -0.20825395013025
N           -0.93344133512247       16.69709841456339        0.80317315923204
C           -3.87480291258169       17.11216029048115        1.08834730235365
C           -5.28307533423086       17.30590626779252        1.36266182501275
C           -5.59487476551778       18.55443807735109        0.91630410679368
C           -4.37686163057717       19.11231654652003        0.37169985028232
C           -3.12977487443546       20.93476434752535       -0.72233594601786
C           -3.04723570702744       22.24174144276032       -1.32351470267887
C           -1.73066642773887       22.44126781862995       -1.65624524270799
C           -1.02411589895058       21.24348818192269       -1.21893193380935
C            1.07155526559516       20.01311524078438       -0.72101814416026
C            2.51157606396991       19.97260577363898       -0.69111119894879
C            2.85614108816916       18.76178366278438       -0.14340934401550
C            1.60484367108587       18.07596671901157        0.12889154869594
C            0.29757959897641       16.12300964576054        0.84132918434831
C            0.19150666101016       14.73196381270516        1.23465959000656
C           -1.13104654242708       14.49499089278164        1.45241067166153
C           -1.82106150724886       15.74411375357917        1.18631366788040
C           -3.17820544215661       15.94568227153636        1.35206335367734
H           -3.75040382145566       15.10915287231088        1.72731711360247
C           -4.28904231416629       20.35939825818425       -0.22143089884705
H           -5.20054942472549       20.93663554838007       -0.28820670525827
C            0.34686526843086       21.08433118755119       -1.21464340071900
H            0.93755944535166       21.89958338590537       -1.60973681231644
C            1.48880552399748       16.76897427262578        0.56814379879552
H            2.39776027211473       16.20016981606379        0.68893102444360
C           -6.92243309654511       19.22959514768942        0.97030088894241
H           -7.60252287298845       18.66916030431398        1.60737451130131
H           -7.36649154171332       19.29355206749455       -0.02341685819440
H           -6.83188154975155       20.24042828761714        1.36467404559161
C           -6.21321335359886       16.34088765101466        2.02018718724733
H           -5.67673339073963       15.50699689188244        2.46182468870459
H           -6.92859867555344       15.94725551325876        1.29743052642213
H           -6.77761514774977       16.83767293606872        2.80933582133418
C           -4.18816765753799       23.18443849568688       -1.52461131984284
H           -4.39976509847083       23.73033786784741       -0.60265493903374
H           -5.09462405679541       22.65516293481715       -1.81278647233347
H           -3.95775520903132       23.91041093359694       -2.30117110956417
C           -1.16077790359758       23.65374418417263       -2.19669549686657
H           -1.72181029113458       24.55781982956944       -1.96814220895378
C           -0.04200593187161       23.77057470225229       -2.91531163897319
H            0.52076872303041       22.91164703700758       -3.23959051359354
H            0.35652433441197       24.73073020221522       -3.21278576431183
C            3.47074435136594       21.03858902400813       -1.10460642107775
H            2.97076237058959       21.97343091811306       -1.33848312295432
H            4.03608412201701       20.72224380615335       -1.98288568795154
H            4.18453666708063       21.22584357682647       -0.30257086725147
C            4.21654746420409       18.32608707740781        0.06655325399486
H            4.92981915937755       18.78282176831770       -0.61251682868182
C            4.67852621859809       17.49116267899979        0.99451035168186
H            4.04301593950303       17.04337194762653        1.73967196414799
H            5.72519781529022       17.24048187540503        1.05273054527482
C            1.33372314040258       13.77677915933269        1.34571694738073
H            1.96443874539873       14.01878775113101        2.20154484849630
H            1.95330255804520       13.81136510907911        0.45091305994733
H            0.97208170867372       12.75828781758556        1.46740476965560
C           -1.78047272363349       13.21159894511982        1.84733932147810
H           -1.05323867639473       12.52882369943350        2.28087255125551
H           -2.22587948083238       12.72727201926457        0.97710677886280
H           -2.56670273565069       13.38134936126268        2.57910284669295
O           -1.29265608820584       19.42876203027513        2.14968115815107
H           -2.12493553661213       19.52363371424085        2.63000400820990
H           -0.59908700932337       19.92331310618108        2.59874560218060
C           -1.01025048181124       15.29739751212051       -4.76175242454756