87
 energy: -124.644982785819 gnorm: 0.262460303456 xtb: 6.7.1 (edcfbbe)
Fe          16.50700000000000       35.16200000000000       34.35099999999999
N           16.75400000000000       36.74200000000000       33.20300000000000
N           18.26600000000000       34.47300000000000       33.80500000000000
N           16.25400000000000       33.55700000000000       35.49200000000000
N           14.70300000000000       35.80600000000000       34.89300000000000
C           15.93600000000000       37.87300000000000       33.15700000000000
C           16.50100000000000       38.86000000000000       32.24800000000000
C           17.64200000000000       38.31600000000000       31.72700000000000
C           17.77500000000000       37.00099999999999       32.31900000000000
C           19.10300000000000       34.99600000000000       32.82600000000000
C           20.31500000000000       34.25100000000000       32.73600000000000
C           20.29100000000000       33.25900000000000       33.69100000000000
C           18.98500000000000       33.44600000000000       34.33800000000000
C           17.18300000000000       32.62700000000000       35.81200000000000
C           16.60700000000000       31.54100000000000       36.56099999999999
C           15.25400000000000       31.82700000000000       36.70600000000000
C           15.08000000000000       33.11500000000000       36.08500000000000
C           13.74700000000000       35.10600000000000       35.60200000000000
C           12.58600000000000       35.92400000000000       35.80899999999999
C           12.83400000000000       37.10899999999999       35.21700000000000
C           14.14700000000000       37.02400000000000       34.64200000000000
C           14.73400000000000       38.01799999999999       33.86500000000000
H           14.22300000000000       38.97900000000000       33.80200000000000
C           18.84000000000000       36.16400000000000       32.11700000000000
H           19.54400000000000       36.43699999999999       31.33100000000000
C           18.49500000000000       32.57000000000000       35.31700000000000
H           19.16600000000000       31.80800000000000       35.71299999999999
C           13.92600000000000       33.85500000000000       36.14200000000000
H           13.07600000000000       33.41200000000000       36.66100000000000
C           18.62800000000000       38.93100000000000       30.74700000000000
H           18.29300000000000       39.95600000000000       30.47800000000000
H           18.67500000000000       38.31300000000000       29.82500000000000
H           19.63400000000000       38.99200000000000       31.21500000000000
C           15.90100000000000       40.23200000000000       31.98999999999999
H           16.18100000000000       40.92000000000000       32.81600000000000
H           14.79400000000000       40.15500000000000       31.94500000000000
H           16.29300000000000       40.63900000000000       31.03400000000000
C           21.41500000000000       34.52600000000000       31.69000000000000
H           21.91700000000000       35.48900000000000       31.92400000000000
H           20.96200000000000       34.59200000000000       30.67800000000000
H           22.17000000000000       33.71100000000000       31.71600000000000
C           21.27000000000000       32.28100000000000       34.04800000000000
H           21.03300000000000       31.20700000000000       34.04700000000000
C           22.60800000000000       32.71700000000000       34.42100000000000
H           22.86500000000000       33.78700000000000       34.42899999999999
H           23.37700000000000       31.98200000000000       34.69900000000000
C           17.33100000000000       30.30200000000000       37.11099999999999
H           18.12700000000000       30.62100000000000       37.81700000000000
H           17.79600000000000       29.73700000000000       36.27500000000000
H           16.60800000000000       29.65400000000000       37.65200000000000
C           14.17800000000000       31.03600000000000       37.21899999999999
H           13.34500000000000       30.74900000000000       36.56099999999999
C           14.14100000000000       30.59000000000000       38.59500000000000
H           14.95300000000000       30.85300000000000       39.28900000000000
H           13.30100000000000       29.98300000000000       38.96300000000000
C           11.31500000000000       35.49800000000000       36.52100000000000
H           11.51900000000000       35.38400000000000       37.60700000000000
H           10.96600000000000       34.52399999999999       36.11500000000000
H           10.52900000000000       36.27100000000000       36.38100000000000
C           11.87200000000000       38.30900000000000       35.20800000000000
H           11.38600000000000       38.40200000000000       36.20300000000000
H           11.08700000000000       38.15500000000000       34.43700000000000
H           12.43700000000000       39.24099999999999       34.99399999999999
C           15.55000000000000       31.57700000000000       30.14400000000000
H           15.73100000000000       31.98200000000000       29.12500000000000
H           14.60100000000000       31.00000000000000       30.13900000000000
H           16.39600000000000       30.91300000000000       30.42400000000000
N           14.49700000000000       33.69000000000000       31.01300000000000
H           13.80600000000000       33.73600000000000       30.29200000000000
C           15.45000000000000       32.70400000000000       31.11700000000000
C           14.64300000000000       34.55300000000000       32.00700000000000
H           14.01800000000000       35.43200000000000       32.16100000000000
N           15.66000000000000       34.15600000000000       32.75200000000000
C           16.18300000000000       32.99900000000000       32.21900000000000
H           17.02700000000000       32.49700000000000       32.67500000000000
C           15.75700000000000       37.04599999999999       37.97199999999999
H           15.48800000000000       36.85300000000000       39.03300000000000
H           14.89600000000000       36.76100000000000       37.33100000000000
H           15.97000000000000       38.13000000000000       37.85100000000000
C           16.98400000000000       36.23000000000000       37.58600000000000
H           16.75500000000000       35.15199999999999       37.71899999999999
H           17.82100000000000       36.49500000000000       38.26700000000000
S           17.44700000000000       36.53400000000000       35.93800000000000
C           19.18100000000000       36.42600000000000       35.99799999999999
H           19.51100000000000       35.42300000000000       36.34400000000000
H           19.58800000000000       37.18300000000000       36.70199999999999
H           19.61100000000000       36.60000000000000       34.98900000000000
87
 energy: -124.699509419450 gnorm: 0.109364711901 xtb: 6.7.1 (edcfbbe)
Fe          16.50878307443553       35.16235506640213       34.35038432703834
N           16.73906301601635       36.75134010000829       33.18937663323197
N           18.28809626468324       34.47644191259047       33.80811413486106
N           16.25675570458624       33.55174667779625       35.50329214815444
N           14.69466828078537       35.80728741632191       34.88936221005252
C           15.93800983667259       37.87139498646432       33.15821157199764
C           16.49748734820274       38.85871560434962       32.25304537133911
C           17.63309333314144       38.31585402592901       31.72827218116657
C           17.76801882905418       37.00424063177847       32.32515175440513
C           19.10189189863163       34.99548236785176       32.82540930737811
C           20.32275849658436       34.25347967313471       32.73101426429195
C           20.29275608605527       33.27562881383513       33.69620559804810
C           18.98190718559819       33.43115889934644       34.33439451209643
C           17.18478057345636       32.60850551593199       35.80302895070709
C           16.60743769313510       31.53641073147452       36.57852869019585
C           15.26656252265919       31.82494231078669       36.71411596938915
C           15.08476181863354       33.10799538529205       36.06988699899860
C           13.75123356876435       35.11300958767350       35.60498212318185
C           12.57827697779788       35.92309184564779       35.80487700703549
C           12.83033505556177       37.12279906046818       35.21849522055070
C           14.14802584446352       37.02841318792180       34.63478987532839
C           14.74725198383140       38.01623114675861       33.86266199748539
H           14.23196149980914       38.96747489088322       33.79004641851022
C           18.83533197016889       36.15690748505448       32.11165511156851
H           19.54737730694011       36.43928481247777       31.34373560571403
C           18.49364490072041       32.57346287082194       35.31648676711040
H           19.15822271778581       31.81015491257811       35.70198543542226
C           13.92329406715168       33.84841065127523       36.13130442656588
H           13.08211693581625       33.41146537530611       36.65978680267807
C           18.61197846245506       38.92394888301954       30.75809050221086
H           18.29906152072381       39.93671545372393       30.48271049990162
H           18.67676733555461       38.32219092566540       29.84317574539939
H           19.61192158512491       38.98690811047997       31.20488328492765
C           15.90613185559267       40.21771196580168       31.99452763011391
H           16.17452573119871       40.90889263026153       32.80338177328840
H           14.81398049003803       40.15845711586392       31.94220197477811
H           16.28200042145040       40.63084928303186       31.05244907374101
C           21.40409452327050       34.52278196576535       31.70555228443098
H           21.90769305047104       35.47293230548295       31.92125769364018
H           20.96999011471618       34.58723272958369       30.70078496816744
H           22.15212711781858       33.72343700277003       31.72153133290314
C           21.30644980646521       32.31189538689022       34.06086924843098
H           21.05620917717521       31.24900194340126       34.06695959750649
C           22.56723327079924       32.70046709016557       34.40044953558394
H           22.83598122871186       33.75151570866022       34.42264340810941
H           23.33519066636858       31.98759733656176       34.68336739277486
C           17.32582674109101       30.31743037064017       37.10501028938608
H           18.11602113933479       30.61668486587999       37.80405363464905
H           17.78664318045624       29.74796673374644       36.28893849960139
H           16.61906531568907       29.67074369859925       37.63569778612098
C           14.18985495470152       31.02941123403255       37.26645981270622
H           13.36376898099729       30.76290343138599       36.60226147193968
C           14.14801386718255       30.59763803850890       38.55324691925848
H           14.93457054537960       30.85538190232413       39.25400947029605
H           13.32232712041869       30.00266696531467       38.93102485268003
C           11.32594653304813       35.49782625603341       36.51796559942228
H           11.51492669081371       35.38139299824341       37.59210421736184
H           10.96864882131739       34.53978159921506       36.12429121984972
H           10.54256353147097       36.25047332333036       36.38361107025609
C           11.88706441173386       38.30386395387796       35.20519713203258
H           11.39983771235140       38.40194392010963       36.18210641608550
H           11.10611550508681       38.16209653576249       34.44770254924371
H           12.42618918368297       39.23066275957471       34.99393154047533
C           15.54742416272749       31.57906237319724       30.14102149701392
H           15.72781343849553       31.96779067678678       29.13176499709326
H           14.61736084005238       30.99933560404446       30.13179694263644
H           16.37733207828343       30.92350223833269       30.41828037524227
N           14.49570246826003       33.68113503220113       31.00395997343232
H           13.79995559814902       33.73116368251506       30.28039070798546
C           15.44646294035906       32.69998551360165       31.11249879690015
C           14.65773847116406       34.54637108575058       32.01601550927683
H           14.04145046004574       35.41688560733017       32.17054739046282
N           15.66713138005455       34.16369821387575       32.76731167830427
C           16.17153090009088       33.01215852756170       32.22281281688464
H           17.00907200061371       32.51119319641734       32.67218256848400
C           15.75590214264871       37.04425788613653       37.97879342895446
H           15.48554184968097       36.85779423762678       39.02287124937231
H           14.90890503674611       36.77130428619095       37.34342417284509
H           15.96116205156889       38.11274969585112       37.85186063472466
C           16.98053189628926       36.22195923332806       37.60312400382450
H           16.76028664008927       35.15191883518383       37.72431721205857
H           17.81839520526973       36.48706539030365       38.26417658823544
S           17.43321582354542       36.56527247471245       35.92049514599140
C           19.19553773834426       36.42016921265765       36.00684160881139
H           19.51325939734745       35.42416992935732       36.33937701279588
H           19.59404678969854       37.17687825904283       36.69463655055187
H           19.60361530664228       36.59808843812559       35.00644929634127
87
 energy: -124.709606394909 gnorm: 0.046406508741 xtb: 6.7.1 (edcfbbe)
Fe          16.50249948450769       35.16268478707404       34.34283278728270
N           16.72692728411282       36.75776545364457       33.17371406820306
N           18.30038711015108       34.47997704971338       33.80504685555918
N           16.25937095144059       33.54412163055163       35.50288833471242
N           14.68612968302280       35.80837656391678       34.88539977628168
C           15.93630903186958       37.86550126813083       33.15256745363036
C           16.49287221995166       38.85727668552080       32.25528233326412
C           17.62484180827071       38.31367430845182       31.72796918397954
C           17.75951953057141       37.00297778696270       32.32465486465961
C           19.09667558346819       34.99838853271400       32.82714418232052
C           20.32597473033674       34.25693453113820       32.72943246545182
C           20.28189794651887       33.29014462702399       33.69698704159708
C           18.98073252874673       33.43084269108863       34.33718083035372
C           17.18931966384295       32.59677353685792       35.79475532641518
C           16.60788887779151       31.53447995120069       36.58577827210658
C           15.27909144866338       31.83101980507812       36.71013855570325
C           15.09306978862036       33.11114203803254       36.05741936125103
C           13.75493842275071       35.11768780350863       35.60157562931166
C           12.57592586535086       35.92357572320413       35.80066121192141
C           12.82920759691857       37.13142198320664       35.21901225369650
C           14.14721184273549       37.03039918112079       34.62779376324055
C           14.75291269958815       38.01172258748571       33.85592462960671
H           14.23536204177116       38.95660034339218       33.77252059966357
C           18.82941798079773       36.15245702814896       32.10739918164767
H           19.55212980586830       36.44555936614299       31.35889026774417
C           18.49423365644231       32.58059490772865       35.31655104758444
H           19.15163313304404       31.80550600553477       35.68276403820189
C           13.92293643637804       33.84481731537376       36.11796734587210
H           13.08878634599196       33.40803807267702       36.65018448137646
C           18.59687919755751       38.91622486390063       30.76664186065675
H           18.29241271860226       39.92221208486738       30.48993485366512
H           18.66955716167723       38.31766462322591       29.85852194611780
H           19.59111693663719       38.97542787205946       31.20912315357182
C           15.90746531483675       40.20633733985452       31.99853215053678
H           16.16992721620522       40.89590544282450       32.80164571037444
H           14.82279468954659       40.15418830462976       31.93974027521892
H           16.28013138837641       40.61883457671126       31.06405492380870
C           21.39666561319092       34.51939695382374       31.72369244345996
H           21.90095965245930       35.46374802389985       31.92943960504080
H           20.97035607059295       34.58081181417784       30.72274988958529
H           22.13793961093947       33.72476136395259       31.73866215270063
C           21.31977690263915       32.33561078213179       34.06875598972150
H           21.04637668902636       31.28346920698538       34.08438815198029
C           22.53475758074584       32.69594179533737       34.39552378032644
H           22.82620834213123       33.73398100858360       34.40808069872421
H           23.30455385081994       31.99065018504554       34.66347400943759
C           17.32164774409075       30.33144987567744       37.10031234852188
H           18.11062963143792       30.61976417017460       37.79499474272342
H           17.77949701677720       29.76579644461700       36.28962253880900
H           16.62268546436191       29.68278555598049       37.62260893768827
C           14.20124084015479       31.03819721182633       37.29641240942921
H           13.38261760935042       30.79385217041632       36.62200159736932
C           14.15853474022595       30.61491055047654       38.53438936240722
H           14.93708172335854       30.85058573910385       39.24088573869327
H           13.34689538942144       30.01391952879212       38.91214644635626
C           11.33750295020350       35.49700664144488       36.51502704778835
H           11.52355194851452       35.37754798481007       37.58228807492389
H           10.97768700172848       34.54570541025983       36.12776459922851
H           10.55346671945390       36.23800523356537       36.38514160898075
C           11.90406463899399       38.30257608634255       35.19891501710521
H           11.41542614893691       38.40467034705840       36.16660813919258
H           11.12615220894350       38.16777237458594       34.44611296051174
H           12.43229840563357       39.22574869036167       34.98633216932445
C           15.54571472081162       31.57882017054440       30.14033710255418
H           15.72506135420404       31.95917248059597       29.13587252774981
H           14.62572467501856       30.99659275188807       30.12700194909548
H           16.36741965790701       30.92807955557731       30.41740593290603
N           14.49442804297791       33.67776697053903       31.00049741285386
H           13.79547553930995       33.73371382954274       30.27723293493505
C           15.44322712283368       32.69680609545812       31.11140898226170
C           14.67128497058730       34.54184464223644       32.02474013066220
H           14.06397629511598       35.40874490147955       32.18291997718681
N           15.67447729014409       34.16579277718709       32.77755767517143
C           16.16340533909587       33.01854575976939       32.22593408606093
H           16.99593709910220       32.51348510160219       32.66880865818653
C           15.75094168321240       37.03933209590683       37.99384344804428
H           15.47568208771595       36.85980218626058       39.02881580284087
H           14.91567316022774       36.77245970557777       37.35541029255756
H           15.95899863715602       38.09763672765147       37.85896182457931
C           16.97429664914634       36.21458844694673       37.62393979132067
H           16.76448904101190       35.14847502421198       37.72137268151186
H           17.81819678358997       36.47896152204158       38.26328800327992
S           17.42510791289676       36.58924670429172       35.91096633504415
C           19.21402833607557       36.41409157655568       36.01404808739147
H           19.50414847419050       35.41810978922561       36.33810888089631
H           19.60361133220876       37.16717124448538       36.69620397987899
H           19.60363117836368       36.59383811829432       35.01636202641098
87
 energy: -124.711789552305 gnorm: 0.013278088018 xtb: 6.7.1 (edcfbbe)
Fe          16.49921196647593       35.16673241364813       34.33989440076026
N           16.71611989016870       36.75317247306567       33.16016017255119
N           18.29873925815343       34.48850040293912       33.80425678035051
N           16.26347024439424       33.54888455243190       35.50041597525642
N           14.68292527996211       35.80850252848312       34.87537385388139
C           15.92852096335602       37.85956547203325       33.14175132554163
C           16.48447930991900       38.85338133987717       32.24914531833672
C           17.61515340086643       38.30942580025955       31.72247366250166
C           17.75037233844902       36.99905798422320       32.31668125148337
C           19.09153338773524       35.00461013035191       32.82755759527946
C           20.32376218908561       34.26480006649065       32.73394339598750
C           20.27280169592160       33.30290350719125       33.70225716257715
C           18.97647502726269       33.43969118927748       34.33818123651588
C           17.19224005480429       32.60022252456925       35.79125389371864
C           16.61058598281529       31.54251753922907       36.58654641234677
C           15.28575441980013       31.84508360832828       36.70979875503988
C           15.09797872154744       33.11962323740933       36.05031017954135
C           13.75506004274822       35.11850628452747       35.59090851370657
C           12.57716244264444       35.92473682719784       35.79393867822470
C           12.83015229988235       37.13269996425777       35.21335753250941
C           14.14478306432363       37.02983110001391       34.61846029623050
C           14.74735213784877       38.00881668964776       33.84477895227437
H           14.22865080119405       38.95152046095107       33.75229769169712
C           18.82485528991051       36.15459739914281       32.10388762431898
H           19.55679097015268       36.45575573222960       31.36795203683126
C           18.49283419615219       32.58426055772185       35.31171756696426
H           19.14816540066522       31.80106098876263       35.66504265535095
C           13.92309161180641       33.84522113921122       36.10481572020334
H           13.09142608242350       33.40475600338390       36.63632033706207
C           18.58790565341817       38.91000867592066       30.76610715788720
H           18.28467659631009       39.91555960968083       30.48815084406787
H           18.66324970850410       38.30846968990014       29.86059387944411
H           19.57939242474765       38.96662579769344       31.21387253735491
C           15.90231579437380       40.20222590476801       31.99795885622598
H           16.16200814402350       40.88722911994191       32.80560101627636
H           14.81801497812517       40.15135564523893       31.93378024448670
H           16.27960459994133       40.61714870681296       31.06685280587315
C           21.39731445485607       34.51943841714252       31.73455532756875
H           21.90269806106026       35.46349938109443       31.93821661602674
H           20.97514285515728       34.57547393482194       30.73168610240215
H           22.13484378540840       33.72167761215925       31.75965809027874
C           21.30292785512298       32.34237860238356       34.07403373491331
H           21.01004083069192       31.29674835766600       34.10618024782990
C           22.54563176669198       32.69332265383338       34.37353400078209
H           22.84524863810782       33.72891759052459       34.39121144462145
H           23.30042376321616       31.97934377897196       34.65677558887785
C           17.32355258065131       30.33902575885665       37.09496364785716
H           18.11356024300488       30.62405255006973       37.78973569380745
H           17.78006787630755       29.77877499045895       36.27995248722107
H           16.62451098055794       29.68772281538881       37.61351778862016
C           14.20816486109485       31.05689989238456       37.29872898353324
H           13.38327294976464       30.83468595170819       36.62630048839664
C           14.17852919722020       30.60664049644842       38.54304885360106
H           14.95649190279862       30.84038201697191       39.25051544461220
H           13.35793148533135       30.01902381205424       38.92026011162725
C           11.34530918881477       35.49418181614665       36.51430095850718
H           11.53830046907759       35.37224310566065       37.58005852310285
H           10.98633977643029       34.54196484012443       36.12811484190511
H           10.55741620091047       36.23187240627415       36.38993124078360
C           11.91533585246104       38.30947059746882       35.18911452338060
H           11.42522372272061       38.41792009051874       36.15517297071050
H           11.13946549089532       38.17920448335514       34.43344902366449
H           12.45008702093210       39.22874815217507       34.97433599468562
C           15.54223650142881       31.57774679820189       30.14289210376466
H           15.72287639434691       31.95566918478877       29.13755333101926
H           14.62392138632824       30.99266523596781       30.12642598862151
H           16.36353894368387       30.92687608577164       30.42103219126489
N           14.49493092582737       33.68039531904405       31.00501246177984
H           13.79538219988440       33.74099223477081       30.28246015691540
C           15.44038296010400       32.69525021314425       31.11529289443218
C           14.67891695478533       34.54271834464060       32.03136790981380
H           14.07842281007510       35.41285597755225       32.19325083494319
N           15.68028494161192       34.16316610792550       32.78344714781055
C           16.16153114130995       33.01443617528687       32.23008430531154
H           16.99133442830577       32.50354654000278       32.67035966352505
C           15.74734817341022       37.03052554077941       38.01127931753196
H           15.46735457925809       36.85137169076533       39.04536469709086
H           14.91313446640495       36.76679776816967       37.37007531625672
H           15.95654164048739       38.08855544855441       37.87776184430268
C           16.97006868166988       36.20810883341568       37.63752189235429
H           16.76429616493241       35.14045300880522       37.71873769879403
H           17.81814295580258       36.46748963588686       38.27158552631038
S           17.42303646446785       36.59979495617716       35.91752663137120
C           19.21946196534587       36.40633647567596       36.02205430430422
H           19.49193428183478       35.40365968278743       36.33934203670984
H           19.61528071672904       37.15172156919783       36.70753637945177
H           19.60619214276531       36.58719200121031       35.02428631834297
87
 energy: -124.713002642315 gnorm: 0.014560599743 xtb: 6.7.1 (edcfbbe)
Fe          16.49397430275338       35.16912051984015       34.33211014237347
N           16.70632714618476       36.74884661390443       33.14764619967391
N           18.29496641538881       34.49780995067078       33.80074467575384
N           16.26628612926332       33.55538113221027       35.49548828658578
N           14.67996807031741       35.80829059026552       34.86215559992256
C           15.91807619935146       37.85251949535300       33.12635822797443
C           16.47290372282724       38.84863804321528       32.23712268133598
C           17.60400585177010       38.30510306681744       31.71257171378704
C           17.74103395142270       36.99569702234302       32.30713746689793
C           19.08875914485078       35.01447252600375       32.82965442011136
C           20.32597983933727       34.27795582334790       32.74264484430620
C           20.26740747712913       33.31881043448877       33.71167042458426
C           18.97122622740559       33.44960958235396       34.33699408532748
C           17.19399963866078       32.60607042133415       35.78832509533072
C           16.61238432538554       31.55434558268753       36.59049164358876
C           15.29010384282691       31.86374039776496       36.71491163852791
C           15.10232298230389       33.13168526632412       36.04465385040464
C           13.75426596364072       35.12007451760409       35.57742338226523
C           12.57713128531379       35.92683876105338       35.78473503196265
C           12.82957308235270       37.13370310922614       35.20446049458111
C           14.14056560555998       37.02848147065848       34.60540703368969
C           14.73663944551581       38.00474815929365       33.82697213909911
H           14.21715492483059       38.94567208215251       33.72511925820397
C           18.82262185523247       36.16034939953906       32.10091115927651
H           19.56041204649922       36.46710528161997       31.37442343982197
C           18.49002468392898       32.58821803418842       35.30525998089824
H           19.14506480238919       31.79983722063421       35.64743631420296
C           13.92180835855639       33.84743253681029       36.09058761697840
H           13.09147234700751       33.40104784293180       36.61758844373360
C           18.57915526452500       38.90341503603514       30.75982099981693
H           18.27605951412859       39.90827674059122       30.47755639124050