87
 energy: -124.644982785819 gnorm: 0.262460303456 xtb: 6.7.1 (edcfbbe)
Fe          16.50700000000000       35.16200000000000       34.35099999999999
N           16.75400000000000       36.74200000000000       33.20300000000000
N           18.26600000000000       34.47300000000000       33.80500000000000
N           16.25400000000000       33.55700000000000       35.49200000000000
N           14.70300000000000       35.80600000000000       34.89300000000000
C           15.93600000000000       37.87300000000000       33.15700000000000
C           16.50100000000000       38.86000000000000       32.24800000000000
C           17.64200000000000       38.31600000000000       31.72700000000000
C           17.77500000000000       37.00099999999999       32.31900000000000
C           19.10300000000000       34.99600000000000       32.82600000000000
C           20.31500000000000       34.25100000000000       32.73600000000000
C           20.29100000000000       33.25900000000000       33.69100000000000
C           18.98500000000000       33.44600000000000       34.33800000000000
C           17.18300000000000       32.62700000000000       35.81200000000000
C           16.60700000000000       31.54100000000000       36.56099999999999
C           15.25400000000000       31.82700000000000       36.70600000000000
C           15.08000000000000       33.11500000000000       36.08500000000000
C           13.74700000000000       35.10600000000000       35.60200000000000
C           12.58600000000000       35.92400000000000       35.80899999999999
C           12.83400000000000       37.10899999999999       35.21700000000000
C           14.14700000000000       37.02400000000000       34.64200000000000
C           14.73400000000000       38.01799999999999       33.86500000000000
H           14.22300000000000       38.97900000000000       33.80200000000000
C           18.84000000000000       36.16400000000000       32.11700000000000
H           19.54400000000000       36.43699999999999       31.33100000000000
C           18.49500000000000       32.57000000000000       35.31700000000000
H           19.16600000000000       31.80800000000000       35.71299999999999
C           13.92600000000000       33.85500000000000       36.14200000000000
H           13.07600000000000       33.41200000000000       36.66100000000000
C           18.62800000000000       38.93100000000000       30.74700000000000
H           18.29300000000000       39.95600000000000       30.47800000000000
H           18.67500000000000       38.31300000000000       29.82500000000000
H           19.63400000000000       38.99200000000000       31.21500000000000
C           15.90100000000000       40.23200000000000       31.98999999999999
H           16.18100000000000       40.92000000000000       32.81600000000000
H           14.79400000000000       40.15500000000000       31.94500000000000
H           16.29300000000000       40.63900000000000       31.03400000000000
C           21.41500000000000       34.52600000000000       31.69000000000000
H           21.91700000000000       35.48900000000000       31.92400000000000
H           20.96200000000000       34.59200000000000       30.67800000000000
H           22.17000000000000       33.71100000000000       31.71600000000000
C           21.27000000000000       32.28100000000000       34.04800000000000
H           21.03300000000000       31.20700000000000       34.04700000000000
C           22.60800000000000       32.71700000000000       34.42100000000000
H           22.86500000000000       33.78700000000000       34.42899999999999
H           23.37700000000000       31.98200000000000       34.69900000000000
C           17.33100000000000       30.30200000000000       37.11099999999999
H           18.12700000000000       30.62100000000000       37.81700000000000
H           17.79600000000000       29.73700000000000       36.27500000000000
H           16.60800000000000       29.65400000000000       37.65200000000000
C           14.17800000000000       31.03600000000000       37.21899999999999
H           13.34500000000000       30.74900000000000       36.56099999999999
C           14.14100000000000       30.59000000000000       38.59500000000000
H           14.95300000000000       30.85300000000000       39.28900000000000
H           13.30100000000000       29.98300000000000       38.96300000000000
C           11.31500000000000       35.49800000000000       36.52100000000000
H           11.51900000000000       35.38400000000000       37.60700000000000
H           10.96600000000000       34.52399999999999       36.11500000000000
H           10.52900000000000       36.27100000000000       36.38100000000000
C           11.87200000000000       38.30900000000000       35.20800000000000
H           11.38600000000000       38.40200000000000       36.20300000000000
H           11.08700000000000       38.15500000000000       34.43700000000000
H           12.43700000000000       39.24099999999999       34.99399999999999
C           15.55000000000000       31.57700000000000       30.14400000000000
H           15.73100000000000       31.98200000000000       29.12500000000000
H           14.60100000000000       31.00000000000000       30.13900000000000
H           16.39600000000000       30.91300000000000       30.42400000000000
N           14.49700000000000       33.69000000000000       31.01300000000000
H           13.80600000000000       33.73600000000000       30.29200000000000
C           15.45000000000000       32.70400000000000       31.11700000000000
C           14.64300000000000       34.55300000000000       32.00700000000000
H           14.01800000000000       35.43200000000000       32.16100000000000
N           15.66000000000000       34.15600000000000       32.75200000000000
C           16.18300000000000       32.99900000000000       32.21900000000000
H           17.02700000000000       32.49700000000000       32.67500000000000
C           15.75700000000000       37.04599999999999       37.97199999999999
H           15.48800000000000       36.85300000000000       39.03300000000000
H           14.89600000000000       36.76100000000000       37.33100000000000
H           15.97000000000000       38.13000000000000       37.85100000000000
C           16.98400000000000       36.23000000000000       37.58600000000000
H           16.75500000000000       35.15199999999999       37.71899999999999
H           17.82100000000000       36.49500000000000       38.26700000000000
S           17.44700000000000       36.53400000000000       35.93800000000000
C           19.18100000000000       36.42600000000000       35.99799999999999
H           19.51100000000000       35.42300000000000       36.34400000000000
H           19.58800000000000       37.18300000000000       36.70199999999999
H           19.61100000000000       36.60000000000000       34.98900000000000
87
 energy: -124.699509400044 gnorm: 0.109364816031 xtb: 6.7.1 (edcfbbe)
Fe          16.50878306995187       35.16235506425512       34.35038432530339
N           16.73906302802958       36.75134009862421       33.18937664332198
N           18.28809625048245       34.47644190920810       33.80811413011751
N           16.25675570290090       33.55174668218814       35.50329214305124
N           14.69466828368824       35.80728741609992       34.88936221406681
C           15.93800983855616       37.87139499075523       33.15821157039496
C           16.49748735254089       38.85871560785167       32.25304536674552
C           17.63309334182322       38.31585402800015       31.72827217994353
C           17.76801883549698       37.00424063159841       32.32515175091086
C           19.10189189985099       34.99548236700061       32.82540930775030
C           20.32275849417719       34.25347966865282       32.73101426679346
C           20.29275608547210       33.27562879961770       33.69620558941379
C           18.98190718984369       33.43115890738520       34.33439451307478
C           17.18478057171705       32.60850552655113       35.80302895668120
C           16.60743768933469       31.53641073030519       36.57852867879457
C           15.26656251121030       31.82494230938434       36.71411596264313
C           15.08476181387796       33.10799538904736       36.06988701035552
C           13.75123356272934       35.11300958248393       35.60498211995829
C           12.57827697968906       35.92309184655624       35.80487701397046
C           12.83033505603216       37.12279905412078       35.21849521856815
C           14.14802584269393       37.02841318555922       34.63478988156174
C           14.74725197473166       38.01623114728184       33.86266199942444
H           14.23196149198695       38.96747489837154       33.79004643315161
C           18.83533197530618       36.15690748988575       32.11165511441362
H           19.54737730183115       36.43928480851083       31.34373559279639
C           18.49364490169929       32.57346286951939       35.31648676955172
H           19.15822272436157       31.81015491525035       35.70198544880050
C           13.92329406870699       33.84841065880217       36.13130444081235
H           13.08211692908394       33.41146537822318       36.65978680463288
C           18.61197847605450       38.92394889077521       30.75809049411638
H           18.29906151967349       39.93671546756395       30.48271049529697
H           18.67676733653221       38.32219092373974       29.84317573336228
H           19.61192160335081       38.98690811807327       31.20488328750348
C           15.90613185237662       40.21771197856868       31.99452762553503
H           16.17452573745575       40.90889263878390       32.80338178057191
H           14.81398047720466       40.15845711367370       31.94220197608225
H           16.28200042898255       40.63084929032684       31.05244906143552
C           21.40409453072616       34.52278196776051       31.70555227126415
H           21.90769305688590       35.47293231434007       31.92125769273863
H           20.96999011142060       34.58723273568039       30.70078495041496
H           22.15212713190814       33.72343699678292       31.72153132363019
C           21.30644978856342       32.31189536028635       34.06086923916069
H           21.05620916242395       31.24900190909320       34.06695957288634
C           22.56723330156473       32.70046710073480       34.40044955555729
H           22.83598125478361       33.75151573182728       34.42264341539982
H           23.33519070239201       31.98759733793246       34.68336740891905
C           17.32582674370937       30.31743035857055       37.10501029352672
H           18.11602114493460       30.61668486549612       37.80405364353333
H           17.78664318804818       29.74796672410581       36.28893849277721
H           16.61906531081177       29.67074368485720       37.63569779851088
C           14.18985493966339       31.02941123368127       37.26645978518953
H           13.36376896876759       30.76290341278471       36.60226143531520
C           14.14801385822086       30.59763803300888       38.55324694739794
H           14.93457055360993       30.85538189656139       39.25400949735396
H           13.32232710356758       30.00266695104196       38.93102488249196
C           11.32594652265253       35.49782625728665       36.51796560248001
H           11.51492669089659       35.38139300121285       37.59210422797632
H           10.96864881892548       34.53978158821079       36.12429121365749
H           10.54256352290928       36.25047334107613       36.38361106796466
C           11.88706439720827       38.30386395543682       35.20519713668822
H           11.39983769779555       38.40194391952591       36.18210643274453
H           11.10611548762637       38.16209653026073       34.44770254430322
H           12.42618918722505       39.23066276376372       34.99393154268321
C           15.54742416623407       31.57906237031280       30.14102149836673
H           15.72781344227447       31.96779069070528       29.13176499373604
H           14.61736082750376       30.99933560722196       30.13179695164168
H           16.37733209294164       30.92350223011373       30.41828037938747
N           14.49570246954471       33.68113503669570       31.00395997829508
H           13.79995560223153       33.73116368491394       30.28039071533800
C           15.44646294542481       32.69998551588118       31.11249880067024
C           14.65773845958384       34.54637109102045       32.01601550381175
H           14.04145043939481       35.41688562058657       32.17054738297896
N           15.66713137479667       34.16369820947362       32.76731166812418
C           16.17153090915674       33.01215851872613       32.22281281521919
H           17.00907201607276       32.51119318534284       32.67218257004360
C           15.75590214263300       37.04425788878508       37.97879342122733
H           15.48554185382415       36.85779423474144       39.02287125382244
H           14.90890502793452       36.77130427830561       37.34342416210699
H           15.96116205874819       38.11274970893630       37.85186063229386
C           16.98053189763691       36.22195923941740       37.60312399406019
H           16.76028663413123       35.15191883720198       37.72431720989013
H           17.81839520624301       36.48706539953609       38.26417658938706
S           17.43321583236475       36.56527244625714       35.92049515212747
C           19.19553773350754       36.42016921663322       36.00684160055100
H           19.51325939794414       35.42416993032315       36.33937701575454
H           19.59404678017702       37.17687826522166       36.69463655341222
H           19.60361531301764       36.59808843973121       35.00644928227976
87
 energy: -124.709606393099 gnorm: 0.046406518367 xtb: 6.7.1 (edcfbbe)
Fe          16.50249948358484       35.16268477838536       34.34283278541384
N           16.72692729637150       36.75776545982396       33.17371407690552
N           18.30038711210498       34.47997703908636       33.80504684774962
N           16.25937094443331       33.54412162199839       35.50288833606958
N           14.68612968250396       35.80837656456216       34.88539978700000
C           15.93630903854609       37.86550127506479       33.15256745871808
C           16.49287222835561       38.85727669230627       32.25528233498277
C           17.62484182107096       38.31367431486506       31.72796918600338
C           17.75951954013631       37.00297779166813       32.32465486991692
C           19.09667558660600       34.99838852568400       32.82714417945730
C           20.32597473422764       34.25693451769865       32.72943245773001
C           20.28189795246852       33.29014461016586       33.69698702843645
C           18.98073253852266       33.43084268428622       34.33718083022838
C           17.18931966273625       32.59677353408210       35.79475533154089
C           16.60788887189074       31.53447993889844       36.58577826834897
C           15.27909144004132       31.83101979117560       36.71013855363001
C           15.09306978059914       33.11114202981635       36.05741937189806
C           13.75493841910667       35.11768780024968       35.60157563560334
C           12.57592586320183       35.92357572194704       35.80066122489576
C           12.82920759345563       37.13142197990500       35.21901225963902
C           14.14721184220699       37.03039917945122       34.62779377118596
C           14.75291269933460       38.01172258990647       33.85592463961089
H           14.23536204205253       38.95660035133185       33.77252062290295
C           18.82941798864880       36.15245702856752       32.10739918384000
H           19.55212979879117       36.44555935526479       31.35889025179924
C           18.49423365717572       32.58059490675149       35.31655105357594
H           19.15163313956051       31.80550601458671       35.68276406090072
C           13.92293643395765       33.84481731573760       36.11796736501740
H           13.08878633965525       33.40803807664310       36.65018449750780
C           18.59687921166218       38.91622487547867       30.76664185608933
H           18.29241272645787       39.92221209647363       30.48993485206892
H           18.66955716938040       38.31766463391521       29.85852193935643
H           19.59111695374464       38.97542788536757       31.20912314758224
C           15.90746531945231       40.20633734881742       31.99853214848550
H           16.16992722384578       40.89590545599204       32.80164570644568
H           14.82279469198696       40.15418830676285       31.93974028018949
H           16.28013139232647       40.61883458385775       31.06405491766184
C           21.39666561574372       34.51939695342957       31.72369242927829
H           21.90095965460159       35.46374802543067       31.92943959216537
H           20.97035606813177       34.58081182246976       30.72274987634076
H           22.13793962238827       33.72476136691445       31.73866212681720
C           21.31977692056697       32.33561076766942       34.06875597904840
H           21.04637671368312       31.28346918958994       34.08438811959106
C           22.53475758873971       32.69594179547789       34.39552379182652
H           22.82620834028446       33.73398101251365       34.40808072655106
H           23.30455386744020       31.99065019445096       34.66347403027098
C           17.32164774065066       30.33144986339300       37.10031235279453
H           18.11062962796997       30.61976416550492       37.79499474677518
H           17.77949702061611       29.76579643059168       36.28962254502665
H           16.62268546372342       29.68278554168351       37.62260895034910
C           14.20124082924377       31.03819718586480       37.29641240700805
H           13.38261760452593       30.79385213357104       36.62200158107028
C           14.15853472174376       30.61491054564913       38.53438936003494
H           14.93708170022431       30.85058574492866       39.24088574705237
H           13.34689536955926       30.01391952500104       38.91214645510146
C           11.33750293877285       35.49700664683967       36.51502704901061
H           11.52355193205317       35.37754799200456       37.58228808055652
H           10.97768699062448       34.54570541230329       36.12776459939938
H           10.55346671154414       36.23800524719705       36.38514160361382
C           11.90406462356437       38.30257607846794       35.19891502828833
H           11.41542613142617       38.40467033585807       36.16660815177821
H           11.12615218890810       38.16777236484474       34.44611297307485
H           12.43229838773517       39.22574868803304       34.98633218018538
C           15.54571472732207       31.57882017102761       30.14033710342767
H           15.72506135557052       31.95917249026717       29.13587252597580
H           14.62572467348359       30.99659275524151       30.12700195770296
H           16.36741967123196       30.92807955766471       30.41740593247635
N           14.49442804442268       33.67776696945970       31.00049741169001
H           13.79547554088635       33.73371382586089       30.27723293412794
C           15.44322713102443       32.69680609742121       31.11140898609975
C           14.67128496206034       34.54184464579149       32.02474012567811
H           14.06397627411358       35.40874490871495       32.18291996458684
N           15.67447728538874       34.16579278120265       32.77755766992537
C           16.16340534508340       33.01854576277289       32.22593408778192
H           16.99593710827673       32.51348510479330       32.66880865905230
C           15.75094168517115       37.03933210379446       37.99384343362377
H           15.47568209260529       36.85980219412304       39.02881579164111
H           14.91567316031199       36.77245970489088       37.35541027615746
H           15.95899864193503       38.09763674153522       37.85896180735585
C           16.97429665039734       36.21458845185484       37.62393978545460
H           16.76448903725169       35.14847503086996       37.72137268218793
H           17.81819678223628       36.47896153611322       38.26328799765602
S           17.42510791553855       36.58924668445172       35.91096632623045
C           19.21402833985815       36.41409158443829       36.01404807593484
H           19.50414848297401       35.41810980308831       36.33810888112558
H           19.60361131669500       37.16717126330875       36.69620397032833
H           19.60363118149166       36.59383812505484       35.01636201238141
87
 energy: -124.711789556239 gnorm: 0.013278251190 xtb: 6.7.1 (edcfbbe)
Fe          16.49921195221600       35.16673231829922       34.33989440204417
N           16.71611984492291       36.75317230407818       33.16016034427592
N           18.29873904218280       34.48850022244977       33.80425660281904
N           16.26347042219307       33.54888427933452       35.50041553393076
N           14.68292541563024       35.80850243107115       34.87537393834690
C           15.92852086907226       37.85956529992014       33.14175149633709
C           16.48447919956159       38.85338115779370       32.24914547009086
C           17.61515342088038       38.30942565179184       31.72247404858970
C           17.75037211638739       36.99905769088838       32.31668124933486
C           19.09153314160904       35.00460996424611       32.82755741415779
C           20.32376189108979       34.26480002684126       32.73394327302202
C           20.27280143156983       33.30290340117345       33.70225691734597
C           18.97647491169552       33.43969130651848       34.33818126351932
C           17.19224032559345       32.60022232874753       35.79125363203609
C           16.61058611925067       31.54251725024237       36.58654597313988
C           15.28575451555218       31.84508363255002       36.70979827852447
C           15.09797901503849       33.11962340510149       36.05031000774628
C           13.75506020603772       35.11850612196172       35.59090860956012
C           12.57716264671313       35.92473686640320       35.79393908698395
C           12.83015259161348       37.13269991744460       35.21335785620665
C           14.14478324630595       37.02983101362598       34.61846059345173
C           14.74735208535184       38.00881659954684       33.84477918987167
H           14.22865077785697       38.95152041531950       33.75229790333052
C           18.82485497259863       36.15459717461867       32.10388744775781
H           19.55679051940948       36.45575542181101       31.36795168123612
C           18.49283435922261       32.58426038346022       35.31171723150347
H           19.14816549064910       31.80106037334054       35.66504192790823
C           13.92309197329906       33.84522106588676       36.10481569896628
H           13.09142651088162       33.40475590928195       36.63632053893486
C           18.58790587852403       38.91000872324869       30.76610796451447
H           18.28467632478732       39.91555961791872       30.48815170488935
H           18.66325013338857       38.30846936002702       29.86059483983684
H           19.57939234592024       38.96662590653993       31.21387421960372
C           15.90231532213467       40.20222546281219       31.99795871270857
H           16.16200742698351       40.88722885914244       32.80560095721646
H           14.81801442625208       40.15135455964040       31.93377988847691
H           16.27960450328466       40.61714781045893       31.06685250110914
C           21.39731428038600       34.51943837759371       31.73455534553185
H           21.90269815413255       35.46349915157564       31.93821731607152
H           20.97514241920399       34.57547446541877       30.73168616314027
H           22.13484322344617       33.72167709428907       31.75965799926783
C           21.30292782705006       32.34237882638206       34.07403366436886
H           21.01004024431435       31.29674836369907       34.10618007000686
C           22.54563120356270       32.69332323823456       34.37353440466240
H           22.84524832491371       33.72891852633836       34.39121181759538
H           23.30042411997481       31.97934453147304       34.65677494705472
C           17.32355230125112       30.33902538028086       37.09496332644163
H           18.11356037792006       30.62405207972903       37.78973513048388
H           17.78006708420634       29.77877436788569       36.27995190352944
H           16.62451041864626       29.68772285173222       37.61351785093489
C           14.20816491456172       31.05690020551901       37.29872868447743
H           13.38327315943610       30.83468645837822       36.62629940536380
C           14.17852879582622       30.60664166435244       38.54304860303476
H           14.95649153795396       30.84038321115408       39.25051575590764
H           13.35793120283070       30.01902446156784       38.92026003885844
C           11.34530955112103       35.49418220469943       36.51430162152607
H           11.53830127318534       35.37224330370662       37.58005920732426
H           10.98633966693303       34.54196532366548       36.12811534733668
H           10.55741685889561       36.23187337745726       36.38993217853049
C           11.91533609668764       38.30947058088135       35.18911460308727
H           11.42522352019632       38.41791971339398       36.15517297226555
H           11.13946623966370       38.17920432829906       34.43344847272083
H           12.45008761866200       39.22874817862017       34.97433647839654
C           15.54223651468200       31.57774657485317       30.14289196249619
H           15.72287619414181       31.95566903336239       29.13755306178315
H           14.62392125071752       30.99266503473891       30.12642610921313
H           16.36353913926770       30.92687581050767       30.42103195114327
N           14.49493124549610       33.68039535121252       31.00501261317660
H           13.79538236976732       33.74099238390582       30.28246053226787
C           15.44038323089100       32.69525009883494       31.11529274713811
C           14.67891749656055       34.54271828027122       32.03136797161625
H           14.07842345850769       35.41285601269723       32.19325112177393
N           15.68028560528807       34.16316581077972       32.78344691836308
C           16.16153174814661       33.01443587134425       32.23008393722753
H           16.99133515750674       32.50354608844282       32.67035906033954
C           15.74734782136272       37.03052603470513       38.01127879649572
H           15.46735377142274       36.85137274363998       39.04536425775601
H           14.91313426379467       36.76679803086358       37.37007451593502
H           15.95654173007631       38.08855590238952       37.87776085678994
C           16.97006838038365       36.20810913192258       37.63752171637922
H           16.76429571022459       35.14045326086534       37.71873734572861
H           17.81814257871672       36.46748981695441       38.27158558672723
S           17.42303676914932       36.59979491449774       35.91752669446605
C           19.21946214931749       36.40633646152761       36.02205455237777
H           19.49193400044377       35.40365961288219       36.33934271995292
H           19.61528094492009       37.15172161365010       36.70753671041521
H           19.60619267859255       36.58719162528580       35.02428655319028
87
 energy: -124.713002637400 gnorm: 0.014559997905 xtb: 6.7.1 (edcfbbe)
Fe          16.49397438436578       35.16912029380767       34.33211008400522
N           16.70632702714146       36.74884630384255       33.14764642874987
N           18.29496630833595       34.49780984577799       33.80074465283740
N           16.26628643281724       33.55538092552133       35.49548796342213
N           14.67996825399727       35.80829035932356       34.86215564380232
C           15.91807604458840       37.85251918768285       33.12635839212866
C           16.47290354306860       38.84863775432333       32.23712286033727
C           17.60400581396839       38.30510284351676       31.71257215223373
C           17.74103376103728       36.99569672121544       32.30713765838424
C           19.08875894558198       35.01447233385026       32.82965426744794
C           20.32597955005673       34.27795573093077       32.74264467291091
C           20.26740731215058       33.31881034069688       33.71167023521510
C           18.97122609486357       33.44960957183415       34.33699404108720
C           17.19399986262400       32.60607003725169       35.78832474761114
C           16.61238433649757       31.55434518124331       36.59049115503255
C           15.29010388755412       31.86374040662069       36.71491117567857
C           15.10232332936050       33.13168541348855       36.04465362298793
C           13.75426618140539       35.12007435669383       35.57742362328896
C           12.57713157960908       35.92683883713760       35.78473566051964
C           12.82957348869340       37.13370305326403       35.20446099231263
C           14.14056581735204       37.02848126587416       34.60540732835163
C           14.73663936246767       38.00474798049137       33.82697236702795
H           14.21715496013595       38.94567198820555       33.72511959343088
C           18.82262153972723       36.16034915213252       32.10091102295141
H           19.56041142630012       36.46710483812761       31.37442292260894
C           18.49002477475050       32.58821755641451       35.30525945629814
H           19.14506484602708       31.79983648209057       35.64743552179451
C           13.92180874358054       33.84743242974233       36.09058764947209
H           13.09147283715465       33.40104770095506       36.61758871502171
C           18.57915565921307       38.90341513099798       30.75982206312694
H           18.27605954212829       39.90827671252882       30.47755725819208