77
 energy: -118.995274590105 gnorm: 0.000045481109 xtb: 6.7.1 (edcfbbe)
Fe          28.18048511459181       31.49742652105307        9.98545750747013
N           26.34574980508881       32.29158698342180       10.27276742623001
N           28.91629945760128       32.59988627639181       11.51557377849066
N           29.96797250109314       30.56522511610160        9.82091768979835
N           27.38514290803300       30.21781939741762        8.64609744887425
C           25.21332014979670       32.01345374853086        9.58069661203238
C           24.14527030722978       32.90368519166367        9.98410031917683
C           24.67162323707245       33.73136728993397       10.92656096674572
C           26.05284944807476       33.33150332806789       11.09538040816339
C           28.24779106453815       33.57239312450075       12.18793825802214
C           29.11585981646922       34.20906043252471       13.14691365647072
C           30.33630465814133       33.59730243592695       13.02922588460313
C           30.18533802899158       32.59358874512019       11.99332602912584
C           31.10018026081582       30.85207173310213       10.51673049638106
C           32.19403450227853       30.04015649523314       10.04745908609980
C           31.70057682169779       29.27551774488616        9.02453494793169
C           30.29322049469289       29.60845440547049        8.91793452287424
C           28.05061685455162       29.24126790318769        7.97695856302288
C           27.14890514022876       28.53150659088472        7.09585018089389
C           25.92878200602840       29.11569257403400        7.24400256036653
C           26.09733758108053       30.17319661904918        8.21677460006226
C           25.07995886614232       31.01339971059223        8.63382232375994
H           24.10985380947630       30.88475655701458        8.17817496696063
C           26.92113863954381       33.92207373108804       11.99296786960682
H           26.53833316992860       34.74571128412219       12.57635367606022
C           31.20878206490559       31.78336350155341       11.53618792991072
H           32.17928885014896       31.89941296077130       11.99472082997290
C           29.39865407526063       28.95479385338867        8.08876324931601
H           29.78688527231768       28.14980952850905        7.48397223118882
C           24.02452981874651       34.84774855752902       11.67087843429540
H           22.98505676478539       34.95945052890354       11.37337750304383
H           24.54237870817522       35.78478522205880       11.46902009285240
H           24.05669916538118       34.66647292103437       12.74570648019363
C           22.76806242501276       32.87019716095460        9.41785336707420
H           22.31324123252074       31.89133602681942        9.57110247186634
H           22.79467030936349       33.06736725655416        8.34649341113852
H           22.13733666902924       33.61995638043926        9.88851603996264
C           28.70262675504587       35.27335326401768       14.10183925246291
H           27.69575411330299       35.09065931784856       14.47451013767980
H           28.70981414946614       36.24909737766833       13.61485770773601
H           29.38786992590939       35.30479983464718       14.94651894757637
C           31.55850814104637       33.84113799441601       13.76533811201969
H           32.17448385032859       32.96867812985531       13.95063517894322
C           31.96686621304173       35.02670909670444       14.20426604358459
H           31.41984501265073       35.93050340312890       14.00170119588864
H           32.88594592627565       35.13677999618044       14.75539477708566
C           33.58849010588280       30.10424484957641       10.56514868465908
H           33.60937519158746       29.91916973772019       11.63938901398975
H           34.01584484904073       31.09057026718198       10.38443687560230
H           34.21449670952972       29.36612019529109       10.07055711826607
C           32.43771537841572       28.33043763283114        8.20868677033135
H           33.18554799151537       27.74731383031627        8.73534309944163
C           32.29395880558928       28.16992298714360        6.89861458850161
H           31.60733206350922       28.76746819936938        6.32374006470211
H           32.88417528906360       27.45448601764759        6.35045122609462
C           27.55333695164865       27.39707556262062        6.21883155238189
H           27.98774223139249       26.59033278084344        6.80919105528509
H           28.29852359561556       27.72358482002216        5.49375111457940
H           26.69761053898534       27.00373487339794        5.67620166360685
C           24.63980461637528       28.79389386926650        6.57012282121482
H           23.87383354275695       28.54630469634223        7.30505470203660
H           24.75580786963231       27.94899113421975        5.89625542663346
H           24.29023478947337       29.64861288282498        5.99141084667692
O           28.62887636377109       32.58325131582223        8.79249693657964
O           28.34818326295769       33.82117323031712        8.96345207221856
C           27.50691786984193       26.59688455251293       13.18245282420382
H           26.49884986673136       26.22124595380128       13.35766358657193
H           28.06659940998928       26.51746566644892       14.11435018042985
H           27.98590240294209       25.97268139092374       12.43459122427966
N           26.92145341817533       29.01766590275982       13.44995523815593
H           26.50218458236406       28.91797872948285       14.36037799646757
C           27.47058461200962       28.00262226334606       12.70792375705076
C           27.04997477696485       30.15803390187253       12.73894226605455
H           26.70904314616045       31.11718579656782       13.07170666225112
N           27.64326565657119       29.93075178224407       11.59748414174595
C           27.91255281284566       28.59668236735546       11.55971566434730
H           28.40253721276315       28.15959655763577       10.71452765261752
