72
 energy: -105.887415692288 gnorm: 0.264162132350 xtb: 6.7.1 (edcfbbe)
Fe         -44.57800000000000       91.32499999999999        7.74600000000000
N          -42.81700000000000       90.30200000000001        7.51600000000000
N          -44.21800000000000       91.45399999999998        9.75400000000000
N          -46.42100000000000       92.17299999999999        8.04200000000000
N          -44.96700000000000       91.06300000000000        5.72700000000000
C          -42.21800000000000       89.98299999999999        6.31200000000000
C          -40.90900000000000       89.43700000000000        6.58400000000000
C          -40.75700000000000       89.43600000000001        7.91700000000000
C          -41.94500000000000       89.97000000000000        8.52700000000000
C          -43.17299999999999       90.87600000000000       10.43900000000000
C          -43.32200000000000       91.21299999999999       11.83900000000000
C          -44.43800000000000       91.95099999999998       11.96500000000000
C          -45.02099999999999       92.12300000000000       10.65400000000000
C          -46.82700000000000       92.86099999999999        9.16300000000000
C          -48.04599999999999       93.57100000000000        8.84300000000000
C          -48.34700000000000       93.30099999999999        7.55800000000000
C          -47.32399999999999       92.42099999999999        7.03900000000000
C          -46.20800000000000       91.29999999999998        5.15300000000000
C          -46.16499999999999       90.87800000000000        3.76400000000000
C          -44.75800000000000       90.33100000000000        3.55300000000000
C          -44.08199999999999       90.49800000000000        4.81700000000000
C          -42.77500000000000       90.15700000000000        5.06900000000000
H          -42.12400000000000       90.01199999999999        4.20700000000000
C          -42.15299999999999       90.12900000000000        9.88400000000000
H          -41.46299999999999       89.62900000000000       10.56400000000000
C          -46.17200000000000       92.84699999999999       10.37100000000000
H          -46.59000000000000       93.45399999999999       11.17400000000000
C          -47.28400000000000       91.87800000000000        5.77400000000000
H          -48.21200000000000       91.91200000000001        5.20300000000000
C          -39.53899999999999       88.94899999999998        8.72300000000000
H          -38.69299999999999       88.74800000000000        8.03200000000000
H          -39.79500000000000       88.01099999999998        9.26000000000000
H          -39.23300000000000       89.73099999999998        9.45000000000000
C          -39.87900000000000       88.95500000000000        5.51700000000000
H          -39.22399999999999       89.80300000000000        5.22400000000000
H          -40.41599999999999       88.58600000000000        4.61700000000000
H          -39.25000000000000       88.14400000000001        5.94200000000000
C          -42.34800000000000       90.73499999999999       12.94700000000000
H          -41.53100000000000       91.47799999999999       13.06800000000000
H          -41.90600000000000       89.75600000000000       12.66200000000000
H          -42.89300000000000       90.63899999999998       13.91000000000000
C          -45.05800000000000       92.57599999999999       13.22900000000000
H          -46.12700000000000       92.83299999999998       13.23000000000000
C          -44.36900000000000       92.83199999999998       14.34700000000000
H          -43.29600000000000       92.59699999999999       14.40800000000000
H          -44.86699999999999       93.28000000000000       15.21900000000000
C          -48.78500000000000       94.47499999999999        9.85400000000000
H          -48.08700000000000       94.77199999999999       10.66600000000000
H          -49.63900000000000       93.92100000000001       10.29800000000000
H          -49.15100000000000       95.39000000000000        9.34100000000000
C          -49.53299999999999       93.78800000000000        6.69000000000000
H          -49.53199999999999       93.57400000000000        5.61100000000000
C          -50.57900000000000       94.46499999999999        7.17800000000000
H          -50.63600000000000       94.70799999999998        8.24900000000000
H          -51.39500000000000       94.78700000000001        6.51400000000000
C          -47.28700000000000       90.91500000000001        2.70900000000000
H          -47.62500000000000       91.96299999999999        2.56400000000000
H          -48.14800000000000       90.30300000000000        3.05500000000000
H          -46.90600000000000       90.52200000000001        1.74200000000000
C          -44.17699999999999       89.74800000000000        2.25100000000000
H          -43.70800000000000       90.56200000000000        1.65700000000000
H          -44.98999999999999       89.28600000000000        1.65100000000000
H          -43.40400000000000       88.98699999999999        2.49200000000000
O          -45.48000000000000       89.14600000000000        8.10200000000000
H          -44.74400000000000       88.53899999999999        8.02200000000000
H          -46.32500000000000       88.92800000000000        8.27500000000000
C          -41.99400000000000       93.42200000000000        7.01500000000000
H          -41.31300000000000       93.28700000000001        7.88200000000000
H          -41.68000000000000       94.33799999999998        6.47100000000000
H          -41.87500000000000       92.54400000000000        6.34500000000000
S          -43.70000000000000       93.56999999999999        7.54400000000000
H          -44.20799999999999       93.48000000000000        6.32300000000000
72
 energy: -105.945100396649 gnorm: 0.110190799451 xtb: 6.7.1 (edcfbbe)
Fe         -44.59885541990828       91.27852148185745        7.76934957486046
N          -42.81480980094059       90.32018379601098        7.51296744513439
N          -44.23195904469209       91.44670179587953        9.75673140371119
N          -46.40548768807717       92.19294458485197        8.02441144726846
N          -44.96601081224622       91.06343789396897        5.74460493499887
C          -42.21398066518084       90.00003193988847        6.31833077197544
C          -40.89927651396503       89.44001560596209        6.57622630443909
C          -40.74731654648753       89.42186216376020        7.92441535961939
C          -41.94911301625752       89.97030016804833        8.51391885649312
C          -43.19395704673514       90.87922844955463       10.44497415035564
C          -43.32324301526481       91.20381754758367       11.85483618407332
C          -44.44408857853627       91.96882442919669       11.98614106933837
C          -45.01363172511562       92.11857353042093       10.65663027622761
C          -46.82273380139679       92.86654712455916        9.14139729080594
C          -48.05231834798025       93.57860812750580        8.84302764673936
C          -48.37163668680017       93.29705689443000        7.54448195365251
C          -47.32602985264501       92.41740417725717        7.03951924650952
C          -46.18154517735555       91.27818453639333        5.14019111676004
C          -46.12428888962514       90.84846956849719        3.75705184774537
C          -44.79676317624768       90.36096379999320        3.55233203269437
C          -44.11401162703923       90.51909773546457        4.81337678259118
C          -42.79021737703236       90.16322613577933        5.06950010515443
H          -42.14804780164967       89.98513799852350        4.21121451377933
C          -42.16650586013678       90.13689392148360        9.87631424128395
H          -41.46115056597706       89.65917030821038       10.55029282289625
C          -46.16459134429181       92.84046455240156       10.36081024189225
H          -46.58866817539992       93.43127840092610       11.16621381005000
C          -47.27384057851579       91.87170318247870        5.76311336305290
H          -48.19111623448556       91.92858181414573        5.18551925044505
C          -39.54824875194684       88.95065483888843        8.71568856855984
H          -38.70667521714866       88.75171014335884        8.04528098961952
H          -39.79037755398360       88.02776409621346        9.25519390628369
H          -39.24192441263945       89.71479722421083        9.43834938039849
C          -39.89806076010474       88.96613967820818        5.53073684972558
H          -39.24024227450249       89.79168132178566        5.23164604247707
H          -40.41069611678424       88.59364032611124        4.63830117941823
H          -39.27259815442420       88.16250552738029        5.93454868822441
C          -42.36064303995839       90.73702248412752       12.93139546079518
H          -41.54778353115698       91.46372523794210       13.06010187719398
H          -41.91740939508620       89.77234073557577       12.66490631114449
H          -42.88537168338354       90.63124197248486       13.88602625041024
C          -45.03962951095571       92.56648554593947       13.21756664101756
H          -46.10069956477822       92.81552783854066       13.19980158289498
C          -44.36758363825363       92.82594196593986       14.33610469122580
H          -43.30894955712727       92.61898723180208       14.41586340395430
H          -44.85722314576281       93.26866837311442       15.19866427147176
C          -48.77023199226697       94.46465275463045        9.84247231604652
H          -48.09588741087624       94.76500454046580       10.65030155088840
H          -49.62069602382989       93.93109014087190       10.28622654440207
H          -49.13482786485794       95.37406115629830        9.35383645372298
C          -49.51943434677884       93.78253195527330        6.71474945011410
H          -49.50034420864146       93.56483648004357        5.64656579872415
C          -50.56795126047992       94.45740282306166        7.18111254469883
H          -50.65763270151841       94.70106020767147        8.22937849247498
H          -51.37268769740018       94.77811526709756        6.52526357455338
C          -47.24969015546599       90.91041967206505        2.73620237803648
H          -47.60345660038533       91.93978374940326        2.58000094681527
H          -48.11662300032715       90.31428747661128        3.05554612043487
H          -46.90843140696588       90.52826927296832        1.76816837617558
C          -44.20156478805651       89.77091511751581        2.28306402157454
H          -43.72331693743197       90.55202321042698        1.67462865579309
H          -44.97732526915804       89.29835331993117        1.66985881321370
H          -43.43619602827786       89.01357802098303        2.50212298267067
O          -45.45559277061943       89.17145201861349        8.09535458361549
H          -44.74817341888569       88.53363693643443        8.02238210107652
H          -46.34280025674315       88.92051977539026        8.27831943096364
C          -41.97860056258331       93.42017214663869        7.00261423015962
H          -41.33285865038036       93.28856001634003        7.87699679314642
H          -41.67977267889606       94.33229672103708        6.47476826692996
H          -41.86849454836729       92.55034385252038        6.34895108103041
S          -43.69749934189881       93.55299837500091        7.53642365541534
H          -44.20959840092431       93.49556878604861        6.31062069795992
72
 energy: -105.963057407869 gnorm: 0.042406197437 xtb: 6.7.1 (edcfbbe)
Fe         -44.60119188751032       91.27081136411371        7.77853436796650
N          -42.82090611142936       90.33468276644021        7.51274072254918
N          -44.25511643361064       91.42442938908174        9.75552850700141
N          -46.39313255638893       92.19615297409202        8.00857403462665
N          -44.97093187211102       91.04919984077122        5.76495001806834
C          -42.21901738140969       90.01846128037982        6.32666695785495
C          -40.90210203970420       89.45017590448960        6.57303992202926
C          -40.74936971872754       89.41663283877716        7.92976225922185
C          -41.95923618680042       89.97474855179343        8.50361432165577
C          -43.21948785369013       90.87186544496714       10.44423043283411
C          -43.32588674005117       91.19420686145558       11.85607667389570
C          -44.44665508638337       91.98052119861225       11.99297877803661
C          -45.01399825965870       92.10459349577643       10.65330797147245
C          -46.81168339453169       92.86624860470280        9.11865800841127
C          -48.04559770918638       93.57748623729833        8.84168098951075
C          -48.38269263822558       93.28576624508905        7.53648943315266
C          -47.32078270285106       92.41114646050619        7.03754376729732
C          -46.16437009807941       91.26137448908126        5.14127592711410
C          -46.08713222700352       90.83196666226542        3.75676742212456
C          -44.83041268973456       90.38180180030481        3.56076385214314
C          -44.13686664944746       90.52772557560407        4.82342390404793
C          -42.80843045020868       90.16369111200605        5.07580627619762
H          -42.18181839300642       89.94253543707957        4.21859483523430
C          -42.17993970505702       90.14778877431287        9.86631083610750
H          -41.45151155683336       89.70365739294726       10.53426738586210
C          -46.15894252975932       92.82859260685453       10.34738959341520
H          -46.59306769035853       93.40232257480424       11.15499503898828
C          -47.26178786934440       91.87227354316805        5.75318262642262
H          -48.16330155627600       91.95912046535587        5.16002181020351
C          -39.56451793258140       88.95205226141894        8.70876278900892
H          -38.72417615399934       88.75450473229168        8.04972672827902
H          -39.79344298029434       88.03749069721637        9.25481819180258
H          -39.25689818529835       89.70697259427158        9.42939069185368
C          -39.92284435923678       88.98225872787977        5.54503577912335
H          -39.26119606523409       89.79404714471715        5.23921253553914
H          -40.42309466743356       88.60598551637291        4.65700974914139
H          -39.29986072241192       88.18181824129293        5.93970678453973
C          -42.37669782584136       90.73535639166241       12.91123495981191
H          -41.56728401794403       91.45525845900607       13.04556563127309
H          -41.92962265406558       89.77928626756953       12.65279953458630
H          -42.88964565348070       90.62363654460178       13.86323022562609
C          -45.01753772081594       92.55901987028028       13.19223427358276
H          -46.07564332491396       92.79423124806236       13.15748759493895
C          -44.36214459084757       92.82567644269403       14.31903490799245
H          -43.31001324707218       92.64450005774692       14.42312310255825
H          -44.85614629916478       93.25192902576637       15.17694317049634
C          -48.75007039075114       94.45142686432845        9.82744359730032
H          -48.08784257976263       94.74841673531280       10.63528943027289
H          -49.60302365884019       93.93194464338086       10.26838569348098
H          -49.11389237184977       95.35904561045491        9.35156535852686
C          -49.49753866514761       93.76275737696803        6.74458092954838
H          -49.45596553869206       93.54735330006615        5.68257631723882
C          -50.55592660332042       94.43964221875515        7.18767880567859
H          -50.68407184366512       94.68975667423162        8.22142450665257
H          -51.34179262284667       94.76749036120225        6.52634076754499
C          -47.21163913736203       90.90478501936063        2.76357134854731
H          -47.56209829761730       91.92885449223586        2.61652773388006
H          -48.07553099835877       90.31708568555095        3.08180579789123
H          -46.89257524975836       90.52849675455653        1.79395524607840
C          -44.22639268306398       89.79660755678650        2.31472315316029
H          -43.74214296098420       90.56386358275653        1.70540952192950
H          -44.98519529113537       89.31934267993815        1.69714183764468
H          -43.47094392244513       89.04308053182666        2.54052154933998
O          -45.43763393359571       89.21189568842060        8.09104281256227
H          -44.76874710672170       88.52741420030758        8.02500995125832
H          -46.33417079722494       88.92674742022407        8.27502952778942
C          -41.96273470479240       93.41723147795587        6.98883594359265
H          -41.35162792207558       93.28972835721977        7.87709444017829
H          -41.67721187949909       94.32923872825739        6.47469571464568
H          -41.85540068582236       92.55263164591076        6.34590165706303
S          -43.69686185007151       93.54770864276230        7.52250839232625
H          -44.21183191658113       93.52144963624762        6.29244664226843
72
 energy: -105.968389380796 gnorm: 0.021878438523 xtb: 6.7.1 (edcfbbe)
Fe         -44.60648882988314       91.26008673977704        7.78144759094510
N          -42.82404433417206       90.35122271501416        7.51698415491994
N          -44.26627484267550       91.40850491902674        9.74858318400708
N          -46.38269586149758       92.19339842031583        8.00136236491676
N          -44.97204531399397       91.04590310800356        5.78028613740810
C          -42.22447418021576       90.03073395617926        6.33536088775720
C          -40.91196324571398       89.46141340714760        6.57850792212423
C          -40.75732193379294       89.42329646348666        7.93338240052957
C          -41.96347998786781       89.98590787120730        8.50338044485025
C          -43.22927144040555       90.86365001049526       10.43679178552519
C          -43.32789024590458       91.18620557358398       11.84345568828173
C          -44.44427602612975       91.97645648328852       11.98205381100828
C          -45.01768225680264       92.09114299083888       10.64619177860650
C          -46.80038786085063       92.85919060980927        9.11163758462329
C          -48.03115471865738       93.56737311981475        8.84455221058565
C          -48.37505394109933       93.27472247750910        7.54229382679947
C          -47.31314051242352       92.40846153360623        7.03795375292751
C          -46.16374636649537       91.26124210823046        5.15872886075382
C          -46.09130920027570       90.83150634915525        3.77580988567455
C          -44.81955638334317       90.39303107094719        3.57395207107208
C          -44.13456323599255       90.52915715517892        4.84257525764607
C          -42.81524020797487       90.15764364995417        5.08648272186948
H          -42.20724964172746       89.89054590896583        4.22738683620767
C          -42.18007021898024       90.15864981504596        9.86167828719428
H          -41.42907493407725       89.74946791240575       10.52697670815893
C          -46.15810682592830       92.81480113612388       10.34232508903542
H          -46.60327102340116       93.37446768560667       11.15221181407660
C          -47.25664874940070       91.88108781207075        5.75273009083270
H          -48.14082804018919       92.00134153841805        5.13730553007067
C          -39.57722160724860       88.95251580846619        8.71080162643481
H          -38.73793502559163       88.75272040090820        8.05054193392773
H          -39.80726851450452       88.03935393111919        9.25971875160713
H          -39.26838872763796       89.70775332603245        9.43112347382703
C          -39.94177674393956       88.99530284591764        5.54794360543441
H          -39.28165820152698       89.80758357163313        5.23934196277726
H          -40.44846377495679       88.61843170926387        4.66368498863032
H          -39.32108882359281       88.19460181584788        5.94506666397812
C          -42.38396197464912       90.72368962052515       12.89538683265009
H          -41.57788537716902       91.44661652177257       13.03400106922950
H          -41.93540442129890       89.76947116719194       12.63127799228006
H          -42.90174721039439       90.60683033658410       13.84466298030738
C          -45.00972275468074       92.55362019245987       13.17589050832126
H          -46.06828005677397       92.78084330453896       13.12866663763696
C          -44.36276979733977       92.82807881690304       14.30693157059032
H          -43.30286071356114       92.68359202876698       14.41746238095000
H          -44.86956133779253       93.24516924097576       15.16067919556885
C          -48.72824837718981       94.44462462606201        9.82438855448355
H          -48.06514183601584       94.73115064043724       10.63542958967586
H          -49.59020461711015       93.93180408499842       10.25601365095738
H          -49.07847522041111       95.35619336072448        9.34518864361642
C          -49.48351509539602       93.74942631332956        6.75552489072382
H          -49.42275346498472       93.53326892058230        5.69532871727671
C          -50.55299908357092       94.42115228881634        7.18310798620434
H          -50.72238737919417       94.65423103683651        8.21824516552792
H          -51.32117903800928       94.75121198918755        6.50386872295151
C          -47.20573559500041       90.90548132179551        2.78673062118046
H          -47.54015323797152       91.93442509349993        2.65299662710847
H          -48.06135254499024       90.31563956948791        3.11521361112640
H          -46.88195604010674       90.52991105976882        1.81918647077955
C          -44.22642802958848       89.81389182061021        2.33162323664851
H          -43.74479643594620       90.58601078295770        1.72990795696008
H          -44.99342850651364       89.34252623401711        1.72108000860488
H          -43.48047846210084       89.05914248328834        2.57208980592098
O          -45.43670255760421       89.22995203744910        8.09332327186949
H          -44.79380456985826       88.51773245516509        8.02676703856481
H          -46.33305338719893       88.93720678175903        8.27094636681058
C          -41.95570920516013       93.41329317984963        6.97527958203704
H          -41.36726496742180       93.28573719494148        7.87942590904162
H          -41.66919849498515       94.33167644069810        6.47314821119056
H          -41.83268134728794       92.55166916914403        6.33108125385544
S          -43.70209107300638       93.53015381249214        7.49082661152501
H          -44.20595601084654       93.56370012198724        6.25170664279881
72
 energy: -105.971113685768 gnorm: 0.013601007109 xtb: 6.7.1 (edcfbbe)
Fe         -44.59604465991357       91.27532472808205        7.77811063037273
N          -42.83096922702342       90.36315392788586        7.52355656024940
N          -44.27103179742574       91.39877808446735        9.73709743982334
N          -46.36960251241862       92.18288203859902        7.99561402890201
N          -44.97210141541646       91.03667852611314        5.80656797426200
C          -42.23383595946257       90.03467670452859        6.34578659331370
C          -40.92408820975926       89.46963946045064        6.58505803104674
C          -40.76480351742494       89.43282138181029        7.93685928343437
C          -41.96536344324586       89.99967682823726        8.50498805083449
C          -43.23369616223250       90.85863478495911       10.42723368000075
C          -43.32850777393300       91.17930558765276       11.82833848237042
C          -44.44206521681264       91.96881922598581       11.96848051102769
C          -45.02101336989424       92.07636972382521       10.63800854217282
C          -46.78913260826975       92.84435934387844        9.10714132981723
C          -48.01629950329165       93.54930109954438        8.84854144944449
C          -48.36460786739134       93.25858844707120        7.54958045397251
C          -47.30340460084009       92.40247540496178        7.03906423892728
C          -46.15856604578170       91.26185844726608        5.18205535260310
C          -46.08636639789850       90.84108480167683        3.79975097800950
C          -44.81465565289092       90.39428040250638        3.59858703393434
C          -44.13501580738877       90.52251861200803        4.86900816953374
C          -42.82636076896397       90.13852069725019        5.09929888782867
H          -42.23700680705108       89.84079644311888        4.24139103027564
C          -42.17146380553697       90.17635550639419        9.85871889001024
H          -41.40469100718732       89.79858288566915       10.52134342080946
C          -46.16004318072125       92.79572386118420       10.34009779012400
H          -46.61658808816945       93.34336423249323       11.15027069636559
C          -47.24809188184850       91.89397525398661        5.75136743137730
H          -48.11221827378231       92.04007037548884        5.11530413557468
C          -39.58920749444899       88.95478819708372        8.71611707104818
H          -38.75164265644320       88.74721801412812        8.05475882853917
H          -39.82763736090685       88.04392517444812        9.26702435767761
H          -39.27578107238801       89.71026904810564        9.43583886678996
C          -39.96089713679743       89.00739868723863        5.54667846848260
H          -39.30827951485740       89.82403078553895        5.23219709855745
H          -40.47707574762958       88.62962486284748        4.66742444938773
H          -39.33541942225087       88.20885054249636        5.94145302949359
C          -42.38981670137279       90.70978386629753       12.88114372600024
H          -41.58498450307205       91.43284291506319       13.02885057430361
H          -41.94124012749933       89.75637726896753       12.60991562615886
H          -42.91622993023271       90.58883759155142       13.82629317390840
C          -45.00702534687172       92.54964206667390       13.16036067365278
H          -46.07007209331422       92.75538066124193       13.11121514117786
C          -44.36218757074052       92.84304596579548       14.28763275140143
H          -43.30262781394200       92.70729602074222       14.40884779519291
H          -44.88331671336361       93.24521344615223       15.14061603296192
C          -48.71011418259201       94.43574762365168        9.82000813556428
H          -48.04796190728873       94.71590286578812       10.63536700431161
H          -49.58263864682301       93.93485891586182       10.24497004911103
H          -49.04625390654565       95.34749162977080        9.32848448241582
C          -49.47196469050412       93.73314751995619        6.76204032387972
H          -49.38978393000192       93.53528574767793        5.69935331075603
C          -50.55450447996166       94.38723768586779        7.18223214785725
H          -50.74519145349781       94.62056590831840        8.21374658313109
H          -51.30382034513838       94.72424155390898        6.48438345086265
C          -47.20012391901368       90.91475822239103        2.81610984309301
H          -47.52813326026212       91.94522578418456        2.68654393727852
H          -48.05298968747507       90.32615511525611        3.15186118156378
H          -46.87987815061313       90.53711321601614        1.84793948733600
C          -44.22530674109198       89.82973618084362        2.35301118299492
H          -43.74076601536166       90.60669012056729        1.76082539777755
H          -44.99738354117227       89.37022825865307        1.73925449935968
H          -43.48541314718624       89.07007143560516        2.59087761353963
O          -45.43823912842794       89.25656505940138        8.10191831381294
H          -44.82911408260150       88.51377674008125        8.02444306164414
H          -46.33522991746916       88.95360778102317        8.25920382094864
C          -41.94835706770228       93.41045554507846        6.96032231344777
H          -41.38247937001395       93.28087232066358        7.87858474370782
H          -41.65769926476656       94.33348034538241        6.46910068982252
H          -41.80672139102629       92.55227215018947        6.31343431965648
S          -43.70658398900437       93.52217139361089        7.45192796882461
H          -44.19127101635090       93.60719894878240        6.20446737614931
72
 energy: -105.971951773537 gnorm: 0.011513439999 xtb: 6.7.1 (edcfbbe)
Fe         -44.59941586341731       91.26579677733379        7.77802527324366
N          -42.83007006834950       90.37395069811502        7.52772974647929
N          -44.26096234914174       91.41015591172693        9.72790328705351
N          -46.36032806594739       92.18183536671705        7.99351198213123
N          -44.96813878264339       91.03727060828636        5.82282678098276
C          -42.23614083126563       90.03466539433454        6.35142510891644
C          -40.92734215767580       89.47172148786811        6.58797198787648
C          -40.76224778358839       89.44314834442608        7.93799255040035
C          -41.95774788161039       90.01607106796355        8.50647432589568
C          -43.22521207875918       90.86886952314947       10.42122217392687
C          -43.32671243692119       91.17837285921209       11.82200311101122
C          -44.44230556112304       91.96144505070318       11.96307914401230
C          -45.01747159993891       92.07558135611811       10.63405322834440
C          -46.78291547619687       92.83853035287387        9.10748003834696
C          -48.01009622597294       93.54067045222814        8.85193555445280
C          -48.35744915925763       93.25536808537761        7.55333486088903
C          -47.29639063232447       92.40590423479435        7.03971066766043
C          -46.15119004398966       91.27001791502231        5.19488431229356
C          -46.08111467774524       90.84973052322104        3.81409131430652