72
 energy: -105.980613811640 gnorm: 0.000186034750 xtb: 6.7.1 (edcfbbe)
Fe         -44.50362800128124       91.30779460030767        7.82244591006884
N          -42.78055475958374       90.33757562738330        7.59073154421645
N          -44.18889742225704       91.44414760984198        9.78145447518165
N          -46.28328413704733       92.23207849843165        8.03909267589458
N          -44.87448737532649       91.09711479827938        5.85174707303241
C          -42.27808899158804       89.80813112740508        6.44555701126285
C          -40.98774549887228       89.19870459588439        6.68543441258982
C          -40.72299005303503       89.37699517603923        8.00625083642720
C          -41.86147909713555       90.08145697841314        8.55661083204059
C          -43.08681842552464       91.02809576029306       10.45681388309868
C          -43.21109689634116       91.30717912923170       11.86647753781811
C          -44.42863562552329       91.90788742430355       12.03188955970277
C          -45.02006927543351       91.98215650469731       10.70846536337315
C          -46.81684139238717       92.70413895940744        9.20008516360359
C          -48.07745812417882       93.35353873687644        8.95606871758175
C          -48.29934094941392       93.27138960553368        7.60619697345459
C          -47.15707850491189       92.57303088154919        7.05467674740567
C          -45.95510611375548       91.56311639133405        5.16577914933194
C          -45.85845130859346       91.21682201331740        3.76686959532973
C          -44.69590555082286       90.52356451105013        3.62303818565010
C          -44.09429567649174       90.46138906338160        4.93427610903564
C          -42.88414314630413       89.85057724694401        5.20408849085329
H          -42.36943757089544       89.38147886554532        4.38022212465033
C          -41.98655249506196       90.41174104797290        9.89003054287588
H          -41.16973395875583       90.14955672670433       10.54429582386053
C          -46.23907294165397       92.57546111001093       10.45012084926785
H          -46.77975104236459       92.98613698275189       11.28829307869417
C          -47.01499276716824       92.25998643219965        5.71529652174034
H          -47.80101824212873       92.57007404855482        5.04493136670047
C          -39.53513534087936       88.95243795501722        8.79835712268742
H          -38.79667362397941       88.47243997592837        8.16102656835297
H          -39.82769260752340       88.24665113508725        9.57596629086178
H          -39.06761931144131       89.81156569989014        9.27962853479864
C          -40.16761846022429       88.52881551648679        5.63744851202366
H          -39.91951748740851       89.22734316857692        4.83775225830405
H          -40.71449624855940       87.69367519245199        5.19969958757740
H          -39.24086234762630       88.14716176170396        6.05806347184425
C          -42.21675575110979       90.92535230263078       12.90573712097524
H          -41.40021137058079       91.64800785590201       12.94573489901244
H          -41.79146510470568       89.94645130356476       12.69018642736609
H          -42.69357039207463       90.89073921717196       13.88303833954305
C          -45.06558438886609       92.36990099380280       13.24592120974170
H          -46.14365612138701       92.26262956558747       13.27964376306595
C          -44.43756670430629       92.90546888010772       14.28717274859384
H          -43.37567375260362       93.07896658831574       14.28752665343018
H          -44.97278248048052       93.21642678112022       15.16893075473104
C          -48.90341255926594       94.03385420701703        9.99003845193550
H          -48.26936123525746       94.55242354648681       10.70730783062539
H          -49.51440019901569       93.31375384892947       10.53700411027833
H          -49.56484328200148       94.75912860943227        9.52079335052206
C          -49.40834617617170       93.77819144849239        6.82777923453825
H          -49.16171626286739       94.12409946333770        5.83059439941405
C          -50.67094427674893       93.83839100556840        7.23728401651813
H          -50.97988620459337       93.46650077595936        8.19857725157095
H          -51.44780129098411       94.24182262148314        6.60943797697080
C          -46.87537344096297       91.57891423127663        2.74035271667746
H          -46.98751031125196       92.66158930761661        2.67664077051837
H          -47.84641771136775       91.15353039857247        2.99498997813321
H          -46.58491183689755       91.20713028071100        1.76100839735982
C          -44.09905272711710       89.92326835330692        2.39723492736337
H          -43.12455482806960       90.36545013415062        2.18788106562394
H          -44.74087257269707       90.08652315187410        1.53521116283912
H          -43.96185612306124       88.84936520704287        2.52479631184511
O          -45.62462839833992       89.38691000228634        8.10531406747372
H          -45.82851277052912       89.16175030198387        7.19006734327691
H          -46.43990290842014       89.71004160660367        8.50610501495125
C          -42.16362841980727       93.23308736960023        6.26976969805539
H          -41.32555689294004       92.82708776299998        6.82649269141498
H          -41.90807546672178       94.20745270767412        5.86484535034471
H          -42.45284262290090       92.54206130368922        5.48553425179151
S          -43.53835616276420       93.42112675569830        7.45868327343453
H          -44.42239848166272       93.84919125122514        6.55118153883594
