72
 energy: -105.980474472911 gnorm: 0.000074405220 xtb: 6.7.1 (edcfbbe)
Fe         -15.86106234277774      -22.91261160309229      -10.94304710340144
N          -15.79441013941653      -21.30202699890683      -12.11023950350609
N          -16.19194847190616      -24.06912273191882      -12.56186146328431
N          -16.01024162316513      -24.54310171054851       -9.76426251350123
N          -15.60621646576921      -21.77461516892891       -9.33185948911350
C          -15.56665517983192      -20.02447402042340      -11.71707139635851
C          -15.58485862446805      -19.12694330063106      -12.85259759943144
C          -15.84337988465603      -19.89632475002293      -13.94220795650920
C          -15.97059536814588      -21.25418261572064      -13.45734273863962
C          -16.30765519824510      -23.65227280370598      -13.85449971751283
C          -16.51423580384361      -24.77009790928299      -14.73583308250628
C          -16.51353640671236      -25.89052059736775      -13.94600201019787
C          -16.32517753814622      -25.42324666618651      -12.58825686003906
C          -16.15297162098775      -25.83725130957060      -10.17057456241989
C          -16.16231824092486      -26.72869276919679       -9.04090260290643
C          -16.01843812722599      -25.94166559967851       -7.92839584303932
C          -15.92355850891597      -24.57950493093870       -8.40949204696861
C          -15.57455526188782      -22.18113978003999       -8.03678041779899
C          -15.33827592738755      -21.05859940400719       -7.15320980131977
C          -15.21808556975344      -19.96602105910330       -7.95115366581659
C          -15.39132058993108      -20.43531074371448       -9.30968479760985
C          -15.35946030761607      -19.61036209709937      -10.41566050829191
H          -15.18109876506553      -18.55940163570903      -10.24951550287008
C          -16.21422752569109      -22.33705879579932      -14.27727233031304
H          -16.32380489190666      -22.14599816994402      -15.33334221166042
C          -16.28220243785719      -26.25326191014083      -11.48413731258959
H          -16.36508575994636      -27.31430663861947      -11.65937545561360
C          -15.72609270461162      -23.48040247365423       -7.59499749429280
H          -15.66072882613250      -23.65367513390071       -6.53238801856743
C          -15.97976990643259      -19.49834477332540      -15.37140155924025
H          -15.84514486498233      -18.42600463456944      -15.48777725598176
H          -16.96753292559978      -19.76250797887617      -15.74933899967732
H          -15.23521567225745      -20.00620820453434      -15.98525934957937
C          -15.36381210791578      -17.65660507097897      -12.76368962977985
H          -14.39047702335219      -17.44085892391232      -12.32266829204420
H          -16.12809236238818      -17.19325548812561      -12.13970637179615
H          -15.40267006986548      -17.19919174664807      -13.74916443359858
C          -16.74707068402915      -24.67175518185487      -16.20249173110084
H          -15.80301142144618      -24.58119175522406      -16.74256666470637
H          -17.35499256012375      -23.79960990829046      -16.43813355687522
H          -17.26150738322555      -25.56200898709353      -16.55843028481961
C          -16.69696541976014      -27.27467275560083      -14.32364483286072
H          -17.21513493892980      -27.89380148175080      -13.60051291143614
C          -16.27851714580110      -27.82363907426163      -15.45900731267301
H          -15.71827365658850      -27.26945098802907      -16.19169559484310
H          -16.46126755940393      -28.86134657222593      -15.68289520976025
C          -16.36890397319160      -28.20090543926519       -9.11277726822230
H          -15.43641234966042      -28.71291972558339       -9.35562178801953
H          -17.10035321583831      -28.45221497818287       -9.87956635430445
H          -16.72649782219825      -28.57401565836889       -8.15536001277604
C          -15.98625686904784      -26.32494491169333       -6.53383217803477
H          -16.42726131872228      -25.61532766022416       -5.84338459236202
C          -15.46103105879599      -27.44840643776231       -6.05728501891734
H          -14.96740527862690      -28.16410769485665       -6.69120044648305
H          -15.48234890065261      -27.67749771358812       -5.00488820055628
C          -15.25150565427790      -21.16199066824657       -5.66979036167740
H          -14.43877918735821      -21.82825910775761       -5.38015643520075
H          -16.17915786657907      -21.56011728165450       -5.25805090478692
H          -15.07054783233862      -20.18690464729847       -5.22470939789504
C          -14.96742214264052      -18.54551096702725       -7.57976741269258
H          -14.86693345275968      -18.43959658495692       -6.50255555212186
H          -15.79044976410861      -17.91259212934465       -7.91204394280970
H          -14.05157774588521      -18.18388950118626       -8.04738866728068
O          -18.08828523348073      -22.75014292794645      -10.73480467964733
H          -18.38116102121146      -23.36086526017560      -11.42094443568418
H          -18.22695906312746      -23.18751952293711       -9.88698544719186
C          -12.96906858011055      -22.77839085485845      -12.73367171369981
H          -11.99422041350436      -23.21581141816862      -12.92606753361904
H          -12.89490796133554      -21.69642052869002      -12.70108132517296
H          -13.69087899181955      -23.07444084951716      -13.48694477966819
S          -13.54905482993150      -23.31177061133114      -11.08488742283054
H          -13.62296565770241      -24.60979006636606      -11.39888613147444
