72
 energy: -105.900268416214 gnorm: 0.243489065724 xtb: 6.7.1 (edcfbbe)
Fe         -15.75500000000000      -23.05300000000000      -10.98200000000000
N          -15.87000000000000      -21.35700000000000      -12.21800000000000
N          -16.36100000000000      -24.07600000000000      -12.58400000000000
N          -16.09500000000000      -24.62700000000000       -9.73000000000000
N          -15.54000000000000      -21.91800000000000       -9.32100000000000
C          -15.58000000000000      -20.09000000000000      -11.76500000000000
C          -15.49000000000000      -19.20600000000000      -12.91100000000000
C          -15.71600000000000      -19.93700000000000      -14.00700000000000
C          -15.95500000000000      -21.30600000000000      -13.59000000000000
C          -16.43700000000000      -23.66600000000000      -13.90000000000000
C          -16.71900000000000      -24.82900000000000      -14.71600000000000
C          -16.84500000000000      -25.89900000000000      -13.90100000000000
C          -16.62200000000000      -25.43600000000000      -12.54500000000000
C          -16.29100000000000      -25.91200000000000      -10.16100000000000
C          -16.12400000000000      -26.81000000000000       -9.03000000000000
C          -15.84100000000000      -26.05900000000000       -7.95000000000000
C          -15.80200000000000      -24.68300000000000       -8.38600000000000
C          -15.47300000000000      -22.30700000000000       -7.99800000000000
C          -15.29300000000000      -21.12300000000000       -7.16400000000000
C          -15.23200000000000      -20.06800000000000       -7.97100000000000
C          -15.37600000000000      -20.54300000000000       -9.34400000000000
C          -15.38700000000000      -19.73600000000000      -10.45400000000000
H          -15.22100000000000      -18.67500000000000      -10.27000000000000
C          -16.25200000000000      -22.38500000000000      -14.38700000000000
H          -16.34700000000000      -22.22300000000000      -15.46100000000000
C          -16.61100000000000      -26.26000000000000      -11.44500000000000
H          -16.88600000000000      -27.30100000000000      -11.61300000000000
C          -15.56900000000000      -23.59900000000000       -7.56300000000000
H          -15.45400000000000      -23.78600000000000       -6.49500000000000
C          -15.71500000000000      -19.42800000000000      -15.46000000000000
H          -15.01200000000000      -18.57300000000000      -15.55300000000000
H          -16.73500000000000      -19.08800000000000      -15.73900000000000
H          -15.38600000000000      -20.24100000000000      -16.14200000000000
C          -15.17400000000000      -17.68900000000000      -12.86500000000000
H          -14.07600000000000      -17.53700000000000      -12.93600000000000
H          -15.53600000000000      -17.25900000000000      -11.90700000000000
H          -15.66500000000000      -17.17700000000000      -13.72000000000000
C          -16.89400000000000      -24.72800000000000      -16.24600000000000
H          -15.90900000000000      -24.86300000000000      -16.74200000000000
H          -17.29700000000000      -23.72800000000000      -16.51200000000000
H          -17.58600000000000      -25.52300000000000      -16.59800000000000
C          -17.15700000000000      -27.37400000000000      -14.25900000000000
H          -17.63200000000000      -28.03400000000000      -13.51800000000000
C          -16.86200000000000      -27.88400000000000      -15.46500000000000
H          -16.38700000000000      -27.25800000000000      -16.23500000000000
H          -17.09200000000000      -28.93400000000000      -15.69900000000000
C          -16.25500000000000      -28.35700000000000       -9.11900000000000
H          -15.26300000000000      -28.80000000000000       -9.35100000000000
H          -16.96800000000000      -28.62700000000000       -9.92700000000000
H          -16.61200000000000      -28.76000000000000       -8.14700000000000
C          -15.53400000000000      -26.43600000000000       -6.47300000000000
H          -15.60600000000000      -25.65800000000000       -5.69900000000000
C          -15.18400000000000      -27.65500000000000       -6.07200000000000
H          -15.09400000000000      -28.47700000000000       -6.79700000000000
H          -14.98000000000000      -27.85600000000000       -5.01000000000000
C          -15.17500000000000      -21.09700000000000       -5.62400000000000
H          -14.10700000000000      -21.19400000000000       -5.33200000000000
H          -15.74600000000000      -21.94500000000000       -5.18900000000000
H          -15.56900000000000      -20.13500000000000       -5.23400000000000
C          -15.01600000000000      -18.60700000000000       -7.51500000000000
H          -14.40700000000000      -18.59500000000000       -6.58600000000000
H          -15.99800000000000      -18.12900000000000       -7.30900000000000
H          -14.47700000000000      -18.04300000000000       -8.30600000000000
O          -18.47700000000000      -22.81600000000000      -11.00600000000000
H          -18.76800000000000      -23.20000000000000      -11.83300000000000
H          -18.99800000000000      -22.45800000000000      -10.38000000000000
C          -12.69200000000000      -22.15700000000000      -12.04300000000000
H          -11.67600000000000      -22.38200000000000      -12.43400000000000
H          -12.60100000000000      -21.33200000000000      -11.30500000000000
H          -13.31900000000000      -21.81500000000000      -12.89400000000000
S          -13.43600000000000      -23.61700000000000      -11.26300000000000
H          -13.60500000000000      -24.28100000000000      -12.39700000000000
72
 energy: -105.950767173141 gnorm: 0.098569722061 xtb: 6.7.1 (edcfbbe)
Fe         -15.90757544977567      -23.02487712361703      -10.96062496493387
N          -15.83524084243416      -21.35735673574237      -12.21283282684362
N          -16.34122030567619      -24.09600445890844      -12.58714566855292
N          -16.05952878351484      -24.63402341252397       -9.72322534049644
N          -15.53593739710779      -21.90277704331313       -9.31723448938473
C          -15.56819573875472      -20.09146687770798      -11.77314602245632
C          -15.49048232908755      -19.19224908004531      -12.90924401432166
C          -15.71637340757244      -19.93613455622200      -14.01836112102657
C          -15.94972213265037      -21.30059144436823      -13.57588263282652
C          -16.42751250423220      -23.68949157100707      -13.89598185321348
C          -16.73281634671315      -24.83466289677614      -14.73115103427392
C          -16.85788174479981      -25.91916132454935      -13.91090526208986
C          -16.61473560191752      -25.44263685627937      -12.55770260975780
C          -16.28247734628948      -25.91377215002261      -10.14199072605489
C          -16.12910329199040      -26.82653227552129       -9.01923594300306
C          -15.83365099109188      -26.06609465445498       -7.92540109265090
C          -15.80208649384074      -24.68981071467793       -8.38280774966335
C          -15.47348269684025      -22.29180341077061       -8.00354881291377
C          -15.28905493174384      -21.12515004685538       -7.15287414884200
C          -15.22311959862384      -20.05283410983276       -7.96939040344200
C          -15.37957895610103      -20.53946284263662       -9.33354428043335
C          -15.38436451710824      -19.73025407425834      -10.45176186426532
H          -15.22086238761967      -18.67429087187450      -10.26970567458289
C          -16.24680211097949      -22.39422348710697      -14.37034784016150
H          -16.34147063884536      -22.22820922423761      -15.43871258018727
C          -16.60723343450891      -26.26206348857887      -11.44213668326036
H          -16.87024837463728      -27.29906821829679      -11.61365953143829
C          -15.57102614547343      -23.59453095386760       -7.56780751459978
H          -15.45224389545292      -23.77854410103729       -6.50671588246391
C          -15.71435525338916      -19.43952623594619      -15.44711923411553
H          -15.02595656844559      -18.59364948140431      -15.54956155974469
H          -16.71678222694676      -19.10121531172724      -15.73518728872149
H          -15.39490461115634      -20.22962179181711      -16.13287839947456
C          -15.17859646062424      -17.70844842969943      -12.86082624120366
H          -14.09610526756571      -17.54455521366270      -12.93215625537160
H          -15.53272350093912      -17.26723884973471      -11.92487803375356
H          -15.65866533472800      -17.19216681271624      -13.69818360357104
C          -16.89480664406102      -24.73302674418391      -16.23180155657290
H          -15.92620654536156      -24.86095049989384      -16.73187801131283
H          -17.29349761240870      -23.75197437184036      -16.50688143922886
H          -17.57967897371574      -25.50606400877321      -16.59188046932575
C          -17.14971146424110      -27.34243089452514      -14.27010114870287
H          -17.61510137021426      -27.98373129123757      -13.52116325162666
C          -16.86246908940013      -27.87014735770498      -15.45784443579344
H          -16.38173198971219      -27.28193692785717      -16.22765409663235
H          -17.08819458530558      -28.90745154974038      -15.68893187140451
C          -16.25745968123828      -28.33593446159705       -9.11947028765526
H          -15.28250746848575      -28.78480297895722       -9.34805314046105
H          -16.95710267052426      -28.61777590319011       -9.91186673574166
H          -16.61584906526291      -28.74746417992599       -8.17131831042608
C          -15.54501918415787      -26.44431519000887       -6.50388773263883
H          -15.61586751078454      -25.65951558211906       -5.75067557431210
C          -15.18937066935298      -27.65369077341385       -6.08642220431625
H          -15.07840528779925      -28.47622543304227       -6.77861283360691
H          -14.98583348250055      -27.85090912651667       -5.03740951078919
C          -15.17731207348629      -21.10698329749030       -5.64236502909276
H          -14.12653421664412      -21.19785288602540       -5.34036099101482
H          -15.73925573531215      -21.93236282193677       -5.19688290200689
H          -15.56491353642507      -20.16227456555103       -5.24698544151566
C          -15.01648983662764      -18.61941101381750       -7.52749115550178
H          -14.41932799207744      -18.59768103432344       -6.60981157332068
H          -15.97991144611002      -18.13797779497764       -7.32098157377640
H          -14.48881701712577      -18.04766718388575       -8.29562719074236
O          -18.41356831153183      -22.82352213928793      -11.01354981502246
H          -18.74947555763339      -23.19838965995275      -11.82567651160384
H          -18.99084952866196      -22.45342664374328      -10.36845349994868
C          -12.68884108417397      -22.14726726604196      -12.05510375498276
H          -11.68526750324347      -22.39187052113129      -12.42273384281573
H          -12.61131662521668      -21.34968501471858      -11.31066958434515
H          -13.31473948702205      -21.80938781903497      -12.88485391794316
S          -13.47328350357546      -23.58679095194286      -11.26580480045782
H          -13.60116563142783      -24.28160197981229      -12.39592662126478
72
 energy: -105.965408587039 gnorm: 0.024820200198 xtb: 6.7.1 (edcfbbe)
Fe         -15.96498241233096      -23.01257035854709      -10.95916734557136
N          -15.83509405789151      -21.36136063012869      -12.19332599257594
N          -16.34977499077896      -24.10858388600813      -12.58039628517912
N          -16.05409311225453      -24.62802380435150       -9.72405989142467
N          -15.58050455910990      -21.88471606473413       -9.32023821855102
C          -15.56553812289135      -20.09850869481262      -11.77148156394450
C          -15.49045612409467      -19.19368399430309      -12.90153735086975
C          -15.71680428882150      -19.94828339934929      -14.01624211671522
C          -15.94648287166120      -21.30540902527930      -13.55068038007380
C          -16.42850904289505      -23.70593653601891      -13.88337257912912
C          -16.73717512370037      -24.83321356087313      -14.73664903098790
C          -16.85905986669295      -25.92943500492608      -13.91543355477229
C          -16.61446856756520      -25.44572553592003      -12.56282943593444
C          -16.27800449296473      -25.90620035115515      -10.13374620983844
C          -16.13409537435587      -26.82926937671301       -9.02178771975876
C          -15.82966591139741      -26.06481959001973       -7.91854209554391
C          -15.80790992493750      -24.68725295080839       -8.39063415501488
C          -15.49408474639540      -22.27660193830279       -8.01761290161107
C          -15.29127314221372      -21.12899762702805       -7.15381421460685
C          -15.22021072682555      -20.04368286717514       -7.97322467054637
C          -15.39954000019451      -20.53528238139220       -9.32751852564141
C          -15.38442048176599      -19.72333780176448      -10.44867020491180
H          -15.21566310525813      -18.67136075900860      -10.27063211370968
C          -16.23802217534022      -22.40528327191068      -14.34504511628278
H          -16.32902658081405      -22.23450725722659      -15.40877600038593
C          -16.59688227420865      -26.26289687508183      -11.44078989516116
H          -16.84016771544868      -27.30081397729219      -11.61279352037314
C          -15.57542799660048      -23.58678177284282       -7.58133666855822
H          -15.44716379014036      -23.76565543304538       -6.52461035906321
C          -15.71612141080620      -19.46117104950515      -15.42803532932104
H          -15.03611717084152      -18.61924731248756      -15.53624197654388
H          -16.70877025701909      -19.12274450464750      -15.72479640511480
H          -15.40323508049368      -20.23738187912456      -16.11878646747125
C          -15.18475790649109      -17.73419970302228      -12.85451548557364
H          -14.11015470038952      -17.56201073528332      -12.92439493350768
H          -15.53536660545869      -17.28385492471050      -11.93150928394451
H          -15.65831554531622      -17.21563668046235      -13.68370967771739
C          -16.89897636727516      -24.73633207208347      -16.21426924120873
H          -15.93944724973996      -24.86142444483402      -16.71700185223634
H          -17.29553089713703      -23.76559330295795      -16.49748644081261
H          -17.57822124823566      -25.50018146923566      -16.57914685072184
C          -17.13978899923121      -27.30190869570270      -14.27501600855506
H          -17.60235086614644      -27.92169235265047      -13.51538970443695
C          -16.85815052526082      -27.85478973440645      -15.45047329509075
H          -16.36644735704722      -27.30449267218705      -16.22921047286909
H          -17.08914417628333      -28.88325747456641      -15.67173915671035
C          -16.26452747753501      -28.30929162420789       -9.12105855335979
H          -15.29825444948109      -28.76293199194636       -9.34485432877089
H          -16.95404493628639      -28.59646873240528       -9.90882517117348
H          -16.62620514837618      -28.72738396490896       -8.18630772636591
C          -15.55444515579156      -26.44728560369445       -6.55119002799550
H          -15.63624462771294      -25.65625174567873       -5.81490519485918
C          -15.19148334713236      -27.64994384644848       -6.11184094488966
H          -15.05676627924971      -28.48363637619164       -6.77182544421395
H          -15.00079287121180      -27.83781226988727       -5.06777890386642
C          -15.17915523740389      -21.12100276529287       -5.66598874611972
H          -14.13810359358373      -21.21101549933851       -5.35593990451197
H          -15.73772025915533      -21.93438770601477       -5.21595342954749
H          -15.56381819748147      -20.18591127247228       -5.26573271695834
C          -15.01534924086210      -18.63152875072413       -7.54297045682867
H          -14.42560274884496      -18.60222348514568       -6.63048642922603
H          -15.97002137861669      -18.14767677485022       -7.33864476841950
H          -14.49677184864458      -18.05341199887352       -8.29985402197610
O          -18.31623261958055      -22.81675824815474      -11.00123900808978
H          -18.70608140856628      -23.19000988879051      -11.79490152871420
H          -18.94577891162374      -22.45992411176817      -10.36590046771902
C          -12.69000560385091      -22.13358470548713      -12.06311613738201
H          -11.69832016062220      -22.40339123278742      -12.41306986215291
H          -12.61832542985860      -21.35738269565632      -11.31056122580253
H          -13.31394678117055      -21.79742730890321      -12.88048639990170
S          -13.46904022066123      -23.57346834520479      -11.25898107997498
H          -13.60956412397379      -24.28277532128016      -12.38391682260669
72
 energy: -105.969204091041 gnorm: 0.017902726465 xtb: 6.7.1 (edcfbbe)
Fe         -15.98763302766315      -23.00445437628793      -10.95678082483587
N          -15.83617946616883      -21.36482292118812      -12.17509042555273
N          -16.34711016681907      -24.11358651103297      -12.57413323473599
N          -16.06633712055554      -24.62218826187924       -9.73533145900961
N          -15.61451694366190      -21.86981796168405       -9.32713164781336
C          -15.57042340127300      -20.09940411238420      -11.76178615286691
C          -15.49046774808980      -19.20357412907255      -12.89386680958531
C          -15.71455061598658      -19.96362936995759      -14.00438829959906
C          -15.94316568546423      -21.31409737014038      -13.53153149167383
C          -16.42495687590798      -23.70762136043035      -13.87405626552318
C          -16.73022509811835      -24.82507495542951      -14.73359642735914
C          -16.84812768977773      -25.92443919418240      -13.91718715541978
C          -16.60852596251676      -25.44821063330824      -12.56429434544187
C          -16.27740416179559      -25.90118385244664      -10.14478345289473
C          -16.13429088151900      -26.82149819085705       -9.03893433931207
C          -15.83084783299512      -26.05775001789931       -7.93607968549613
C          -15.81844793831840      -24.67908912132318       -8.40438948949509
C          -15.52123691407808      -22.26826859384021       -8.02980115478253
C          -15.30065324292201      -21.12973932532638       -7.16345599904491
C          -15.22618125592589      -20.04013370400531       -7.97742438359469
C          -15.42147547875421      -20.52414944218643       -9.32773124763863
C          -15.39347328820131      -19.71035754456822      -10.44485049966549
H          -15.20955002997305      -18.66030166694893      -10.27169861705793
C          -16.23078105181861      -22.40926473971311      -14.32833832636367
H          -16.31229486731963      -22.23688251004958      -15.39119500115567
C          -16.58459684936714      -26.26825242871250      -11.44822676174083
H          -16.80077041097607      -27.31276151504971      -11.62078853863903
C          -15.59048912034449      -23.57926857337482       -7.59514851411115
H          -15.44349520951963      -23.75567435516781       -6.54039554996807
C          -15.71875036901813      -19.48757026283359      -15.41770279879021
H          -15.03925024025767      -18.64435864805063      -15.52836492844553
H          -16.71458606369665      -19.15309912535062      -15.71282196323460
H          -15.40696515399109      -20.26828170970432      -16.10604284948756
C          -15.18870776467846      -17.74578633526890      -12.84772531058689
H          -14.11258319156426      -17.57451467607746      -12.91315146938978
H          -15.54498868293073      -17.29561949953666      -11.92514393206990
H          -15.66225921745697      -17.23225183693458      -13.68132781439819
C          -16.90434397655759      -24.73284912728109      -16.20811873557476
H          -15.94676128993992      -24.86120816246727      -16.71592737746195
H          -17.30507200869294      -23.76261327725113      -16.49255305805934
H          -17.58531001910715      -25.50219264782245      -16.56311688910095
C          -17.13421185836857      -27.29022436943735      -14.27660067267020
H          -17.60459795967932      -27.89508850329802      -13.51005052970726
C          -16.85483415816044      -27.85697640560432      -15.44777156909018
H          -16.33865508229485      -27.32846469912100      -16.23022304800297
H          -17.10081584051943      -28.88400117012546      -15.65637496082369
C          -16.27748502299256      -28.29807559452397       -9.13131564942947
H          -15.31045381087987      -28.75761802818063       -9.34496108289578
H          -16.96436329110567      -28.58085245323645       -9.92492414643352
H          -16.65015481809884      -28.70672351590498       -8.19499938432570
C          -15.56515710386995      -26.44683363360824       -6.57418475688022
H          -15.66106330352630      -25.65367876850628       -5.84230774669123
C          -15.19541326303330      -27.64646923444593       -6.12859350473476
H          -15.02139763040982      -28.48342250861885       -6.78137532233779
H          -15.01653358696023      -27.82460902112869       -5.08133950511868
C          -15.18242486386862      -21.13741462138464       -5.67814436634881
H          -14.13990558775632      -21.23501575770517       -5.37188178556626
H          -15.74438843247527      -21.95455532450941       -5.23555794517513
H          -15.56470747027662      -20.20287300134957       -5.27161703322721
C          -15.01383887544110      -18.62865060591368       -7.55385659728113
H          -14.42330500511708      -18.59779660338705       -6.64099086720672
H          -15.97013289206713      -18.14278697598400       -7.35421993894531
H          -14.49537127749608      -18.05377267121317       -8.31557896483171
O          -18.22306875810659      -22.78457575423838      -10.97579414625619
H          -18.64311074567612      -23.18265383088616      -11.74541747582081
H          -18.86898998396664      -22.46212647086696      -10.33739418056572
C          -12.69528421393199      -22.12513349785358      -12.06198579763269
H          -11.70537848931490      -22.41024029792365      -12.40657196803213
H          -12.62105940740256      -21.35064995711755      -11.30734191234388
H          -13.31565101866906      -21.78405590502072      -12.88122857825995
S          -13.48550211653969      -23.55736987457633      -11.24898867810770
H          -13.62695781827173      -24.27844889730497      -12.36699465827793
72
 energy: -105.971457383383 gnorm: 0.022578990474 xtb: 6.7.1 (edcfbbe)
Fe         -15.93838254910079      -23.00347336056551      -10.96321805941320
N          -15.82942242251040      -21.37278681082294      -12.14949549551154
N          -16.33196842965371      -24.11943201510053      -12.56395328316262
N          -16.06979203828198      -24.61202556102727       -9.75743334901350
N          -15.64194215779302      -21.85352560410281       -9.34119295589807
C          -15.57363833135286      -20.10119237003506      -11.74872192995764
C          -15.49239793944724      -19.21572701771694      -12.88431700471162
C          -15.71164353602558      -19.98348119444438      -13.98815782572855
C          -15.93640321996961      -21.32641476632307      -13.50553561940406
C          -16.41623916196778      -23.70954909835042      -13.86134070373582
C          -16.72097675449245      -24.81529642467146      -14.72825068092509
C          -16.83335382955275      -25.91864416129275      -13.91936406736367
C          -16.59424414016525      -25.45224055446548      -12.56705842175836
C          -16.27488189296818      -25.89361361682151      -10.16175752349692
C          -16.13573608552017      -26.80948948104504       -9.06066614754207
C          -15.83522049894174      -26.04589090083508       -7.95983561826777
C          -15.82926507564144      -24.66732884573933       -8.42561253782465
C          -15.55050707354573      -22.25876542837468       -8.04832447867762
C          -15.31545634664807      -21.13078248601207       -7.17636687908027
C          -15.23610599636465      -20.03616047734173       -7.98188686892766
C          -15.44398434336023      -20.51007017806503       -9.32932929694735
C          -15.40157261280026      -19.69315361235565      -10.44031609039387
H          -15.20624285991022      -18.64483291464565      -10.27298921713598
C          -16.21773679512651      -22.41428507202130      -14.30758306832087
H          -16.29039341383782      -22.23913339872125      -15.36946840401705
C          -16.56324520752636      -26.27740213882101      -11.46015221109592
H          -16.74798495925084      -27.32836486380620      -11.63203301440952
C          -15.60691529697749      -23.56993690079760       -7.61581130175739
H          -15.44396981720189      -23.74324472150706       -6.56312166042629
C          -15.72170489647945      -19.52424564028901      -15.40573049776776
H          -15.04529091642312      -18.67951840662823      -15.52643280109614
H          -16.72160774071164      -19.19873594914624      -15.69951234201365
H          -15.41004387726210      -20.31240786878792      -16.08676364630682
C          -15.19502237549667      -17.75790125467891      -12.84050575124056
H          -14.11802689058120      -17.58594817837615      -12.89763068963413
H          -15.56004362711813      -17.30770618142495      -11.92055581809757
H          -15.66519257551925      -17.24923701114101      -13.67930536530633
C          -16.91142327080020      -24.72777935368108      -16.20028355193786
H          -15.95951710554722      -24.85882632818866      -16.71922676448303
H          -17.31925185982703      -23.75999599475007      -16.48567226752250
H          -17.59445707801597      -25.50421408154356      -16.53960064797274
C          -17.12839476352083      -27.28137903292822      -14.27862166546808
H          -17.61890853700496      -27.86671421873593      -13.50957419727211
C          -16.84427139191513      -27.86353415430417      -15.44101420880104
H          -16.31535361285395      -27.35542648213838      -16.22945338191263
H          -17.11536761363887      -28.88679251113628      -15.63755954402672
C          -16.29498002206553      -28.28442414953806       -9.14335018996363
H          -15.33114151661989      -28.75796967078545       -9.34341929028721
H          -16.97899312385277      -28.56328626215699       -9.94184348469597
H          -16.68207564123772      -28.67737786829057       -8.20508979537971
C          -15.57653664836072      -26.44187203125852       -6.60029988882836
H          -15.70667760361304      -25.65342702880242       -5.86802851123325
C          -15.18827249318443      -27.63598033594819       -6.15572581102700
H          -14.99105912229704      -28.47518877418745       -6.79997009768960
H          -15.03941099168272      -27.81052882226859       -5.10281746531246
C          -15.18855825654768      -21.16009604345832       -5.69256129880438
H          -14.14466809440253      -21.27034372071166       -5.39354881432021
H          -15.75425008976392      -21.98190166193974       -5.26105540047448
H          -15.56375483828315      -20.22858543517211       -5.27140473389809
C          -15.01277211087486      -18.62424995352746       -7.56581681606067
H          -14.42294156007901      -18.58968095243507       -6.65254991458276
H          -15.96787658063098      -18.13055016273126       -7.37457167899295
H          -14.48982226725417      -18.05820872203596       -8.33263196467290
O          -18.15985991575554      -22.70049793991303      -10.94709012882386
H          -18.60452676180757      -23.17890328705304      -11.66576822120360
H          -18.83274776384205      -22.47210045075767      -10.28320449852665
C          -12.69475381715395      -22.11537483391134      -12.05943861724515
H          -11.70990028526781      -22.40759709362801      -12.40849621399076
H          -12.61669130837183      -21.34025618847422      -11.30540507391763
H          -13.32068263712922      -21.77388836760661      -12.87565390142027
S          -13.47188588379522      -23.54737747009080      -11.23063907250104
H          -13.64365974747318      -24.27072614961343      -12.34188226037821
72
 energy: -105.972428238043 gnorm: 0.011571480459 xtb: 6.7.1 (edcfbbe)
Fe         -15.94588765746882      -22.99406735929642      -10.96078668150529
N          -15.81564745043853      -21.37545778860688      -12.13963633364637
N          -16.32544161657187      -24.12207683835414      -12.56237459351031
N          -16.06972777753571      -24.60906306934158       -9.77167508325060
N          -15.63860641637374      -21.84590159184269       -9.34878481138074
C          -15.56657260315559      -20.09987725586652      -11.74307694472181
C          -15.49202183224539      -19.21932355096192      -12.88245802164725
C          -15.70642551368262      -19.99155105552718      -13.98125474299106
C          -15.92271112543565      -21.33336062737076      -13.49656368676615
C          -16.40532106024193      -23.71015273190589      -13.86028928156136
C          -16.71195240161048      -24.81309752843927      -14.72809224524242
C          -16.82084881518958      -25.91824571674942      -13.92433894834235
C          -16.57738398373373      -25.45848138506322      -12.57282737631154
C          -16.26627474548932      -25.89339808915575      -10.17557902328300
C          -16.13399705919463      -26.80421979904029       -9.07158584871815
C          -15.83927334348764      -26.03978255641055       -7.97307081357496
C          -15.82732906972628      -24.66298125538772       -8.43847172737898
C          -15.55256368268133      -22.25645646594654       -8.05701664420021
C          -15.32363867341234      -21.13061098291324       -7.18125679101546