72
 energy: -105.979945425738 gnorm: 0.000195686741 xtb: 6.7.1 (edcfbbe)
Fe          -9.88541969397787       35.73421622186187       -0.85818282274587
N           -9.13413647213641       33.86852756408692       -0.96255169461363
N           -9.85430403107702       35.61680272854911        1.15454586242634
N          -10.65708895328270       37.56340391584485       -0.74413941715479
N          -10.01461429469061       35.78372791857304       -2.84163464845826
C           -8.90884656066673       33.13825799404521       -2.08882422512190
C           -8.31000328391547       31.86597864254459       -1.76009769573813
C           -8.17417716654259       31.84410904771453       -0.40595701715547
C           -8.70443785838159       33.09826115177567        0.07637469687587
C           -9.35366793737468       34.59900431158977        1.91087009079864
C           -9.49119416044933       34.88980732106183        3.31353696638343
C          -10.09024425312084       36.11948247945269        3.39523574702251
C          -10.30167190812729       36.55467893442528        2.03035678712349
C          -10.96940767211991       38.24910925036507        0.38669700491111
C          -11.45320841771787       39.56819231146184        0.06606267968544
C          -11.39077764474907       39.68105218256910       -1.29491493971778
C          -10.91589127206475       38.39865447125754       -1.77953463537294
C          -10.46712423888090       36.81753640578745       -3.59534830571832
C          -10.47245382969441       36.46412331899964       -4.99881759333849
C          -10.01359624981294       35.18706818795865       -5.07197759983535
C           -9.73127592731482       34.78015159244958       -3.71245895746979
C           -9.20816024279398       33.54629126085881       -3.37557436993123
H           -9.00747800051247       32.85223619159419       -4.17670910930844
C           -8.79314319246676       33.43470157786354        1.41323154518414
H           -8.40932843837573       32.72327148917766        2.12740571304088
C          -10.82937537677907       37.78174983044728        1.68050721180078
H          -11.12581045565434       38.44320693706759        2.47943521583879
C          -10.86304485537409       38.04958430695716       -3.11467924119213
H          -11.19047639326024       38.78476138211136       -3.83249433955759
C           -7.61509610412377       30.77649616096910        0.46980065074724
H           -7.24868987089873       29.94277283500736       -0.12377395568098
H           -8.37791168159256       30.40131448392462        1.15281393604317
H           -6.78845307793902       31.16288174884455        1.06632845785786
C           -7.93782225541200       30.83013631924614       -2.76391206979250
H           -7.20907215998553       31.22532040898948       -3.47218914887651
H           -8.81513277023148       30.50968858277975       -3.32617032124214
H           -7.50578491788264       29.95877649658062       -2.27830619444242
C           -9.11410162750509       33.96892668969303        4.42050385683064
H           -8.04870432500758       34.04518524593273        4.64371717894430
H           -9.32944496949737       32.93508667016402        4.15435322163729
H           -9.67186628849958       34.22028302220653        5.32025901234555
C          -10.48016033636391       36.87255682343500        4.56706079271277
H          -11.37629302749995       37.47278057304549        4.46010155274142
C           -9.82970413289035       36.88456413619502        5.72554583076156
H           -8.90895697626824       36.34733590635226        5.87145108505935
H          -10.18425222546340       37.46054089657451        6.56400519820875
C          -11.86793287362307       40.59188418025359        1.06439832204286
H          -11.02531161157336       40.87314079702448        1.69674629816858
H          -12.65790394218759       40.20354801206700        1.70776013499210
H          -12.23263115060930       41.48605344433336        0.56549946709299
C          -11.72667991567454       40.84416156737115       -2.09045868729378
H          -12.58020777361984       41.41461758535256       -1.74053386288436
C          -11.05810441273052       41.26889071336639       -3.15624948350119
H          -10.17187338415212       40.76990623860150       -3.51009960131122
H          -11.36028548059952       42.15024973434760       -3.69719088937728
C          -10.91101207141588       37.37675738320102       -6.09099663813535
H          -10.29758139632110       38.27785593279572       -6.10773868091852
H          -11.94781286158808       37.67795356836071       -5.94238109996714
H          -10.82994296504956       36.88895968063603       -7.05920852268414
C           -9.81213089028650       34.32038894041390       -6.26698273835606
H          -10.11058866104237       34.83928852971032       -7.17429316579323
H          -10.40374454820432       33.40878336123138       -6.18265029869294
H           -8.76379308912214       34.03599685238263       -6.36382437139555
O          -11.91800207038886       34.79851935030547       -0.71675029386429
H          -12.15169810744124       35.00475544237451        0.19562472782454
H          -11.68233437859231       33.86400929969397       -0.74488226616517
C           -6.84696930909171       36.11214927816153       -2.32121848635072
H           -5.77811766318162       36.24794718558348       -2.18737650118949
H           -7.21119954639174       36.75911373666210       -3.11237570373501
H           -7.08939944907963       35.08012301629544       -2.55032997118905
S           -7.71163898047230       36.62027245196665       -0.79423267730551
H           -7.16529793917273       35.67107778906862       -0.02620700257944
