78
 energy: -116.058074531113 gnorm: 0.000143973518 xtb: 6.7.1 (edcfbbe)
Fe          27.84503816707628       89.59541265823047       51.34261819421575
N           28.78515002903991       91.24824922957406       50.67797430389679
N           29.01681267016296       89.57916613095952       52.95722059248794
N           26.86314524987903       87.99716728974595       52.01403005741689
N           26.63408427381367       89.66307725849465       49.73594378709179
C           28.55657170113875       91.91177656330120       49.51224958705866
C           29.47142455980319       93.02116743057539       49.36810138811740
C           30.26490028842384       93.00974044602631       50.47349483744062
C           29.82453571094702       91.89260535292483       51.27755608167497
C           30.00919245930686       90.45902499594033       53.26275128741187
C           30.64804046110346       90.10300955472223       54.50444831324437
C           30.02182664241921       88.96819956737869       54.94603357724323
C           28.99708552969197       88.66943429915894       53.96302344936359
C           27.13433285637699       87.29664362131194       53.14720472142627
C           26.22730029243732       86.18555971923558       53.29456911922230
C           25.38998207554579       86.22744319590365       52.21246150202240
C           25.80886328614155       87.37507000255036       51.42929180237608
C           25.62623800655504       88.79879141428371       49.43927405836362
C           25.01588508975717       89.13976480575339       48.17428777866392
C           25.68544484820935       90.22869876688959       47.70838591122660
C           26.69487637672255       90.53838041262203       48.69556874752163
C           27.58456796816940       91.59002019978207       48.58296107456341
H           27.51994762320208       92.20405218214272       47.69796023375041
C           30.39320202424406       91.53931046619351       52.48566089354601
H           31.21193635011895       92.14519142478372       52.84306416650348
C           28.13806256073235       87.59242749060998       54.05104235021302
H           28.25283663427641       86.93187560476684       54.89677738532538
C           25.22906070902548       87.73396424939816       50.22612299078521
H           24.41255482685307       87.12844759377180       49.86332795834232
C           31.37714436275365       93.92861329418150       50.84791037243217
H           31.16345673261604       94.42305670917057       51.79588436536352
H           31.51961832306755       94.69321988190387       50.08826063959635
H           32.31134702000942       93.37721960404977       50.95860488065383
C           29.48385707763773       93.95546688482976       48.20706678234188
H           28.52542922007190       94.46723465213482       48.11545400285752
H           29.66567185918884       93.41169209876394       47.27977034184866
H           30.26218061287240       94.70582409744551       48.32226899241106
C           31.72252285429741       90.88838943590154       55.17270294753826
H           31.55238643429179       91.95685950087757       55.04915474446860
H           32.70131014648514       90.65114236972582       54.75159475872442
H           31.74307575676292       90.66041188429730       56.23638080869760
C           30.25893266306251       88.20420615946314       56.15050537117055
H           29.38294816872735       87.74447188987982       56.59276491701520
C           31.44093485754223       88.02580032185413       56.73177539762674
H           32.35138250144620       88.41780572578870       56.31293931199006
H           31.54168666164098       87.45382416177166       57.63926684073066
C           26.19503184115833       85.25325224111630       54.45465221771188
H           26.38064964447742       85.78988263124602       55.38374771971174
H           26.95746629996509       84.47899866245419       54.35358263329478
H           25.22156411495614       84.77160448214364       54.51973646600798
C           24.28179820939512       85.36084894672216       51.87689053369684
H           23.44690539951823       85.83992752144887       51.37832164249535
C           24.22089987480975       84.05628403887282       52.12385752973172
H           25.03816146990135       83.52012624942613       52.57388126968445
H           23.35456914600330       83.47243064609944       51.86009904859126
C           23.87703509002175       88.39753419239626       47.56368593830589
H           23.01059266340089       88.41279797268089       48.22539265666533
H           24.14820528667124       87.35636250381647       47.38722825122747
H           23.58981708431531       88.84211107513673       46.61398516410327
C           25.47723756974482       90.99755059101544       46.44878969994709
H           25.23920602454098       92.03876957423722       46.66840646751490
H           24.66049293521452       90.57535533337577       45.86855556701261
H           26.37872920275261       90.97950536076679       45.83591102611913
O           26.35641617409552       91.02191098379863       52.34929830703895
H           25.65321991231689       91.01838781413343       51.69063698321504
H           26.83527662974118       91.85175110001414       52.24836013902735
C           30.23909061511903       85.66925660945616       48.19204219652807
H           30.89005180866383       84.94467925148234       48.68106191039852
H           30.71528737075710       85.98277998380743       47.26304680773676
H           29.29686286493165       85.18563135230131       47.95437307474206
N           30.99901854441736       87.63485016674159       49.54507473622347
H           31.97976217548065       87.52025793712986       49.34860386699827
C           29.98959717760157       86.83513028680065       49.07689227228082
C           30.43809814147115       88.59411425751209       50.31527767558636
H           30.99086497037822       89.36318964258182       50.81422086002044
N           29.13588804106455       88.45053767721893       50.36281363525052
C           28.84176646719598       87.36066584546121       49.59717622591412
H           27.83165272628677       87.02960446952596       49.47268585122798
