77
 energy: -118.382474197078 gnorm: 0.297830719997 xtb: 6.7.1 (edcfbbe)
Fe          35.31900000000000        4.15000000000000       10.35900000000000
N           37.16100000000000        3.85400000000000        9.77500000000000
N           35.05000000000000        5.37700000000000        8.78500000000000
N           33.43400000000000        4.48800000000000       10.95900000000000
N           35.64800000000000        2.93200000000000       11.83200000000000
C           38.15000000000000        3.02300000000000       10.33200000000000
C           39.42300000000000        3.05900000000000        9.53900000000000
C           39.16600000000000        3.87900000000000        8.47800000000000
C           37.76899999999999        4.34900000000000        8.61800000000000
C           35.93700000000000        5.72100000000000        7.80000000000000
C           35.38900000000000        6.73100000000000        6.79000000000000
C           34.10400000000000        6.95000000000000        7.24300000000000
C           33.93500000000000        6.12600000000000        8.45800000000000
C           32.57200000000000        5.44300000000000       10.47100000000000
C           31.38600000000000        5.59100000000000       11.31900000000000
C           31.52200000000000        4.68900000000000       12.36700000000000
C           32.80600000000000        3.99100000000000       12.09600000000000
C           34.69900000000000        2.61000000000000       12.86900000000000
C           35.24600000000000        1.65400000000000       13.80300000000000
C           36.54699999999999        1.52100000000000       13.37700000000000
C           36.75600000000000        2.23100000000000       12.17700000000000
C           37.94800000000000        2.22800000000000       11.46500000000000
H           38.75800000000000        1.58100000000000       11.80200000000000
C           37.21999999999999        5.19400000000000        7.73500000000000
H           37.83700000000000        5.49500000000000        6.88800000000000
C           32.78300000000000        6.16900000000000        9.27200000000000
H           31.97600000000000        6.82500000000000        8.94700000000000
C           33.43700000000000        3.14800000000000       12.98900000000000
H           32.87700000000000        2.88000000000000       13.88400000000000
C           40.07200000000000        4.32300000000000        7.32800000000000
H           41.07600000000000        3.86400000000000        7.44900000000000
H           40.17800000000000        5.42900000000000        7.33900000000000
H           39.63900000000000        3.99300000000000        6.36000000000000
C           40.71200000000000        2.23600000000000        9.74300000000000
H           40.72899999999999        1.38900000000000        9.02400000000000
H           40.73900000000000        1.83100000000000       10.77700000000000
H           41.60000000000000        2.87900000000000        9.56300000000000
C           36.01800000000000        7.25400000000000        5.48300000000000
H           36.80300000000000        6.54600000000000        5.14000000000000
H           36.48199999999999        8.24800000000000        5.66100000000000
H           35.23700000000000        7.33500000000000        4.69700000000000
C           33.13600000000000        7.87700000000000        6.72900000000000
H           32.08600000000000        7.55400000000000        6.73400000000000
C           33.37200000000000        9.24400000000000        6.18000000000000
H           34.39000000000000        9.65800000000000        6.13200000000000
H           32.53100000000000        9.85300000000000        5.81700000000000
C           30.24900000000000        6.57400000000000       10.97300000000000
H           29.93700000000000        6.42300000000000        9.91700000000000
H           30.60500000000000        7.61900000000000       11.09800000000000
H           29.37700000000000        6.38800000000000       11.63600000000000
C           30.75200000000000        4.44900000000000       13.52900000000000
H           30.96200000000000        3.52700000000000       14.08800000000000
C           29.71400000000000        5.27200000000000       14.07900000000000
H           29.43200000000000        6.21600000000000       13.59000000000000
H           29.18800000000000        4.96900000000000       14.99600000000000
C           34.60099999999999        1.08600000000000       15.05000000000000
H           33.58300000000000        0.71500000000000       14.80500000000000
H           34.51900000000000        1.87800000000000       15.82400000000000
H           35.20900000000000        0.24000000000000       15.43500000000000
C           37.64299999999999        0.84700000000000       14.17400000000000
H           37.79400000000000       -0.18700000000000       13.79600000000000
H           37.35400000000000        0.80100000000000       15.24600000000000
H           38.59200000000000        1.41400000000000       14.06100000000000
C           32.37500000000000        0.04000000000000        7.55100000000000
H           32.22200000000000       -0.71400000000000        8.35200000000000
H           32.60200000000000       -0.48600000000000        6.60000000000000
H           31.44700000000000        0.64100000000000        7.44000000000000
N           34.93600000000000        0.80200000000000        7.63300000000000
H           35.32200000000000        0.10800000000000        7.02500000000000
C           33.55700000000000        0.96700000000000        7.93200000000000
C           35.59900000000000        1.73600000000000        8.30900000000000
H           36.68100000000000        1.85900000000000        8.30500000000000
N           34.73100000000000        2.44600000000000        8.95100000000000
C           33.37300000000000        2.03200000000000        8.76800000000000
H           32.51600000000000        2.50800000000000        9.21900000000000
O           36.03100000000000        5.57900000000000       11.22900000000000
O           35.47400000000000        5.75900000000000       12.29400000000000
77
 energy: -118.463021199932 gnorm: 0.141591615221 xtb: 6.7.1 (edcfbbe)
Fe          35.33134468076095        4.16619152473010       10.35496084762651
N           37.19566086205145        3.83055166510519        9.75883491369733
N           35.03339633603326        5.40626628970905        8.74860011804540
N           33.41345592090600        4.49581128945751       10.95849284158110
N           35.62606323749200        2.91765432265527       11.84293626411952
C           38.16338487371141        3.01749999005741       10.32295697017472
C           39.41191346903113        3.04849737431983        9.53124291072197
C           39.16440181496718        3.87979615397392        8.47791382629491
C           37.78741606825305        4.35243661869239        8.61987554752368
C           35.93116042299567        5.73317290492217        7.77206910208501
C           35.38772716218383        6.71541708144902        6.80413462013704
C           34.10307687495686        6.97795027494772        7.25778529845119
C           33.91156051296979        6.14081099598588        8.45792845328425
C           32.56121024595336        5.44648394234416       10.46116926768782
C           31.38913850238979        5.60013978321292       11.30395560902698
C           31.52548621143765        4.70433598064821       12.36159482763216
C           32.81079475137329        4.01837634286146       12.10458121497163
C           34.69441703774039        2.59972848132177       12.85569374809754
C           35.25827340928108        1.67388162546183       13.80409557438908
C           36.56215115426241        1.51447516395572       13.39547519501365
C           36.75547977291903        2.23611149534136       12.18127697635376
C           37.95041431581384        2.23799382670249       11.45690501004283
H           38.75247117273285        1.59373983669306       11.79710217155892
C           37.22105199998852        5.20509314362924        7.71662712190334
H           37.83750233810581        5.50527434328478        6.88099054269810
C           32.77428131551397        6.16997319672538        9.27007850944375
H           31.97625046679217        6.82676029083824        8.95276351171244
C           33.42763609067739        3.14742866572008       12.98213996705734
H           32.87963041002780        2.87832951761421       13.87771699336499
C           40.06348846360908        4.31307867246052        7.34536518010595
H           41.05814479990097        3.86798550154817        7.45008768218153
H           40.17373300407262        5.40539464602660        7.34104975378962
H           39.64598221568740        3.99956200075655        6.37962495830176
C           40.68392433774751        2.24753448432445        9.74883619424573
H           40.72222948346708        1.40847448777570        9.03961291251118
H           40.73762355419695        1.84076786145671       10.76328189222459
H           41.57052847700224        2.87011373468971        9.57122197266417
C           36.01405845412595        7.23283659521002        5.51921615139066
H           36.79169403497039        6.55329746089306        5.15123048139283
H           36.47192372833021        8.22103774073662        5.66732069266626
H           35.25055447117709        7.33273051193080        4.73369485598145
C           33.14207451228639        7.91047439938120        6.71993790516623
H           32.10131271126856        7.58258158356150        6.74197061738998
C           33.37323241335494        9.17807305456899        6.19159846586491
H           34.36520388986199        9.62075656097400        6.14841217656811
H           32.55225450080698        9.80199579143651        5.83979529970242
C           30.26502550415308        6.55950981945112       10.97587949089641
H           29.94570200148061        6.42431649159301        9.93489190740549
H           30.60133984080767        7.59717433931198       11.09882458728709
H           29.39718989729157        6.38800887347377       11.62010811062404
C           30.73164459590928        4.46326229298757       13.52557738929867
H           30.95442305904650        3.55076821042608       14.08129291604997
C           29.73685897438751        5.25133717740289       14.05424600170199
H           29.45019122373361        6.19419615161360       13.60143783643373
H           29.21503663159157        4.96483579664204       14.96404355848849
C           34.60506467025302        1.09786669660615       15.02972054767127
H           33.59847342772500        0.72383522581924       14.80512074326179
H           34.52019979561297        1.86565513693322       15.80978702400559
H           35.19665445965497        0.26245081899919       15.42346217336998
C           37.64660365475419        0.83847579166249       14.17121562545280
H           37.80072224896490       -0.18293481271616       13.80408488728283
H           37.36711421717353        0.79819886716166       15.22863883288945
H           38.58136566679071        1.39969341979648       14.06824426389170
C           32.39590931206080        0.03886840228700        7.54119750355008
H           32.23183370939154       -0.70183449340384        8.33428857404092
H           32.59763091600266       -0.48530047741955        6.60406624327364
H           31.47807687581958        0.63006883876754        7.43968049503266
N           34.89489944402805        0.78992394461095        7.63904110729730
H           35.29190019363846        0.09607742733596        7.02622167036407
C           33.54122961255628        0.95037352106096        7.93162011948749
C           35.56505023898868        1.74270203772842        8.31504787334463
H           36.64208997440123        1.85595578170697        8.30166734947279
N           34.72865863509804        2.48466394374788        8.98349490152503
C           33.42240271027234        2.02470354815357        8.76272534416974
H           32.56522113686713        2.49864836834716        9.20872415124009
O           36.04455223790663        5.59887826564811       11.21936162112880
O           35.46422065044954        5.76274338417306       12.32413200321713
77
 energy: -118.487110450333 gnorm: 0.056242907868 xtb: 6.7.1 (edcfbbe)
Fe          35.33860479539797        4.18255372894486       10.35694442765816
N           37.22701558616939        3.81840507820374        9.73813955628570
N           35.02062823402184        5.43393701506041        8.71778466855416
N           33.39229697424453        4.50808350828893       10.95812757555774
N           35.60439541086457        2.89764723132862       11.85503645514826
C           38.17057206249616        3.01246830484382       10.30414322221253
C           39.40082372550491        3.04047420615356        9.52384153379167
C           39.16173146438275        3.88656878506832        8.47446468031817
C           37.80129537363490        4.35959632675281        8.61535508670305
C           35.92341969334709        5.74528746468026        7.74537964239244
C           35.38511231501759        6.69850214732499        6.81558059310229
C           34.10377354683835        6.99263650856088        7.26891898083784
C           33.90074026206428        6.16391275755543        8.46203710532326
C           32.54814179276585        5.45055192188221       10.44948730892514
C           31.38847844145349        5.60617971349222       11.28833251804687
C           31.53762119599524        4.72205189133349       12.35341689064462
C           32.81698453496517        4.04610615099014       12.10974262928853
C           34.69455808642366        2.59307711267622       12.84084664259594
C           35.27034903261704        1.69291949681450       13.80247844099453
C           36.57831207829307        1.51303896050068       13.41160596781977
C           36.75596643181920        2.24021103417360       12.18434744457740
C           37.94686199299422        2.24909727112571       11.44736187211107
H           38.74633537814545        1.61328449088738       11.79704946806167
C           37.21845808227407        5.21453032425256        7.69897156457010
H           37.83817710996311        5.51978584635355        6.87367477683820
C           32.76575507688506        6.17551830449297        9.26602752670754
H           31.97216464323322        6.83537644588953        8.95602219704153
C           33.41880156701936        3.14605654480099       12.97129628535109
H           32.88052536846575        2.87393382010495       13.86726057982865
C           40.05990974875456        4.30335788781341        7.36016359452657
H           41.04636976657014        3.86275669367769        7.46110419475851
H           40.17003803343505        5.38774522671110        7.34843049790773
H           39.64852610442126        3.99898902537550        6.39713333048163
C           40.65467319429854        2.25736288846074        9.75379801817534
H           40.70797625079937        1.42205598352054        9.05124076209814
H           40.71945427124444        1.85514553338444       10.75913274916875
H           41.53572678506178        2.87479948021597        9.57899332763888
C           36.00920967654098        7.21408525088174        5.55539853024684
H           36.78066248203471        6.54734939197129        5.17740324046986
H           36.46287855709544        8.19706296867408        5.69557890279688
H           35.25078517374023        7.32643851872978        4.77680045570158
C           33.14334081415159        7.93238250171372        6.71655883255387
H           32.11090128626889        7.59391067742720        6.75843531240515
C           33.37565222277944        9.12297538024419        6.22630434597413
H           34.35340212826725        9.57516205140639        6.16178224940661
H           32.57537338300645        9.74709023889533        5.85015443610614
C           30.27701878095922        6.54613702989273       10.97581624218817
H           29.95557484575988        6.42379593505510        9.94192791571432
H           30.60329243631127        7.57906303948956       11.10283091247754
H           29.41628541893974        6.37729132288611       11.61284503160470
C           30.72441764629825        4.47794253124979       13.52061940328728
H           30.95520252417822        3.56429256624881       14.06023280417269
C           29.76371679086255        5.24150060183743       14.03101082285525
H           29.46508090137585        6.18349409885618       13.60612480684080
H           29.23676435330292        4.95706390475595       14.92874623276614
C           34.60892559077638        1.11355579434562       15.00985892985829
H           33.61056638824247        0.74029260711279       14.78910773096723
H           34.52075867413888        1.86560798827887       15.79521932695754
H           35.19280757346285        0.28451866298932       15.40505789735274
C           37.65299063535212        0.82990543914290       14.16988813066867
H           37.80927396429070       -0.18406721026140       13.80774109155762
H           37.38231635535578        0.78713286629595       15.22003487331687
H           38.58218148950104        1.38381388516995       14.07444420208260
C           32.41462666765682        0.04417482262278        7.53640150699457
H           32.24384292319304       -0.69757549018459        8.31755206010761
H           32.61072195142528       -0.47577359199046        6.60610623041294
H           31.49966724819000        0.62324679991926        7.43454853129128
N           34.85629024383098        0.77990071338502        7.65116957838508
H           35.26087551308426        0.08778682338868        7.03695577684622
C           33.52577457370300        0.94234618883020        7.93986805300009
C           35.53624793559316        1.74015345061169        8.31482550151450
H           36.60607917400956        1.84530595771872        8.28801705946807
N           34.72507711296595        2.50708041182089        9.00207580834069
C           33.46477360073938        2.02593217887003        8.76975004701526
H           32.60547848623613        2.49456752032681        9.20999179323419
O           36.05661370241416        5.62182492812474       11.20940051620162
O           35.45597636208284        5.74922613157024       12.33974276081485
77
 energy: -118.492267972607 gnorm: 0.019261806079 xtb: 6.7.1 (edcfbbe)
Fe          35.34349431269836        4.19911864851038       10.36325114511395
N           37.22752253759663        3.81956599790229        9.72038883297125
N           35.01532625354281        5.43877853018780        8.71937144301011
N           33.39234335468872        4.51920203523692       10.95029297704201
N           35.60429581431872        2.89271151879954       11.85118614680250
C           38.16429682955655        3.01276200698181       10.28889317264881
C           39.38798336640071        3.03717772486722        9.51374673440792
C           39.15734023667607        3.88804356094942        8.46576986995004
C           37.80166786977595        4.36637829112472        8.60407837205750
C           35.91551665872922        5.74468940307162        7.74379673150517
C           35.37061447300165        6.69371526223878        6.82589809010496
C           34.09387758323300        6.98469189035721        7.28359203658634
C           33.89732756018656        6.16979421598053        8.47195405983270
C           32.54410247986022        5.45462586795218       10.44103207121647
C           31.38997212399342        5.60842834784193       11.27963001288238
C           31.55112464712354        4.72961815073422       12.34227911550813
C           32.82740115449776        4.05989868636303       12.10384862880949
C           34.69961719280950        2.59379579496103       12.82876860930660
C           35.28337428273267        1.70833377004531       13.79941218538572
C           36.59194525937236        1.52270075045530       13.41442199941761
C           36.76283487024646        2.24621987159718       12.18265582467300
C           37.94583924437500        2.26062430227911       11.44190985713422
H           38.75264601703201        1.64045146718354       11.80084696838885
C           37.21393787920447        5.22192522967027        7.69062345125973
H           37.83351111313191        5.54025753129407        6.86750288665159
C           32.75763535792878        6.18319866848155        9.26458166027350
H           31.96648934595262        6.85064772257095        8.96019318238289
C           33.42026069105064        3.14563482460994       12.95715927311827
H           32.87974679625631        2.86683765783048       13.84900625966641
C           40.06617709447988        4.29555539640841        7.36368558675376
H           41.04686149739979        3.84627832404054        7.47675561490567
H           40.17996587938412        5.37875261039733        7.35336825449492
H           39.65723593446761        3.99207077941930        6.40021325102282
C           40.63417154285501        2.26170640793341        9.76188449826923
H           40.69420591823551        1.42325219074664        9.06505955762419
H           40.68738646966469        1.87094105894716       10.77187654607565
H           41.50744899218184        2.88860536157706        9.59130347377550
C           36.00407973849148        7.20605222748424        5.58072084516162
H           36.76936270078847        6.53068381238978        5.20760723898076
H           36.46441034497055        8.18064457571179        5.74060925567768
H           35.24255316530936        7.32851732631549        4.81020880275894
C           33.12215701761605        7.90902723227823        6.73692499052328
H           32.09029519894467        7.57540994909236        6.79844619192382
C           33.38701412681961        9.10311515642188        6.19799853458309
H           34.36913546269009        9.54414339133369        6.17190144307135
H           32.59143042864104        9.73933731960705        5.84249819556875
C           30.27759726011530        6.54102911939318       10.97097953759078
H           29.96197324440357        6.42724983651521        9.93463872389005
H           30.60152809801315        7.57261306218417       11.11185783092322
H           29.41936670614324        6.35783179297434       11.60591402028232
C           30.73436814215237        4.47490228043891       13.50208373277629
H           30.96653316739872        3.55789271659467       14.03103968188954
C           29.76807107178066        5.24101147522520       14.01242959260397
H           29.48705285017521        6.19814193768449       13.60970788203549
H           29.23974489958519        4.94380294398035       14.90254873741000
C           34.61154968163944        1.13386830685705       14.99679489523432
H           33.61583141440345        0.76513864100677       14.75999281415860
H           34.51765817579360        1.88442984299107       15.78206077109708
H           35.19336092746914        0.30457933055666       15.39076845418632
C           37.66384532862904        0.82058675286783       14.16485487623820
H           37.81680342756322       -0.19287082046201       13.79706721053251
H           37.40110178361670        0.76616807987153       15.21704428036150
H           38.60033223751636        1.36416334138100       14.07693694631863
C           32.41756978012913        0.04632566803325        7.53393240953115
H           32.24647585756882       -0.71064821913642        8.30016748727532
H           32.63674357291132       -0.45836112129863        6.59858194344350
H           31.50084172382147        0.61859228330857        7.42381173618130
N           34.83633583702530        0.77211582175123        7.66866714684547
H           35.22924783123412        0.07395330641736        7.05547973568956
C           33.51335093787996        0.94647940381427        7.96408304260650
C           35.52917419483737        1.73241243682551        8.31491633621862
H           36.59490604430528        1.83317232171079        8.26776219671153
N           34.73008547885216        2.50843853157590        9.01091493999716
C           33.47140341336442        2.03239601947216        8.79644466946496
H           32.61859042894410        2.50329301639938        9.23881243045567
O           36.06570090772493        5.64241472391409       11.20890698551578
O           35.45891875609146        5.73495631696976       12.34364507325554
77
 energy: -118.494928044282 gnorm: 0.019672347209 xtb: 6.7.1 (edcfbbe)
Fe          35.34591739346071        4.21603963774703       10.36743770197827
N           37.22358551738875        3.82607149095382        9.70398161766184
N           35.00905851981010        5.43993644248893        8.72761633021210
N           33.39540058321218        4.53026231136921       10.94197257621865
N           35.61027061005164        2.89231816308436       11.84594399033647
C           38.15626080040781        3.01804845262724       10.27435451583601
C           39.37546695224501        3.03637283914936        9.50341652351794
C           39.15356410620758        3.89052943863471        8.45564252018447
C           37.80070868999237        4.37414025226239        8.59265102054735
C           35.90728167029702        5.74632623161619        7.75023748605448
C           35.35892692250506        6.69494343258728        6.83709370989974
C           34.08474998371808        6.98235913296932        7.29906664754171
C           33.89208581937812        6.16919991188426        8.47901913122383
C           32.54036380143528        5.45866981476256       10.43373495585209
C           31.38977632019327        5.60812026706262       11.27243784184967
C           31.56497124332118        4.73514167377822       12.33425447427140
C           32.83976423645472        4.07088161557817       12.09673787508499
C           34.71117349038057        2.60058447143410       12.81885007949590
C           35.30008177482880        1.72511692313836       13.79730136693252
C           36.60819190375415        1.53608644324257       13.41701396879570
C           36.77447990918423        2.25473203031788       12.18135277966405
C           37.94744707148921        2.27673551887384       11.43748633941109
H           38.76531493095108        1.67617292849930       11.80538088899438
C           37.20883859068147        5.23189272841755        7.68583140708301
H           37.82533799862023        5.56367357948803        6.86338838503008
C           32.74857018125411        6.19020660728615        9.26269152188559
H           31.96147723722571        6.86637744379824        8.96434750193186
C           33.42585283772652        3.14535742072789       12.94197131736628
H           32.88098615740366        2.85602696110657       13.82720255402187
C           40.07658513180448        4.28665605661397        7.36330419280861
H           41.05075172711204        3.82573457206257        7.49195755622598
H           40.20062592361388        5.36895426405833        7.35144410183724
H           39.67513308237759        3.98351322911233        6.39628982131261
C           40.61692096478222        2.26593429003225        9.77153296415203
H           40.68736664333684        1.41882221579599        9.08650005793187
H           40.65240396762905        1.88933909475387       10.78847009229624
H           41.48779939961064        2.89730356475974        9.60748104801856
C           36.00035443153488        7.20711107156002        5.60198783001969
H           36.75341785346254        6.51711629009211        5.23034891002083
H           36.47965565311860        8.16862412831822        5.78323068329674
H           35.24088733632609        7.35139578930905        4.83440873280809
C           33.10599309926577        7.89469517122280        6.76414107877736
H           32.07395968693417        7.57461333699980        6.83791015755717
C           33.38390880084351        9.08872737100526        6.22556119521225
H           34.38514939297034        9.47195019144774        6.14737718179272
H           32.60147549640810        9.70456025758865        5.81507318734261
C           30.27217467951942        6.53465696058320       10.96699305956404
H           29.96746107409868        6.43574096652587        9.92529248998039
H           30.58755378656485        7.56689215529672       11.12901744379728
H           29.41157773172602        6.33026106621561       11.59348441458753
C           30.74645156431381        4.47217499879422       13.48619017226482
H           30.96424705794932        3.54271191637005       13.99586505059349
C           29.78250016347032        5.24682258904796       14.00118539492432
H           29.51561493990605        6.21158025480898       13.60936828151270
H           29.23422370886754        4.92516158246231       14.87074995145665
C           34.61388917731392        1.15701557339457       14.98554407065227
H           33.61973474085008        0.79543517207836       14.72912825263728
H           34.51166905287997        1.90884307577664       15.76864078726106
H           35.18899392881162        0.32577237409591       15.38457145179819
C           37.67631101469392        0.81119815251861       14.15629524264856
H           37.81822637988089       -0.19967665316730       13.77191127004789
H           37.41916343876749        0.73971410147244       15.21053341199232
H           38.62230819062544        1.34271978754353       14.07606641264443
C           32.41444849884464        0.04775169324742        7.53488290919375
H           32.23980494487924       -0.73301182870603        8.27785952353785
H           32.66934036686310       -0.43090962599601        6.59099555376506
H           31.49168096833358        0.60779094261561        7.41270839451349
N           34.81546050775179        0.76728677035803        7.68870980191284
H           35.19412746337005        0.06058304598217        7.07755398246691
C           33.49703620383180        0.94991231443895        7.99603805687541
C           35.52316537493379        1.72282787490456        8.32021790890593