87
 energy: -124.384881051884 gnorm: 0.400173936773 xtb: 6.7.1 (edcfbbe)
Fe           2.57000000000000       21.01800000000000       13.28000000000000
N            4.02200000000000       19.90500000000000       12.45700000000000
N            3.11800000000000       20.27400000000000       15.10300000000000
N            1.06400000000000       21.99400000000000       14.11600000000000
N            1.93900000000000       21.57700000000000       11.44700000000000
C            4.31600000000000       19.87400000000000       11.08600000000000
C            5.34700000000000       18.89000000000000       10.84000000000000
C            5.64000000000000       18.26800000000000       11.98500000000000
C            4.82000000000000       18.91300000000000       13.03500000000000
C            4.06200000000000       19.32200000000000       15.32900000000000
C            4.14500000000000       19.12700000000000       16.79500000000000
C            3.27300000000000       19.93000000000000       17.37400000000000
C            2.60500000000000       20.68100000000000       16.30500000000000
C            0.95100000000000       22.26800000000000       15.46000000000000
C           -0.06000000000000       23.28100000000000       15.64300000000000
C           -0.51200000000000       23.62900000000000       14.42200000000000
C            0.12800000000000       22.77900000000000       13.46300000000000
C            0.88300000000000       22.36500000000000       11.15800000000000
C            0.96900000000000       22.78300000000000        9.75800000000000
C            2.02500000000000       22.22300000000000        9.22300000000000
C            2.71200000000000       21.48300000000000       10.32900000000000
C            3.82800000000000       20.69700000000000       10.13500000000000
H            4.33700000000000       20.74200000000000        9.17300000000000
C            4.78700000000000       18.61500000000000       14.37900000000000
H            5.37300000000000       17.76200000000000       14.72200000000000
C            1.66400000000000       21.64400000000000       16.45700000000000
H            1.44900000000000       21.95800000000000       17.47800000000000
C           -0.07600000000000       22.78900000000000       12.07700000000000
H           -1.03300000000000       23.14600000000000       11.69800000000000
C            5.83600000000000       18.69300000000000        9.36300000000000
H            6.19300000000000       19.72900000000000        9.18100000000000
H            4.84000000000000       18.56600000000000        8.88700000000000
H            6.56300000000000       17.97900000000000        8.92000000000000
C            6.66300000000000       17.14399999999999       12.21900000000000
H            5.95400000000000       16.41500000000000       12.66800000000000
H            7.22100000000000       17.65300000000000       13.03400000000000
H            7.37000000000000       16.59900000000000       11.55800000000000
C            2.66800000000000       22.24400000000000        7.80300000000000
H            1.76700000000000       21.74900000000000        7.38200000000000
H            3.54600000000000       21.99299999999999        7.17000000000000
H            2.50500000000000       23.34300000000000        7.80900000000000
C           -0.13800000000000       23.62200000000000        9.16400000000000
H            0.24900000000000       24.50200000000000        8.64200000000000
C           -1.32900000000000       22.78400000000000        8.67700000000000
H           -1.66800000000000       21.90900000000000        9.25100000000000
H           -1.85600000000000       23.05000000000000        7.74900000000000
C           -1.61600000000000       24.65000000000000       14.06600000000000
H           -2.26600000000000       23.95600000000000       13.49200000000000
H           -1.00200000000000       25.24000000000000       13.35300000000000
H           -2.25700000000000       25.32900000000000       14.66800000000000
C           -0.43300000000000       23.88800000000000       17.00300000000000
H            0.43700000000000       24.02100000000000       17.64300000000000
C           -1.88900000000000       23.81400000000000       17.45500000000000
H           -2.69600000000000       23.67700000000000       16.72000000000000
H           -2.14800000000000       23.89699999999999       18.52100000000000
C            2.99100000000000       20.06800000000000       18.89400000000000
H            2.72200000000000       18.99900000000000       19.03100000000000
H            2.40100000000000       20.68200000000000       19.60700000000000
H            4.07700000000000       20.19500000000000       19.09200000000000
C            5.07900000000000       18.07000000000000       17.43500000000000
H            4.20600000000000       17.67600000000000       17.99800000000000
H            5.60300000000000       18.82100000000000       18.06300000000000
H            5.76500000000000       17.22900000000000       17.19800000000000
C            5.31100000000000       25.78900000000000       12.69700000000000
H            5.99400000000000       25.76300000000000       11.82100000000000
H            5.83400000000000       26.27800000000000       13.54700000000000
H            4.40100000000000       26.36700000000000       12.42800000000000
N            5.86900000000000       23.43700000000000       13.45000000000000
H            6.86200000000000       23.54100000000000       13.50200000000000
C            4.94100000000000       24.43600000000000       13.06300000000000
C            5.14900000000000       22.35500000000000       13.72300000000000
H            5.58200000000000       21.44900000000000       14.14700000000000
N            3.87200000000000       22.52200000000000       13.41900000000000
C            3.74900000000000       23.81000000000000       13.07300000000000
H            2.76600000000000       24.20500000000000       12.84700000000000
C            0.50800000000000       17.78600000000000       15.44600000000000
H           -0.05300000000000       17.76700000000000       16.40500000000000
H            1.59400000000000       17.72200000000000       15.66900000000000
H            0.19900000000000       16.90900000000000       14.83700000000000
C            0.20800000000000       19.07800000000000       14.68700000000000
H            0.51400000000000       19.94700000000000       15.30700000000000
H           -0.88500000000000       19.15000000000000       14.50300000000000
S            1.11200000000000       19.08500000000000       13.10700000000000
C           -0.33900000000000       19.49400000000000       12.06300000000000
H           -0.89200000000000       20.36900000000000       12.46600000000000
H           -1.04000000000000       18.63300000000000       12.02600000000000
H           -0.01200000000000       19.74000000000000       11.03100000000000
87
 energy: -124.548524478502 gnorm: 0.222589212315 xtb: 6.7.1 (edcfbbe)
Fe           2.56146544822855       20.98533843675288       13.28061475273608
N            4.02867507530989       19.88550202496150       12.44374248368367
N            3.12109570746148       20.28092930212935       15.08990417235512
N            1.07337912930564       22.01856500545169       14.11788658134967
N            1.96024669811482       21.59533005128814       11.46339053519889
C            4.33765235492606       19.87413185380437       11.09900455765232
C            5.35536697833870       18.88174162243294       10.82347320540142
C            5.64741392681020       18.26533815636823       11.97795511479362
C            4.81751212462831       18.90879919810365       13.01818901397021
C            4.05360361777824       19.32433270120661       15.32091927208971
C            4.14844675479491       19.11348218507622       16.76107877142737
C            3.26313681247995       19.94380248158711       17.35949102141583
C            2.61744550506576       20.68400206267663       16.29251226516969
C            0.95277872348985       22.28971330104966       15.45793557413634
C           -0.06988813231912       23.29690660104269       15.66880069170467
C           -0.54282688200852       23.62164209863447       14.43882677146731
C            0.13143997577595       22.78482296489977       13.47269301172091
C            0.88555198671176       22.36160536193322       11.16791537730022
C            0.94627929501605       22.76977505520951        9.76760242598924
C            2.06244301344637       22.21653946290485        9.24597139636054
C            2.70431194832456       21.48241163217686       10.33571762687214
C            3.82446617777940       20.70426948564091       10.14060921010707
H            4.31891397373611       20.74156258194823        9.17557348460920
C            4.78703255864173       18.61835928220832       14.37160889399048
H            5.37591280464663       17.77451088200799       14.72256957746576
C            1.66341713321036       21.65508897937741       16.46019047353757
H            1.44369107240156       21.95332773514530       17.47934521123280
C           -0.06940293607525       22.78916534753876       12.08542702564342
H           -1.01480249745203       23.16503343120491       11.70023505821970
C            5.81764804721270       18.71491708778564        9.37050199817349
H            6.19645211718547       19.72232830142326        9.15437400492900
H            4.85552407127039       18.56715883182139        8.86345181820615
H            6.54411276667768       17.98538618187771        8.97396177975194
C            6.64315366044979       17.15253397932235       12.25744271457094
H            5.97609327785507       16.39453125592588       12.68534455516548
H            7.23833882853049       17.62374079054840       13.04869040498259
H            7.32798868731626       16.64673570998262       11.55082155054481
C            2.61508061164086       22.27483806772470        7.80726572957342
H            1.76496192295805       21.76621610006601        7.33548973294190
H            3.52903449850326       21.98310455159852        7.24901606338425
H            2.50174909122107       23.36193153256850        7.74485303037312
C           -0.14636654541810       23.54227521326700        9.10248317548052
H            0.21002599885470       24.47472868606413        8.63886346919320
C           -1.28560440862337       22.81737813137509        8.68560941319519
H           -1.63218723335878       21.93641508160626        9.23607084395185
H           -1.85167737904090       23.07592420807170        7.78777131634169
C           -1.60500257448137       24.63270849677906       14.03294549254016
H           -2.28552279386936       23.97936010661340       13.47469453776082
H           -1.02949173816457       25.25525862175566       13.33664093266018
H           -2.21166710456198       25.29017904421784       14.68101428498790
C           -0.48603327055461       23.83596601785299       17.00530368050462
H            0.38541499881329       24.01974505725863       17.64461641321719
C           -1.82620396602734       23.81374790645274       17.43767643830500
H           -2.65103212226062       23.67287270311879       16.73194892887617
H           -2.11873174173039       23.91471351321551       18.48869633065765
C            3.02496015476199       20.03665432021217       18.87591040231649
H            2.73004561623782       18.99588572309171       19.06783990103274
H            2.40748010092290       20.68144323046851       19.53205130589474
H            4.07890002148533       20.18330832370024       19.14350935901632
C            5.04963098773516       18.09490091880508       17.46897331552605
H            4.23086639818792       17.64641931700826       18.04432579898622
H            5.61731008711017       18.79492849388224       18.09564981063641
H            5.72878668150756       17.27827697221966       17.15591441778304
C            5.31883105700853       25.79562987172187       12.69475407865362
H            5.99221320254357       25.77403739425220       11.82702196813471
H            5.83144665985383       26.28376006625591       13.53550466615785
H            4.41648184269615       26.36326611546500       12.43230290951583
N            5.85722503424449       23.44728280843224       13.45552017846437
H            6.85641780206680       23.55019529577105       13.50648820877779
C            4.94364727368716       24.42735899218934       13.05991417627981
C            5.14550332947100       22.34139802376119       13.71588912201755
H            5.57837627096470       21.44777104346988       14.13579846012324
N            3.86666296441282       22.50725514983533       13.43977809646184
C            3.73982842377364       23.80267531697320       13.06830818779780
H            2.76693402211303       24.20361419661802       12.84384887231142
C            0.50703046974097       17.78262382474861       15.44910641290651
H           -0.04642753704333       17.76518152149412       16.39713245712750
H            1.58104745833074       17.71943259657228       15.66557482942966
H            0.20579683319517       16.91575513035336       14.84616465529528
C            0.20247685529919       19.07033984432920       14.69827731756629
H            0.50912753798881       19.93586129118100       15.29720180610465
H           -0.87527411560609       19.14852636132940       14.50055544757645
S            1.09172582502890       19.09064200207561       13.10342949935588
C           -0.34877438356229       19.49590921468297       12.05518056114690
H           -0.88113310630039       20.36345334915281       12.46330577293053
H           -1.03011827285300       18.63591934649505       12.02556223991485
H           -0.00984154396887       19.73456948039648       11.04147356688754
87
 energy: -124.633482138793 gnorm: 0.122108194485 xtb: 6.7.1 (edcfbbe)
Fe           2.55443936875057       20.96272844853459       13.28353790912983
N            4.03270423430482       19.86657987298673       12.42931213346308
N            3.12073525760155       20.28578602371760       15.07713478396651
N            1.07938247705842       22.04134310903159       14.12416095003236
N            1.98115167728942       21.61104708006745       11.47918209099842
C            4.35297955166599       19.87335107320958       11.11099352477239
C            5.36554304716524       18.87677705404777       10.80880507398955
C            5.65395071173507       18.26210858127572       11.97442890221174
C            4.81186571102510       18.90408593924138       13.00243813637422
C            4.04591202310201       19.32204807576917       15.31746668787713
C            4.15038102692067       19.09915335649012       16.73454861563540
C            3.25773704912917       19.95432343727176       17.34756109728989
C            2.62956392436884       20.68727548502192       16.28331771320673
C            0.95491206575846       22.30946899076102       15.45762132600881
C           -0.08409498364219       23.31015431631038       15.68603295022694
C           -0.57396648090096       23.61317844686048       14.45013373559468
C            0.13799979699274       22.79048599657736       13.48253446117196
C            0.89016710556987       22.35919677550921       11.17641851404070
C            0.92539294126963       22.75195283351494        9.77842154486784
C            2.08653166513655       22.20983493114350        9.26605475294434
C            2.70165798328863       21.49238037900227       10.33933209511829
C            3.82351943528974       20.71164971836497       10.14941561098395
H            4.30087363617180       20.73835792156742        9.18029866998199
C            4.78746240656231       18.62155341630207       14.36275255948924
H            5.38172691363616       17.78946226777701       14.72145675592203
C            1.66304396035479       21.66682304982330       16.46320195227283
H            1.43839887434218       21.94852065197981       17.48117533048437
C           -0.05882601046956       22.79471571426289       12.09642386993994
H           -0.99116335396847       23.19095235872739       11.70444389760275
C            5.80163599835858       18.73517777537126        9.37986912876046
H            6.20128814782700       19.71726852848570        9.12397154968536
H            4.87082525656169       18.56868749617811        8.83637084207546
H            6.52864057783003       17.98529648556165        9.04013295655115
C            6.62171022101695       17.16183305555386       12.29506639468134
H            5.99791481819173       16.37211873931835       12.70753928139945
H            7.25520004754654       17.59246596290291       13.06807974626581
H            7.27997049112297       16.70233982079184       11.53658794476091
C            2.55319195110964       22.30714564848559        7.82228583427603
H            1.75617520838150       21.78772331856889        7.29164979512433
H            3.50808213811307       21.97170034951663        7.35432576384301
H            2.48980064959851       23.38243158223322        7.68155500531212
C           -0.14879396404330       23.46548890501523        9.04435144447164
H            0.18074408265622       24.43427938566697        8.62674246741353
C           -1.23354792340340       22.84431644347428        8.69150949631356
H           -1.58630029916462       21.94806403823539        9.20897722057737
H           -1.85856539277603       23.11804456430079        7.83853174354364
C           -1.59596142449355       24.61193425426731       14.00158979163665
H           -2.31043918790808       24.00523205834013       13.44942441673164
H           -1.05558409545981       25.26797749492835       13.32009617409109
H           -2.16197760463011       25.24526821859526       14.70267998589525
C           -0.52608367483290       23.79590386310629       17.00599788479084
H            0.33744282156484       24.00826391442875       17.65398815788315
C           -1.76361930646230       23.80782675360566       17.41519892983517
H           -2.61010106602437       23.65537160692857       16.74123696113995
H           -2.08469754219196       23.94267144317154       18.45292888896923
C            3.06067454667268       20.00475001122372       18.85086620707553
H            2.74145487729674       18.99065312905642       19.10000960565930
H            2.41152132189732       20.68670111953555       19.43608632040863
H            4.08324159447738       20.16848312533939       19.19115432826048
C            5.01513316202388       18.12367354274704       17.49965841965651
H            4.25458449468067       17.62041456922064       18.09396836327281
H            5.62688489219250       18.77163476153968       18.12827010102340
H            5.68364118436121       17.33643851418991       17.09799710492502
C            5.32467545885915       25.79942482850029       12.69270713213816
H            5.99221606318481       25.78324927254915       11.83147641616273
H            5.83004501626372       26.28681756269915       13.52669618751981
H            4.42836908339224       26.36024158769775       12.43592362769818
N            5.84553939278662       23.45815353285366       13.46097652355587
H            6.84836691680177       23.55800678289602       13.51113396719977
C            4.94562581168559       24.41674291522870       13.05798708142347
C            5.14379115875570       22.33184059014474       13.71222189238866
H            5.57731700499707       21.44432956107467       14.12360288544852
N            3.86813478421384       22.49780999530514       13.45366269057041
C            3.73142169861811       23.79702736219290       13.06561636945987
H            2.76697258070657       24.20195511308093       12.83872749967321
C            0.50558449999544       17.77965463474991       15.45120657349065
H           -0.04153184974304       17.76281098121564       16.39254682378416
H            1.57151007910496       17.71812922102371       15.66265049150298
H            0.21101074220622       16.91899766781248       14.85316449782691
C            0.19557756653437       19.06426853087808       14.70623531279742
H            0.50652978084868       19.92694596043741       15.28926093064776
H           -0.87095901468401       19.14423523395918       14.49796860054557
S            1.08238725749787       19.09607401320425       13.09936499545471
C           -0.35622799682211       19.49750109791385       12.05165354906790
H           -0.87387567378515       20.36114050159401       12.45961031746427
H           -1.02280775056260       18.63778450308131       12.02434133446476
H           -0.00574162845566       19.72898276487269       11.05096039780684
87
 energy: -124.675278867301 gnorm: 0.059168378204 xtb: 6.7.1 (edcfbbe)
Fe           2.55044274085829       20.94847440337436       13.28618566323291
N            4.02727335747071       19.85444009842141       12.42339946992712
N            3.12156369318160       20.28861261788055       15.06875821973213
N            1.09518406169198       22.05989885346654       14.12693971381103
N            2.00063773636131       21.62726593729321       11.49526043785654
C            4.36133705186112       19.87740496627189       11.11608158633998
C            5.37064290230465       18.87987883620630       10.80878712806396
C            5.65290115120821       18.26260713478173       11.97950446462218
C            4.80421731311786       18.89881495012027       12.99668195591693
C            4.04145686015567       19.31702597098547       15.31199678828931
C            4.14622288426737       19.09135296978396       16.72442518340998
C            3.26100744257577       19.95573975104140       17.33671435202864
C            2.63919383745554       20.69564665561740       16.27684558892920
C            0.96749992658519       22.32318413897029       15.45568039260936
C           -0.08432610711416       23.30812583163801       15.67929637846710
C           -0.58977123959089       23.60002588989671       14.44698656159213
C            0.14777541101824       22.79371882395581       13.48645058825072
C            0.90098239060653       22.36239238481977       11.18776976405397
C            0.92892132244105       22.73884877732536        9.79224211542800
C            2.09116680613402       22.20902911906079        9.27650802876877
C            2.71071061056288       21.50355114371930       10.34769836137472
C            3.82861798293695       20.71823516868670       10.15893353187358
H            4.28350533633574       20.73252842613768        9.18092025693083
C            4.78560306188562       18.62211906805513       14.35542495357118
H            5.39534670038602       17.80633275554588       14.72009372742771
C            1.67090203238811       21.67890434643819       16.46192388017752
H            1.43250785228946       21.94212620483378       17.48223452012153
C           -0.04445657282261       22.80551921978649       12.10555864733544
H           -0.96022270312595       23.23227872315537       11.70879305515869
C            5.79639277593859       18.74765369463189        9.38643289362446
H            6.21268681681944       19.71309708766872        9.08595303420360
H            4.88946050741035       18.56881635390212        8.80266060699585
H            6.52514205494186       17.97198634939003        9.11930855955744
C            6.60600533188426       17.16888598808414       12.32511163745562
H            6.02164058775741       16.34530371613119       12.73756641809154
H            7.27429855923671       17.55702873211667       13.09641267827058
H            7.23187981827187       16.76134466199580       11.51279073903980
C            2.50691584603472       22.33272102222731        7.83613255379544
H            1.74217061149318       21.81831851349842        7.24525408184714
H            3.49279314846895       21.95812355895560        7.46539653943084
H            2.46788679584203       23.40455708101577        7.61279343910139
C           -0.10106497686452       23.43724454097349        9.00915850886891
H            0.19375803313690       24.40365384059062        8.59012117888823
C           -1.26714968171187       22.85529936668360        8.69839416637653
H           -1.55767362327401       21.91779010625551        9.17197588846634
H           -1.91419233406996       23.17636788825924        7.88564055594378
C           -1.59495220603083       24.59337020465021       13.97776271017455
H           -2.34571002761560       24.03458161199392       13.41531079996833
H           -1.08602693718472       25.27992817274126       13.29789345751199
H           -2.11412601089102       25.19829894748399       14.73674995113873
C           -0.50630208668452       23.75682947331737       17.00179252000110
H            0.32600761728165       23.98377525756255       17.67227669302508
C           -1.77194532900951       23.82261474044307       17.41236034007905
H           -2.60237190063436       23.62258417669261       16.74322198289614
H           -2.07195836011099       23.99203685507292       18.44148249170392
C            3.08681121968370       19.98316380937931       18.82796064968239
H            2.75618645552334       18.98363084961859       19.13307064289258
H            2.40656158402975       20.70337931295144       19.32746139986029
H            4.08935711498530       20.14819799966026       19.24244092906039
C            4.98987345945254       18.14246211766347       17.51856938640778
H            4.28270064238707       17.59345003488881       18.15169788173007
H            5.63429555194172       18.74624421981427       18.16552522164593
H            5.64068395155995       17.39111923195050       17.02635642052133
C            5.32617845538226       25.79793924741354       12.69196232530469
H            5.99497671696711       25.79206640698055       11.83315585385077
H            5.82991185639219       26.29009547366467       13.52214967651353
H            4.43452738183353       26.36097913381376       12.43731274027233
N            5.83671307569016       23.46221501554467       13.46844557753284
H            6.83844515540105       23.56570983538635       13.52145563327261
C            4.94070070773795       24.41067057396303       13.05611541558875
C            5.14171294374121       22.32606475020134       13.71033723655464
H            5.57919913505250       21.43486333301235       14.10722017843761
N            3.86628627224672       22.49173055900891       13.46134888940950
C            3.72421631603177       23.79001431746935       13.06432796591130
H            2.76238330207637       24.19526179307860       12.83087839216257
C            0.50409915992652       17.77470738002280       15.45360283331392
H           -0.03899561780284       17.75720325049230       16.39507556418412
H            1.56856418509807       17.71605446454209       15.66124774714841
H            0.21467160419585       16.91333983463890       14.85848738644957
C            0.18896889446361       19.05563467482532       14.70894925688495
H            0.50264869083534       19.91949790179923       15.28435635268990
H           -0.87386660531054       19.13565178561880       14.49445404259344
S            1.07553247180141       19.09784081284949       13.09822756801210
C           -0.35958906643658       19.49751202703511       12.04819382625460
H           -0.86956645376819       20.36391019915221       12.45473252909528
H           -1.01948671271486       18.63497354737975       12.02154364242036
H            0.00288927773367       19.72312099657255       11.05228709258463
87
 energy: -124.692630781390 gnorm: 0.059091969620 xtb: 6.7.1 (edcfbbe)
Fe           2.54805234317718       20.94682991272355       13.28686866443409
N            4.01332694903456       19.84974741957480       12.42184534992363
N            3.12014058855453       20.28766392558756       15.06431243585700
N            1.11300226199710       22.07361911922326       14.13067457010404
N            2.01582444309348       21.64780254198156       11.50328511643364
C            4.36053853642748       19.88361795781413       11.11945966038754
C            5.37192103849813       18.88867685071425       10.81559399715645
C            5.64515588142203       18.26601584987289       11.99052914740691
C            4.78951893104767       18.89666989884428       12.99546634920754
C            4.03647444237365       19.30887678093332       15.30979545854353
C            4.14183104664798       19.08386723825930       16.72340568428172
C            3.26686914742061       19.95539067766945       17.33108134485862
C            2.64632811516484       20.70341554812268       16.27418491318639
C            0.98134868312951       22.33606774352395       15.45577471316885
C           -0.08836522548032       23.30297439982391       15.67358175056100
C           -0.60295197158814       23.58349887464874       14.44069708627337
C            0.16068952710879       22.79629710103880       13.49030568716061
C            0.90755849186652       22.37178178450796       11.19650248605216
C            0.91289492268266       22.72995381712635        9.80008116255052
C            2.07950842441228       22.22333500558933        9.27766553579128
C            2.71866518225348       21.52190793933902       10.34883974706372
C            3.83079011639697       20.72655161201168       10.16483043745607
H            4.26732583323309       20.72542609755500        9.17940286949285
C            4.78098615114355       18.62256641518255       14.35134209236158
H            5.41378589678032       17.82585301598956       14.71772044541103
C            1.68100985891985       21.69062825552654       16.46182735250782
H            1.43052517599017       21.93847860331565       17.48353038474210
C           -0.02733809929053       22.82501057920947       12.11495539829631
H           -0.92216590589213       23.29095363351338       11.71634112692241
C            5.80681477284212       18.74500963811628        9.39916460171644
H            6.23789598203385       19.69342255986704        9.05980656485599