87
 energy: -124.720039766423 gnorm: 0.000062484329 xtb: 6.7.1 (edcfbbe)
Fe           2.53966845644146       20.92383754715679       13.19727054547708
N            3.95544368975686       19.79548629360935       12.35114292156294
N            3.09634197634350       20.26253085838671       15.00489688844178
N            1.14472517247550       22.08507545724135       14.05830419559046
N            2.01031026833065       21.62268450486916       11.39521955990915
C            4.25974831882732       19.72418378396384       11.02940651291539
C            5.33914079357763       18.78693218289153       10.80260484884147
C            5.67573578681189       18.29167618614666       12.02223664664712
C            4.80239647125136       18.93963915391496       12.97709509121236
C            4.07206062273978       19.35747034689398       15.27959372100944
C            4.18196004443627       19.14055747194186       16.70534939764543
C            3.24994583134889       19.94326131242939       17.28578791281664
C            2.58453021804425       20.63784093895488       16.20631090931323
C            0.90970871851711       22.23229985068020       15.38645849381096
C           -0.14716985315541       23.19783882086673       15.61666233706825
C           -0.51620664643361       23.65527753317012       14.37898113407907
C            0.30443187917257       22.95213086514602       13.42730612958739
C            1.00487740722136       22.49364485869681       11.11797171634133
C            0.91547861123592       22.73087568522955        9.69051945735312
C            1.93181369295410       22.00810015909404        9.12636646742703
C            2.58581959972843       21.31395618677310       10.20424888899651
C            3.63950787113403       20.43490094088998       10.02340409087602
H            3.99406277181192       20.28737174360373        9.01477288482692
C            4.86391738004672       18.72242242030770       14.34065081381486
H            5.59259358229235       18.01250960575712       14.70156320759983
C            1.56412370784095       21.55004740756064       16.39582463004283
H            1.25910034034344       21.74709766530696       17.41205082472966
C            0.22747498650696       23.14219171334241       12.05792650340530
H           -0.48316628700855       23.86730959953245       11.69353137580526
C            5.91260428274916       18.47308161385752        9.46352135674591
H            6.31009089431358       19.37400431066576        8.99531738748581
H            5.14594260681624       18.06120353424079        8.80709146966142
H            6.71757754159633       17.74698540322948        9.54729617493753
C            6.71769195622093       17.28826331735646       12.38145455914006
H            6.26557866763519       16.43011394137447       12.87884379279945
H            7.45426402974085       17.72193974579767       13.05888764753229
H            7.23648834624977       16.93494740380978       11.49374779056108
C            2.28780439860996       21.88183476736205        7.68559416092890
H            2.12429790622022       20.86112256718050        7.33790723818465
H            3.33816186208013       22.12723224286233        7.52680197864147
H            1.67815557318057       22.54856455633166        7.08072630551422
C           -0.05823763949383       23.55072941475455        8.99919576960961
H            0.32584830382409       24.11422512802543        8.15533025156681
C           -1.35286577597454       23.62437700672272        9.28698079516774
H           -1.79736408415237       23.04420752387657       10.07803757552555
H           -2.02112129447050       24.25271331321568        8.72169470245519
C           -1.50856900663253       24.71225074053831       14.04013919766152
H           -2.46094675398735       24.27211511957378       13.73888614224786
H           -1.14982460899029       25.32994559214878       13.21806943796222
H           -1.68399646464945       25.34947307235526       14.90462310614052
C           -0.64425781539958       23.58232274043291       16.91879535994428
H            0.08446416457033       23.56846356139587       17.72114996817949
C           -1.89668880807700       23.93198774018272       17.19424340689316
H           -2.67319789118866       23.91846783629154       16.44946517720665
H           -2.19500047313218       24.22081252372729       18.18848426887756
C            2.92170744259039       20.11936570818678       18.72853219120632
H            1.88143824164134       19.85461313411842       18.91983512249514
H            3.06726188592697       21.15661177279515       19.03163423296933
H            3.55449919472903       19.48958584739531       19.34919689851024
C            5.14760869986656       18.19961345169195       17.34065137029845
H            5.03727495128836       18.20446160180392       18.42224168858871
H            6.17372354206224       18.47913962390193       17.09956711613962
H            4.98254261198288       17.18260352790119       16.98382307362862
C            5.13765099491941       25.86146196680749       13.16145651332701
H            5.97303342396905       25.99450620148747       12.47408986006579
H            5.41282915150391       26.29923237197646       14.12102626902352
H            4.27661299996855       26.39426212480594       12.77032166727960
N            5.70549816235921       23.50221428399803       13.78153545899263
H            6.65351431121868       23.69571454851362       14.05981417412645
C            4.80416675393305       24.42272261887727       13.31422481128225
C            5.09026058018790       22.29863599233247       13.79884838493164
H            5.55631838708438       21.38990817999494       14.11911119179099
N            3.85564923963182       22.40118520570848       13.37163977068206
C            3.66266183832196       23.71583472867612       13.06613733689831
H            2.72300951944577       24.06421816099657       12.69090813406400
C            1.01817034203260       17.51460078283118       15.19664180623365
H            0.59023118733365       17.28547870519903       16.17061613786748
H            2.06234728469992       17.78159116025438       15.32963295288151
H            0.96619939351203       16.62674697030080       14.57090845558534
C            0.26039529649034       18.65920644720853       14.55257889483819
H            0.29175709515685       19.55332871890032       15.17281663208256
H           -0.77497974999284       18.37670974097547       14.36209127151318
S            1.00373430002350       19.07531876300703       12.92185344465585
C           -0.49203531834691       19.74744885911796       12.13411641665445
H           -0.85865422215488       20.59437856849941       12.70531481126318
H           -1.24193758451578       18.96309926826622       12.07181416498231
H           -0.20976528711481       20.07066515180931       11.13827661647975
