78
 energy: -115.965708563287 gnorm: 0.288829692049 xtb: 6.7.1 (edcfbbe)
Fe          57.87200000000000       21.35300000000000       38.33900000000000
N           59.24600000000000       21.71900000000000       36.88700000000000
N           58.61899999999999       19.49100000000000       38.57100000000000
N           56.58800000000000       21.06600000000000       39.87800000000000
N           57.11899999999999       23.22000000000000       38.08600000000000
C           59.37100000000000       22.85900000000000       36.12299999999999
C           60.49800000000000       22.73600000000000       35.23200000000000
C           61.04600000000000       21.51900000000000       35.44799999999999
C           60.25800000000000       20.87500000000000       36.48000000000000
C           59.70099999999999       18.93800000000000       37.92299999999999
C           59.90400000000000       17.58400000000000       38.37600000000000
C           58.98299999999999       17.34300000000000       39.33200000000000
C           58.20900000000000       18.55300000000000       39.49199999999999
C           56.48000000000000       19.92200000000000       40.64000000000000
C           55.56000000000000       20.14600000000000       41.72900000000000
C           55.13200000000000       21.42600000000000       41.64100000000000
C           55.76200000000000       22.00300000000000       40.46800000000000
C           56.17100000000000       23.85600000000000       38.86299999999999
C           55.82999999999999       25.12500000000000       38.26300000000000
C           56.66700000000000       25.30200000000000       37.22200000000000
C           57.52100000000000       24.14300000000000       37.14800000000000
C           58.56500000000000       23.98300000000000       36.23900000000000
H           58.76600000000000       24.81200000000000       35.56100000000000
C           60.46800000000000       19.58400000000000       36.95900000000000
H           61.30900000000000       19.03000000000000       36.54100000000000
C           57.22000000000000       18.75500000000000       40.45400000000000
H           57.00500000000000       17.92200000000000       41.12400000000000
C           55.55800000000000       23.30000000000000       39.98800000000000
H           54.86099999999999       23.93100000000000       40.53899999999999
C           62.28599999999999       20.94800000000000       34.75200000000000
H           63.16800000000000       21.05700000000000       35.41799999999999
H           62.47599999999999       21.50300000000000       33.80900000000000
H           62.13099999999999       19.87000000000000       34.53400000000000
C           61.05099999999999       23.79700000000000       34.28700000000000
H           60.70799999999999       24.80100000000000       34.61600000000000
H           60.68300000000000       23.61000000000000       33.25600000000000
H           62.16199999999999       23.77199999999999       34.30399999999999
C           60.98499999999999       16.61000000000000       37.89299999999999
H           61.89299999999999       16.72100000000000       38.52300000000000
H           61.24900000000000       16.83600000000000       36.83800000000000
H           60.61399999999999       15.56600000000000       37.97700000000000
C           58.87500000000000       16.14200000000000       40.03600000000000
H           59.73499999999999       15.79300000000000       40.62600000000000
C           57.69599999999999       15.30900000000000       40.04600000000000
H           56.80099999999999       15.60100000000000       39.47599999999999
H           57.67899999999999       14.37300000000000       40.62400000000000
C           55.19300000000000       19.11300000000000       42.78800000000000
H           56.05199999999999       18.42700000000000       42.95100000000000
H           54.31800000000000       18.52000000000000       42.44600000000000
H           54.95399999999999       19.62500000000000       43.74500000000000
C           54.19300000000000       21.94200000000000       42.54000000000000
H           53.42800000000000       21.25100000000000       42.91999999999999
C           54.10500000000000       23.29100000000000       43.03700000000000
H           54.82800000000000       24.05399999999999       42.71300000000000
H           53.31400000000000       23.57400000000000       43.74700000000000
C           54.70800000000000       26.10000000000000       38.65300000000000
H           55.08900000000000       26.82200000000000       39.40600000000000
H           53.85699999999999       25.53700000000000       39.09200000000000
H           54.36900000000000       26.66100000000000       37.75600000000000
C           56.75000000000000       26.40400000000000       36.23299999999999
H           56.09500000000000       27.24200000000000       36.55500000000000
H           56.40999999999999       26.04300000000000       35.23900000000000
H           57.79700000000000       26.77000000000000       36.16600000000000
O           59.98800000000000       21.89200000000000       39.86000000000000
H           60.65799999999999       22.23500000000000       39.26800000000000
H           60.06900000000000       21.78100000000000       40.73800000000000
C           52.97500000000000       20.35000000000000       35.15500000000000
H           52.38900000000000       19.42200000000000       35.32700000000000
H           53.03400000000000       20.54200000000000       34.06200000000000
H           52.46500000000000       21.19700000000000       35.66200000000000
N           55.31100000000000       19.20300000000000       35.33300000000000
H           55.14200000000000       18.47900000000000       34.66399999999999
C           54.40699999999999       20.17500000000000       35.73600000000000
C           56.44299999999999       19.44000000000000       36.02300000000000
H           57.33700000000000       18.82400000000000       35.92200000000000
N           56.32800000000000       20.46400000000000       36.79599999999999
C           55.03800000000000       20.99900000000000       36.68699999999999
H           54.70600000000000       21.85700000000000       37.25500000000000
78
 energy: -116.023542945745 gnorm: 0.107533262853 xtb: 6.7.1 (edcfbbe)
Fe          57.88868117046508       21.35450679759938       38.34672752967207
N           59.24879153389508       21.71386693531129       36.87967609099315
N           58.63347233418165       19.49688608517847       38.58205901732089
N           56.60144989345276       21.07228389373842       39.88923364626713
N           57.14611251262537       23.22889552640930       38.11339756172498
C           59.37563353840736       22.85567209727208       36.13146907648562
C           60.50642958460172       22.74173588830680       35.23795082947425
C           61.05240035995754       21.51426606845510       35.44948669677057
C           60.25369308263986       20.87307857810997       36.47432660450213
C           59.69457917446881       18.94051570032654       37.91576230458529
C           59.91438083213641       17.58976306601231       38.37502939596374
C           58.97211076949402       17.34115902952136       39.33135154981381
C           58.19441408080591       18.55597795135380       39.47433079314889
C           56.49175868565237       19.92853338479940       40.64020637792864
C           55.56476373225490       20.13671203439507       41.72445820680282
C           55.13080947240780       21.43515945811493       41.63958269766834
C           55.77902242709754       22.00573135097846       40.46899391331200
C           56.15595765092035       23.83924608749722       38.84775441842111
C           55.82581395946920       25.12443759638951       38.26369118598173
C           56.67179784091859       25.29717703387753       37.21663268846553
C           57.51387401656690       24.12586916731615       37.14578010729953
C           58.55683312524243       23.96951654730613       36.24168612997075
H           58.75856036591762       24.79850311625937       35.57060269889730
C           60.46057611816924       19.58664370804624       36.95381490404807
H           61.30129090549725       19.03718970345734       36.54341811184555
C           57.21470525740592       18.75703361368049       40.43672543002915
H           57.01102133756937       17.92820838945934       41.10875262807292
C           55.55812112209794       23.28898931902051       39.97691793465194
H           54.86344525529275       23.91690585724563       40.52521272278852
C           62.27283045844583       20.94785197779969       34.76361262815517
H           63.15394236602561       21.05077387336365       35.40956752127273
H           62.46769164296340       21.48705579317105       33.83033632364330
H           62.13390690519829       19.88615350078819       34.53572446949729
C           61.03974409674446       23.79295825527392       34.29789511305916
H           60.71302468115621       24.79000122281837       34.60801265050150
H           60.68896807728139       23.61482110381164       33.27363351273060
H           62.13588129445595       23.77374069936191       34.30108532868203
C           60.97491515074342       16.62549536954550       37.89545004255303
H           61.87831625190177       16.72125614435878       38.51138293839840
H           61.24480969564198       16.82903412107043       36.85427203238108
H           60.61713146922783       15.59212726101134       37.97497215711042
C           58.83419319248767       16.11206415575423       40.05295632512095
H           59.70549742758210       15.76925026032955       40.61484576760668
C           57.72293957388298       15.33358131911654       40.05751029010865
H           56.83861417477469       15.60771772074292       39.49022126629192
H           57.69239594309977       14.40115864157823       40.61079665570379
C           55.20072247772100       19.12045512523941       42.77637109974042
H           56.03663504487457       18.43547709438171       42.95146501597198
H           54.33365169077339       18.53020781885161       42.45292683926139
H           54.95729920706002       19.61462700973948       43.72378173844074
C           54.17666298852096       21.98787615793651       42.54664334035581
H           53.43924560285462       21.28196837296230       42.93269330725947
C           54.10291563734027       23.26298945839183       43.01540656826180
H           54.81860366569067       24.02209531733201       42.71983685281426
H           53.33467655950191       23.55292685065372       43.72458306889492
C           54.72222941221021       26.08283896123582       38.66034281529645
H           55.08353185271515       26.80764529690448       39.40032585676873
H           53.87041693991092       25.54440944878263       39.08742534428401
H           54.37775067036902       26.64052542355524       37.78112828651678
C           56.74870550515434       26.40985583366563       36.23461377008256
H           56.10669176469791       27.24100745576033       36.54316596359747
H           56.42089134140220       26.05861722744690       35.24800731809898
H           57.77917719759105       26.77416684480559       36.15790806803159
O           59.94471564438724       21.90024983258054       39.82080168960925
H           60.64977626424061       22.22895703131113       39.26604719451205
H           60.06196231589546       21.77578873038035       40.74617920574808
C           52.99737697400000       20.34051454156514       35.16359986829410
H           52.40360448349661       19.43310334025243       35.32550645988088
H           53.03855646896228       20.53725686311137       34.08536579978157
H           52.48947579024642       21.17645387022358       35.65345133386564
N           55.29601714463966       19.22659334377225       35.34286666155058
H           55.12685304768225       18.49612392217272       34.67072607683377
C           54.39629721595269       20.19386486294882       35.73621807228299
C           56.44064945246886       19.45333397960391       36.03212151768308
H           57.32369706725432       18.83942764280323       35.92718686296816
N           56.33168093752041       20.47790358386197       36.82193454190023
C           55.04941712236297       20.97659353314865       36.66722160168221
H           54.71580997127673       21.82763981928473       37.23284158400680
78
 energy: -116.036982460716 gnorm: 0.040938076455 xtb: 6.7.1 (edcfbbe)
Fe          57.90589516198752       21.35658210715668       38.35350924839283
N           59.24953154371878       21.70619930526734       36.87466110775182
N           58.63846761641229       19.50079666109378       38.58079976141077
N           56.62892237611679       21.08128794781940       39.90529768794052
N           57.16049522334813       23.22816628300654       38.12686408375089
C           59.37945809991338       22.84905418670304       36.14175778204967
C           60.51284206226610       22.74468373694951       35.24798920737235
C           61.05419723110793       21.50983830698026       35.45220337799176
C           60.24796625739064       20.86979042707205       36.46962763023698
C           59.69131544357940       18.94608243443039       37.91413364848570
C           59.91885078382147       17.59652672372199       38.37291041928997
C           58.96877120692786       17.34600692850698       39.32645993241528
C           58.18850928024359       18.56137607547590       39.45797901633097
C           56.50969326687036       19.93712459384379       40.64145290828338
C           55.57479384186515       20.13167117764668       41.71907997007928
C           55.13648299719177       21.43372703166796       41.63371395249045
C           55.80008571012574       22.00445905113637       40.47154184560244
C           56.15577828050316       23.82447258132972       38.83931727489168
C           55.82299571336225       25.11327685676810       38.25818382462547
C           56.67416744317217       25.28545270239788       37.20905986894257
C           57.51296342106697       24.10982858610040       37.14976086030236
C           58.55330072038809       23.95556576643839       36.24823429451963
H           58.74709673901982       24.78004787483916       35.57559926690227
C           60.45605269849875       19.58819250181299       36.95091060997957
H           61.29354434486723       19.04019493298473       36.54209780267256
C           57.21414919763442       18.75980073504002       40.42054119235976
H           57.01084285834505       17.92898613687672       41.08381463837976
C           55.56361376086332       23.27752149877520       39.96833625074847
H           54.85140389768215       23.89416536028129       40.49964581076809
C           62.25943648512121       20.94338000962610       34.77588327503166
H           63.14012977298238       21.04119122903733       35.41252808256507
H           62.45501878010757       21.47527159602677       33.84777624278610
H           62.12607821006141       19.89001021145300       34.54347839630291
C           61.02799646156004       23.79043210138223       34.31172489507639
H           60.70620562979646       24.78326015763049       34.61058724417590
H           60.68134867583109       23.61206188094127       33.29306624661282
H           62.11672948406471       23.77564163804007       34.30154031905401
C           60.96619069152330       16.64273104018758       37.89712208896537
H           61.86841118994442       16.73108785483702       38.50474481346532
H           61.23666561221184       16.83290951791481       36.86187947202206
H           60.60995412528624       15.61726899260556       37.97771740510266
C           58.81098243198373       16.09817468050514       40.05928450064384
H           59.69192568424516       15.76599798687882       40.60383868466375
C           57.73594987109600       15.35033752429973       40.06134379458222
H           56.85013132981101       15.62305364325149       39.51158344049907
H           57.69002525664204       14.42257719084800       40.60743998928540
C           55.20877906765020       19.12640012102311       42.76226896595973
H           56.03191171668153       18.44127274156056       42.94689295429513
H           54.34510105477489       18.53865251499058       42.44708284790665
H           54.96030833044309       19.61657662430296       43.70100261716185
C           54.17352087310855       22.01369223326690       42.54674655390410
H           53.44735158248400       21.29847423626881       42.92469376624027
C           54.11297982979447       23.24785413265191       42.99914748709462
H           54.81719773984987       24.00976721194921       42.71393983815867
H           53.35098321319695       23.54799548041979       43.69985982744239
C           54.73624787854052       26.05705706668735       38.66980139365139
H           55.09295026007779       26.77987771811684       39.40441379648689
H           53.88754962658296       25.52910131790978       39.09518616734935
H           54.38597816611856       26.61582890906900       37.80258117753985
C           56.74948153338386       26.41247794337729       36.23652422247797
H           56.11250606482754       27.23734599738321       36.54073617816366
H           56.43140327347550       26.07282925975358       35.25035407493033
H           57.76986051921826       26.78111206407643       36.15508964519570
O           59.84544920799019       21.95967024033249       39.78341732237167
H           60.62517907245443       22.19822428938203       39.26366115121039
H           60.03277614573015       21.74742152877420       40.70668452137338
C           53.02394213969356       20.33738958650996       35.17636350845657
H           52.43749361566206       19.43337620194803       35.33476730062232
H           53.05942235798437       20.53092725592207       34.10444297048254
H           52.51166778660182       21.16566659782264       35.65557699840234
N           55.29253831640617       19.25098580388112       35.35560260020561
H           55.12359405369254       18.51861338975814       34.68244240433651
C           54.39523217870703       20.21456295227000       35.74385819462372
C           56.44064641459502       19.46563001394139       36.04573302779331
H           57.31516106932021       18.85416868030415       35.93665249363936
N           56.33413851629768       20.49430909729212       36.84358031401904
C           55.06109862738082       20.96909400782939       36.66610527830243
H           54.72318289671638       21.81837901363652       37.22376823440023
78
 energy: -116.039722889874 gnorm: 0.066030349948 xtb: 6.7.1 (edcfbbe)
Fe          57.91845374222513       21.35905269923986       38.35809810486057
N           59.24922525441189       21.70029690330865       36.87464350886570
N           58.64675815115659       19.50824154927508       38.58195059738347
N           56.65557531680144       21.08634527562003       39.91455130789705
N           57.17465776276016       23.22438499093573       38.13244038779575
C           59.38084160571550       22.84296239125441       36.14716075665361
C           60.51526931229825       22.74371791524819       35.25642681267659
C           61.05347029732346       21.50707030548947       35.45539098612270
C           60.24516011087240       20.86627434242694       36.46736186097267
C           59.69254209684986       18.95024781437116       37.91179666977954
C           59.92022884305304       17.60216816220881       38.37001374930562
C           58.97224370246532       17.35277536084678       39.32328400847974
C           58.19085731168261       18.56574161021766       39.44984550720870
C           56.52746402503011       19.94118352589680       40.64221753726674
C           55.58618523165787       20.12999158365481       41.71352224126883
C           55.14392597370414       21.42835494410780       41.62437022913809
C           55.81700116470895       22.00167846819782       40.47137633375154
C           56.16073707924406       23.81124500432137       38.83303212132761
C           55.82469395988007       25.09792812160318       38.25195121561139
C           56.67547287850757       25.27459943201073       37.20330402634735
C           57.51526584372203       24.09953631087230       37.14919823301462
C           58.55161240274017       23.94556439274266       36.24700043884727
H           58.73794093129699       24.76602475466923       35.56998494742657
C           60.45531180410047       19.58603869209865       36.94543225635719
H           61.29020107795428       19.03750873084015       36.53490379359113
C           57.21731809399984       18.75941254937474       40.41098617033249
H           57.00514911878795       17.92194395986178       41.06060310126657
C           55.56465571104182       23.26592125162955       39.95800954560141
H           54.82991728307357       23.87040411647374       40.47138921101228
C           62.25290806313670       20.93385963159040       34.78313756105397
H           63.13352666527365       21.02618992003861       35.41998873068609
H           62.45017761201569       21.46361432051383       33.85531307262740
H           62.11423193945885       19.88159652410323       34.55116142975606
C           61.01812699394527       23.79104486336445       34.32062245473229
H           60.69331166087784       24.78236027158900       34.61914572009950
H           60.66528536679497       23.60911397231975       33.30529284334092
H           62.10611948688698       23.78183168825356       34.30119799571739
C           60.96487595985004       16.65290703727451       37.89415637944366
H           61.86877705223843       16.74298522417109       38.49798310129572
H           61.23144299659594       16.83847809637587       36.85769215746100
H           60.60591633959693       15.62995809791665       37.98029602125592
C           58.81223759956252       16.10313811798898       40.06266193676451
H           59.69826229104822       15.76647267805365       40.59386794080322
C           57.71851211323123       15.36170009316082       40.07586213203185
H           56.83499725318271       15.64048731685272       39.52761773211448
H           57.67044920057439       14.42759697127980       40.61039010572374
C           55.21510604784461       19.12600900202974       42.75110924675901
H           56.03507083146314       18.43970314759202       42.94277751750770
H           54.35245818243282       18.53976683782565       42.43266188636171
H           54.96067086322682       19.61930302184973       43.68566242909581
C           54.17307243519843       22.01570484256319       42.53110351825673
H           53.44863462453091       21.30120640813039       42.90972136647456
C           54.12034755421621       23.26074615245372       42.98044014769427
H           54.83611426743934       24.01483802392103       42.70585369432978
H           53.36365181281423       23.56576971134457       43.68419174931708
C           54.74383113921182       26.03216558034738       38.68308456967361
H           55.10791159758438       26.74706518759427       39.42105858993752
H           53.90081711600271       25.49968181766732       39.11254233162537
H           54.38454226625517       26.59741781125157       37.82491637592440
C           56.75120987470726       26.41096034677770       36.23883236924448
H           56.11217911413330       27.23228682622092       36.54669910742927
H           56.43910764155369       26.08245459595087       35.24728964200717
H           57.76924202904684       26.78584281431389       36.16067764918652
O           59.71098506681192       22.08145716428893       39.75466025011782
H           60.57272648829120       22.13980346211340       39.23620303981163
H           59.97465224384593       21.69156324183824       40.64596746382997
C           53.04405186770942       20.33899759321385       35.18919681957063
H           52.47016737942693       19.42783205105098       35.35004022695892
H           53.08149606364677       20.52669310228848       34.11685776099883
H           52.52237019937669       21.16369680543213       35.66256367880723
N           55.30702417006255       19.27123581418411       35.37226663111014
H           55.13719305553094       18.54045402182430       34.69843474496976
C           54.41006142352079       20.23374518295862       35.75844621332654
C           56.45225726128760       19.48002618317543       36.06592742514559
H           57.32419633171250       18.86875819135491       35.95641483955451
N           56.34328841643331       20.50844865096938       36.86749127987245
C           55.07663545165645       20.98424636719199       36.68204515518445
H           54.73263250168925       21.83317005663673       37.23422930484565
78
 energy: -116.042740054316 gnorm: 0.042307073480 xtb: 6.7.1 (edcfbbe)
Fe          57.92574211345627       21.35988470787504       38.35814722635335
N           59.24674960641725       21.69256870368253       36.87570390092423
N           58.65443963002772       19.51746793413468       38.58209480547206
N           56.68569895054218       21.09174624636127       39.92329873825962
N           57.18888478648693       23.21798853770234       38.13630691701487
C           59.38210429096429       22.83546236118687       36.15453964085886
C           60.51734824739224       22.74181622738954       35.26765646841199
C           61.05113879431046       21.50372637127988       35.45961853235720
C           60.24098927745083       20.86159682312234       36.46513742323182
C           59.69284952081646       18.95461807262230       37.90832821508442
C           59.91862017675982       17.60807192481087       38.36505395976311
C           58.97367626390476       17.35996704982360       39.31660789458229
C           58.19214558393660       18.56999284399729       39.43942542491748
C           56.54806322394726       19.94572215538136       40.64252513506723
C           55.59989348967582       20.12872170049529       41.70660434821132
C           55.15418201350191       21.42118753076684       41.61351322997404
C           55.83735159658916       21.99870859153124       40.47180476771783
C           56.16926485682988       23.79601171408076       38.82725763742933
C           55.82914945569342       25.07959447187763       38.24568056449449
C           56.67841500596768       25.26219418020857       37.19827634029246
C           57.51934700324549       24.08802414335521       37.14974738481448
C           58.55067974456993       23.93430947467299       36.24615483028170
H           58.72862995969182       24.75048547216031       35.56428557339061
C           60.45395409314584       19.58206922968947       36.93802826822801
H           61.28525014540946       19.03228316979549       36.52438029337820
C           57.21934884221487       18.75803845385468       40.39930052686467
H           56.99572263782400       17.91198366372080       41.03190925124982
C           55.56655832419816       23.25281788407429       39.94695833301073
H           54.80633416910574       23.84280532266658       40.44041013865111
C           62.24528013940047       20.92171527859562       34.79059318122513
H           63.12637546966344       21.00717499937262       35.42893184356823
H           62.44472456607043       21.45028255902532       33.86232910948924
H           62.09841660414483       19.86944721629616       34.55929263095986
C           61.00733759489476       23.79181347016930       34.33173096123969
H           60.67847206653432       24.78229199836255       34.63162497811582
H           60.64525437579150       23.60546515119001       33.31964473200303
H           62.09566684869818       23.78863571985142       34.30143390611661
C           60.96180326618565       16.66278654264894       37.88839165880412
H           61.86854482444422       16.75544479564002       38.48839730724772
H           61.22328778993334       16.84447780957472       36.84922003827273
H           60.59865231499114       15.64175324591960       37.98117831595204
C           58.81508116172654       16.11075938928385       40.06210334110993
H           59.70495258654685       15.76539674682412       40.57847797999578
C           57.69408303625170       15.37195539325055       40.08833305720512
H           56.81245471170133       15.66307138747102       39.54409205220882
H           57.64528945808772       14.43281155516384       40.61490668175652
C           55.22215298103869       19.12435212319174       42.73796950429830
H           56.03960626112001       18.43567743223627       42.93686050447553
H           54.35944484702550       18.54020703367953       42.41442174291279
H           54.96148054664275       19.62238965475944       43.66887448617460
C           54.17613237721140       22.01341507612056       42.51273549533428
H           53.44981687942866       21.30360277861029       42.89193682436116
C           54.13301215860177       23.27729928772647       42.96262707977333
H           54.86097676805421       24.02197237822046       42.69384422391764
H           53.37778640677148       23.58648891683683       43.66693166632557
C           54.75432867639180       26.00452659105998       38.70055192256074
H           55.12946617128165       26.70915539809746       39.44407825496138
H           53.91761534097523       25.46510236218319       39.13589903657074
H           54.38420549058053       26.57910774891657       37.85286431760822
C           56.75558173737873       26.40923338543546       36.24373442069045
H           56.11286053577314       27.22695938810117       36.55778075199245
H           56.44961177887411       26.09451036905408       35.24463427141378
H           57.77243697475630       26.79185019963791       36.17095179350036
O           59.66020685538900       21.97711903555819       39.69459771272755
H           60.45476942777424       22.18984246333480       39.22495954530625
H           59.88165140668331       21.75096227917109       40.59378061469147
C           53.06455045442013       20.34484235253521       35.20334947905805