78
 energy: -116.057026650632 gnorm: 0.000077527712 xtb: 6.7.1 (edcfbbe)
Fe          57.89811580217634       21.38422491129787       38.37039326199901
N           59.25204275112737       21.72660009545748       36.92209432383888
N           58.65868305695185       19.53739148736264       38.62650045335813
N           56.64279774097255       21.08007953283808       39.88127681891886
N           57.15496794655264       23.20870504443175       38.10094848711789
C           59.35430899527827       22.84052976818764       36.14887760014595
C           60.45612806340704       22.71905110394431       35.22172617585560
C           61.01786693136287       21.50077947745536       35.45001574344325
C           60.24332607787761       20.88850252846156       36.50559392670662
C           59.69478337039238       18.97428865612614       37.94337920047128
C           59.87739278913160       17.60344614091435       38.33587277580280
C           58.89428503862135       17.32724782947905       39.24966035579458
C           58.16238280156738       18.56314628266793       39.43521344967358
C           56.51437186902237       19.94303879115746       40.61738858221186
C           55.54964075984012       20.12469573506855       41.67167656600095
C           55.10472110169412       21.41454894545955       41.57057730195721
C           55.78572726420435       21.98148152653814       40.42157351153240
C           56.13220233212265       23.77654228877459       38.79024956114300
C           55.80305299227020       25.07517927992710       38.24175736390966
C           56.66108947260877       25.27985128456494       37.20799883500111
C           57.50047408414953       24.10228981799208       37.13847352308151
C           58.52755785079992       23.94570343152898       36.22760367691277
H           58.70480846266503       24.75023204379593       35.53046328269349
C           60.46420724680368       19.61048022935942       36.98170883364745
H           61.27693250840494       19.04936987467662       36.54608658267912
C           57.19086225866189       18.75671045282791       40.39804440841338
H           56.96293299764299       17.92531750737053       41.04647292446672
C           55.49969532726217       23.22426439726136       39.88712681132402
H           54.71480505956384       23.79776029085779       40.35521007674269
C           62.18606591183374       20.85830171593397       34.78325892324098
H           62.95279389434381       20.60163166900425       35.51466822140699
H           62.62597460264787       21.52604470967232       34.04670920730099
H           61.88382002565736       19.94121321863109       34.27626232536245
C           60.84696634954353       23.76890369447023       34.23904968562469
H           61.09557645292789       24.69896966859368       34.75060176428747
H           60.02704227517252       23.97209100651319       33.54979107735456
H           61.71159727896948       23.45490762373071       33.65933844461106
C           60.90993708996685       16.68419717300648       37.77990325473016
H           61.90701715546378       17.11027152505796       37.89500247059464
H           60.73980129728790       16.51025614339638       36.71647917439233
H           60.88102757740557       15.72416740959759       38.28899099351471
C           58.63872969446984       16.05499699918634       39.89197677439231
H           59.52097781828016       15.47473090756931       40.14103523643935
C           57.43901165322833       15.54642474803134       40.14938035946675
H           56.53187209300594       16.05735825463049       39.87426677390357
H           57.32359626335026       14.58714914401109       40.62626838368565
C           55.18497666503453       19.09350514573823       42.68273279297989
H           56.05203654870886       18.82621936809425       43.28751389779811
H           54.82414554208199       18.18737122903728       42.19518612301205
H           54.40848552042650       19.46552016004217       43.34636533233024
C           54.15656075726575       22.07957948623221       42.44024448332029
H           53.34252882676723       21.45874208575130       42.79970109326810
C           54.23541826115920       23.34088572247153       42.84900411389844
H           55.05345600907020       23.98130299132733       42.56653841130490
H           53.49513399757704       23.76845399489862       43.50503604468938
C           54.72733396426272       25.96089825772316       38.76971426122141
H           54.93701598584389       26.24267728718162       39.80173988335806
H           53.76456508661677       25.44993623471748       38.74946161203817
H           54.64709381692261       26.86884733546597       38.17694709236776
C           56.77798686774270       26.45118800610046       36.29391949503412
H           56.02438600214436       27.19959186346652       36.52630572052687
H           56.64786400130306       26.14268938273712       35.25634923995817
H           57.76058657814703       26.91421782113454       36.38823541347016
O           59.50995364991103       22.13153038429584       39.82207396205164
H           60.14669462655824       22.47326561681471       39.18475680734476
H           59.84770939791944       21.28455187784921       40.13291139145721
C           53.31511195640197       20.05306109324061       35.49563841384226
H           52.97892529813488       19.01680314048044       35.52893735646666
H           53.23195974759737       20.40534835655900       34.46753181450489
H           52.66149102714021       20.65138608125416       36.12247555251538
N           55.75868112547006       19.51688155444435       35.38328132198627
H           55.69277907674937       18.91026247498395       34.58252439129205
C           54.71318529485436       20.16986034716927       35.98191194210505
C           56.88300903840985       19.83342331389490       36.06427368017089
H           57.85726931721777       19.46475784330642       35.81852290023605
N           56.61307611483170       20.64621707482233       37.05650821826973
C           55.26724870124651       20.86518494457721       37.01833908485505
H           54.79236080978242       21.50376515735611       37.73437066716750
