78
 energy: -116.058081891965 gnorm: 0.000083567680 xtb: 6.7.1 (edcfbbe)
Fe          35.56832136670005        4.32533341116367       10.16958280765184
N           37.39296657348699        3.96434222842214        9.45558289685817
N           35.17609081966935        5.51330739465703        8.61761864523871
N           33.74862157316034        4.72270154852935       10.93940165277917
N           35.97604521765440        3.17518377681386       11.77193741867034
C           38.35992158302732        3.19225794890854       10.01644549368612
C           39.54605676510864        3.17184645170059        9.18725838024949
C           39.26855093135273        3.94976479850595        8.10810389962998
C           37.91791652729820        4.43599226158264        8.29483353423001
C           35.99663556467203        5.77450959747416        7.56657071105512
C           35.36915113741920        6.67903373693857        6.63578916744668
C           34.13625077157801        6.97028076258575        7.15423023066069
C           34.03672674374162        6.21615126032558        8.39072744102759
C           32.79051321036745        5.52175974873727       10.39100565231186
C           31.60638148014212        5.53698195626695       11.20888518700366
C           31.86482971599117        4.71657049180466       12.27612810060126
C           33.20821250229582        4.21133312363305       12.07644092277837
C           35.13776268660335        2.87859619555073       12.80265106703885
C           35.77852052296402        1.98516606111360       13.74059675599070
C           37.02402395039133        1.74267750621031       13.24860893009564
C           37.12672292457518        2.49074768655667       12.01693260370111
C           38.24811867656033        2.49958676380858       11.20805288945017
H           39.09854255100693        1.91783573194170       11.52972059672570
C           37.27546362591906        5.27175076796241        7.40497709418641
H           37.82195969773805        5.57294844675205        6.52439088231934
C           32.92696909500587        6.23646350097650        9.21293574076533
H           32.09641130303449        6.85748613765102        8.91401446638508
C           33.85133430115199        3.35982552743533       12.95585180381818
H           33.30679270676427        3.04284992949546       13.83182983690278
C           40.12866250531948        4.28414506006820        6.93812224968505
H           39.65721788072899        3.95987491221798        6.01002429548672
H           41.09786893902482        3.79790303785976        7.01805423648288
H           40.28889117565252        5.36062453073517        6.87770514964784
C           40.79192463371353        2.42385561805368        9.51938577942826
H           41.54419201675861        2.56401261111016        8.74717653696757
H           40.58863897561873        1.35621753925719        9.60987282911608
H           41.20507415105873        2.77021948260998       10.46689755079734
C           35.95955077260744        7.12610753077137        5.34437175515239
H           36.50565932555612        6.31295821650768        4.86846435595913
H           36.65385224124881        7.95320447691917        5.50063250281824
H           35.17357259621820        7.46014805706442        4.66998326527866
C           33.09386197345859        7.81626130892301        6.61653855013033
H           32.07789481603717        7.49701348750573        6.81984046475249
C           33.28852346921774        8.93017313605084        5.91804276852280
H           34.27230659869301        9.32182649924228        5.72772717846896
H           32.46268958021120        9.50651571105047        5.53489903637803
C           30.34596594949792        6.25797881392573       10.87979671742332
H           30.14298634545682        6.21174422499537        9.81084681623228
H           30.41221134476407        7.30942267027776       11.16460627136998
H           29.50974719394575        5.80974427800680       11.41250445076195
C           31.00880854868280        4.36558321129490       13.38762452540426
H           31.12860223710376        3.35870382202079       13.77083033478591
C           30.11957665681916        5.17060418519378       13.96005585271514
H           29.99181045200024        6.19402835032505       13.65319450094059
H           29.50325639574933        4.83783340337272       14.77875932847824
C           35.13809851680848        1.47039244126640       14.98387071575602
H           34.23964887666292        0.90097311647922       14.74439717791139
H           34.85073997209991        2.29432188867740       15.63758922297434
H           35.81875752028839        0.82187599339060       15.53001471399479
C           38.11317350966785        0.89408242944409       13.81012638474569
H           37.80445713819012        0.43888667411420       14.74792530851921
H           39.00653392018310        1.49069112747314       13.99623090615873
H           38.37879439657527        0.09799691357599       13.11386362202025
O           36.32860595187542        6.09163274209063       11.41864560767652
H           35.49245293420196        6.46849492846866       11.71365808494324
H           36.70255722417728        5.61186632815120       12.16576127886518
C           32.43905900641737        0.82695119035743        7.16169278371981
H           31.96488960142868       -0.00453872038241        7.68299078944281
H           32.84297287561879        0.45348993988977        6.22074601937475
H           31.68475906945744        1.57629314028627        6.94340418302182
N           34.59792645447158        0.71434634699905        8.42584322364295
H           34.77807294504589       -0.25707726761075        8.23229388078836
C           33.51123588329111        1.42874878834842        7.99405125122506
C           35.37452565690332        1.54888528709608        9.15301207546045
H           36.29472142638728        1.26102401520783        9.61805554768961
N           34.84589954214167        2.74727903814869        9.20768975898344
C           33.68665034134208        2.68823304012939        8.49130137289187
H           33.06030593620633        3.54916168951146        8.38277397773104
