78
 energy: -116.058048749199 gnorm: 0.000196672169 xtb: 6.7.1 (edcfbbe)
Fe         -24.27127439465195      107.62681025084903       -9.73916052282308
N          -23.68632210853345      109.42162480430211       -9.10639517140527
N          -23.33110969449612      106.76238767350034       -8.20544490788561
N          -24.79969141543910      105.81243085163834      -10.44080112380529
N          -25.19367279229945      108.48464057616530      -11.30699008163780
C          -23.96657177385211      110.62371837447354       -9.67206783763982
C          -23.34723129992267      111.69878183889668       -8.92633981626011
C          -22.68579855537563      111.11398096530527       -7.89333114396435
C          -22.91522690389489      109.69026380525484       -8.01988512186440
C          -22.63863209318539      107.38852675259115       -7.21688743122481
C          -22.13454224034105      106.43724291344041       -6.25919751527528
C          -22.54026725970546      105.20360228212526       -6.69335087040215
C          -23.29147848803848      105.43730010682927       -7.91272179431119
C          -24.53893167835205      104.60805410866963       -9.85915279260974
C          -25.09394043088604      103.53239930596041      -10.63791012879125
C          -25.71557266395449      104.11428886811883      -11.71238048172141
C          -25.51574200937577      105.54173245060447      -11.56416897157255
C          -25.88874766430790      107.85676401008701      -12.29477462008729
C          -26.46794918777447      108.82016471397564      -13.20367432601418
C          -26.11010858509139      110.04724711166747      -12.73761483741161
C          -25.31486357112428      109.81672797840713      -11.55292572984166
C          -24.73881023436557      110.82242508246310      -10.80091746247389
H          -24.89907304996849      111.83965232513629      -11.12378223077111
C          -22.42670031865969      108.75420643242843       -7.13109478948803
H          -21.82816726919439      109.11537603916679       -6.30854712899659
C          -23.84106874817300      104.42789369327382       -8.67799491054063
H          -23.71660947416518      103.41464122258655       -8.32826805309113
C          -26.03338614427409      106.48830419550278      -12.43066454917371
H          -26.61435372161057      106.13354548312888      -13.26810770257020
C          -21.86969921759009      111.74213141983316       -6.81592389523486
H          -21.82571848420995      112.82097809276758       -6.94314370970882
H          -20.85177601625151      111.35285089726915       -6.83269322928957
H          -22.29644025525570      111.53015343693460       -5.83488323658832
C          -23.45339345233703      113.14135268101353       -9.28520086655468
H          -24.49570884591100      113.46143820000142       -9.28455662824814
H          -23.04609874089875      113.31888224160316      -10.28067903447712
H          -22.90562909808020      113.75782134208544       -8.57667911010716
C          -21.38615587451867      106.78217006026567       -5.01887525887329
H          -21.77340868910844      107.69816854517950       -4.57477835957082
H          -20.32735877156267      106.93400945674749       -5.23425669615577
H          -21.47645906978981      105.97715844177206       -4.29221005457930
C          -22.32469937645465      103.90564626297380       -6.09327139783579
H          -23.12845596120158      103.19009498031551       -6.22478302021426
C          -21.24033890669949      103.53729407707026       -5.41859130157827
H          -20.39171989181025      104.18768729307807       -5.29885239109619
H          -21.15344424359811      102.55462459890440       -4.98519535339465
C          -24.93207092328048      102.08338086926145      -10.33706725538127
H          -25.66945032064619      101.75337573808989       -9.60338509530131
H          -23.94115560330276      101.88183325661257       -9.93284395984796
H          -25.06431233700779      101.49672837067318      -11.24406837331791
C          -26.41423369418591      103.49183702661387      -12.81475836448219
H          -26.33455013120045      104.00280819549675      -13.76764420286733
C          -27.13230474689809      102.37564127355785      -12.74272284577511
H          -27.28543559315145      101.85153276310893      -11.81566739194444
H          -27.61481666083250      101.95960144566446      -13.61161621156032
C          -27.28660033472785      108.46376413873666      -14.39700978847333
H          -28.16777056515841      107.89359490479553      -14.10162377970200
H          -26.70818752319159      107.85455294213286      -15.09231935996210
H          -27.61701852747573      109.35772370261066      -14.92007712281619
C          -26.43135293921450      111.39547233281867      -13.28497578769662
H          -27.05263580651537      111.31478350434939      -14.17358511611333
H          -25.51846734983074      111.92854399269736      -13.55207416545866
H          -26.96582208718652      111.99128169436460      -12.54489370008070
O          -22.42488982482881      107.43451431942606      -11.08844426617587
H          -22.44845114366709      106.49124028956476      -11.28274661434628
H          -22.74976511022772      107.89359281933633      -11.87071784400050
C          -29.54122590313833      107.38142395945211       -7.93762001611095
H          -30.05444472138357      108.31773943978492       -7.71865691443793
H          -29.77357441166879      106.67172378098837       -7.14367070135835
H          -29.91857842788955      106.98873421676676       -8.87653306348291
N          -27.32699203737880      108.08516651481338       -7.00355292283676
H          -27.67787383055679      108.34215034994922       -6.09553843919294
C          -28.07562917183778      107.59507631540930       -8.04142342885063
C          -26.04334932980042      108.15727972262569       -7.42219976664636
H          -25.23216770439993      108.50646997950834       -6.81681747745791
N          -25.93416538748747      107.74281396564932       -8.66127691244949
C          -27.18981011221448      107.39010049510048       -9.06004415236161
H          -27.37154907342329      107.01432143568869      -10.04529936235655
