78
 energy: -115.980761099986 gnorm: 0.239761290391 xtb: 6.7.1 (edcfbbe)
Fe         -24.44600000000000      107.63500000000001       -9.73300000000000
N          -23.72600000000000      109.41600000000000       -9.15600000000000
N          -23.36400000000000      106.69499999999999       -8.22400000000000
N          -25.04400000000000      105.78500000000000      -10.38400000000000
N          -25.37600000000000      108.53599999999999      -11.32400000000000
C          -24.00300000000000      110.63700000000000       -9.73900000000000
C          -23.36800000000000      111.66499999999999       -8.93600000000000
C          -22.74400000000000      111.06499999999998       -7.91000000000000
C          -22.95100000000000      109.64100000000001       -8.03900000000000
C          -22.63500000000000      107.33999999999999       -7.24800000000000
C          -22.10200000000000      106.34399999999999       -6.31700000000000
C          -22.51600000000000      105.13800000000001       -6.74900000000000
C          -23.30800000000000      105.34300000000000       -7.95300000000000
C          -24.63300000000000      104.56300000000000       -9.87500000000000
C          -25.09800000000000      103.51399999999998      -10.75800000000000
C          -25.76700000000000      104.09800000000000      -11.77500000000000
C          -25.72800000000000      105.54200000000000      -11.56000000000000
C          -26.05000000000000      107.86499999999999      -12.32400000000000
C          -26.47100000000000      108.84699999999998      -13.29800000000000
C          -26.04300000000000      110.04600000000001      -12.89200000000000
C          -25.32800000000000      109.87399999999998      -11.64500000000000
C          -24.73200000000000      110.86000000000000      -10.88300000000000
H          -24.84800000000000      111.89200000000000      -11.21400000000000
C          -22.45400000000000      108.69700000000000       -7.17400000000000
H          -21.85300000000000      109.06499999999998       -6.34200000000000
C          -23.91200000000000      104.35899999999999       -8.71100000000000
H          -23.81200000000000      103.33099999999999       -8.36200000000000
C          -26.29900000000000      106.50700000000001      -12.36800000000000
H          -27.01599999999999      106.16300000000000      -13.11300000000000
C          -21.93000000000000      111.72299999999998       -6.77600000000000
H          -21.92000000000000      112.82499999999999       -6.91800000000000
H          -20.88500000000000      111.34799999999998       -6.79800000000000
H          -22.39700000000000      111.48999999999999       -5.79500000000000
C          -23.46000000000000      113.17800000000000       -9.22600000000000
H          -24.42900000000000      113.40200000000000       -9.72100000000000
H          -22.63100000000000      113.48199999999999       -9.90100000000000
H          -23.40200000000000      113.74700000000000       -8.27400000000000
C          -21.24000000000000      106.68299999999999       -5.06900000000000
H          -21.52500000000000      107.68499999999999       -4.68200000000000
H          -20.16500000000000      106.69700000000000       -5.34800000000000
H          -21.41600000000000      105.92699999999999       -4.27400000000000
C          -22.23600000000000      103.72600000000000       -6.16900000000000
H          -22.85600000000000      102.88600000000000       -6.51400000000000
C          -21.28800000000000      103.43600000000001       -5.26900000000000
H          -20.62900000000000      104.22499999999999       -4.87800000000000
H          -21.15600000000000      102.40500000000000       -4.90900000000000
C          -24.82400000000000      102.00500000000000      -10.49400000000000
H          -25.72600000000000      101.53700000000001      -10.04400000000000
H          -23.97200000000000      101.89600000000000       -9.78900000000000
H          -24.59200000000000      101.49200000000000      -11.45200000000000
C          -26.45700000000000      103.43700000000000      -12.99700000000000
H          -27.01700000000000      104.07200000000000      -13.69800000000000
C          -26.42000000000000      102.12300000000000      -13.26600000000000
H          -25.87700000000000      101.43300000000001      -12.60400000000000
H          -26.93300000000000      101.72000000000000      -14.15200000000000
C          -27.26800000000000      108.53900000000000      -14.58300000000000
H          -28.34400000000000      108.42100000000001      -14.33300000000000
H          -26.89800000000000      107.59499999999998      -15.03700000000000
H          -27.15500000000000      109.37599999999999      -15.30400000000000
C          -26.20400000000000      111.36400000000000      -13.65700000000000
H          -27.21099999999999      111.40000000000001      -14.12600000000000
H          -25.43300000000000      111.43200000000000      -14.45400000000000
H          -26.10200000000000      112.22000000000000      -12.95600000000000
O          -22.65600000000000      107.27699999999999      -11.29200000000000
H          -22.73400000000000      106.36699999999999      -11.57900000000000
H          -22.04000000000000      107.86100000000000      -11.55700000000000
C          -29.55500000000000      107.24599999999998       -7.02100000000000
H          -30.31000000000000      107.95500000000000       -7.42300000000000
H          -29.62900000000000      107.23000000000000       -5.91300000000000
H          -29.75800000000000      106.23300000000000       -7.43000000000000
N          -27.67900000000000      108.91800000000001       -7.06600000000000
H          -28.15300000000000      109.58100000000000       -6.48700000000000
C          -28.19100000000000      107.68899999999998       -7.42800000000000
C          -26.48200000000000      109.06999999999999       -7.60000000000000
H          -25.85100000000000      109.94799999999999       -7.46700000000000
N          -26.20600000000000      107.98800000000000       -8.30400000000000
C          -27.26500000000000      107.11499999999999       -8.22800000000000
H          -27.25700000000000      106.16800000000001       -8.75200000000000
78
 energy: -116.025087214347 gnorm: 0.096410804972 xtb: 6.7.1 (edcfbbe)
Fe         -24.42409305776487      107.62505322725455       -9.73418451035901
N          -23.72432856831629      109.41198107964189       -9.15636721673332
N          -23.36614011567717      106.68836172519718       -8.21613578410417
N          -25.02117330003662      105.78191431454995      -10.40354042243687
N          -25.36205238612693      108.52385377131567      -11.31943511344753
C          -23.99664813088344      110.63019150475469       -9.72633311241907
C          -23.37495150616180      111.67750206421056       -8.93416535972849
C          -22.73742816445803      111.07150311761309       -7.90298763638572
C          -22.95679263192647      109.64557903904200       -8.04515297715989
C          -22.63991472083175      107.32169951386614       -7.24507828072735
C          -22.09886373570134      106.33954409964763       -6.31037455909666
C          -22.51289156837172      105.11432095765826       -6.74459418029074
C          -23.31569526901296      105.34763124191316       -7.94295747386328
C          -24.64280096206747      104.56528386418894       -9.88636228810772
C          -25.10407126288309      103.50162442009398      -10.75700537773621
C          -25.78678053385270      104.08658758064090      -11.78787925927518
C          -25.73640193274220      105.52908835681549      -11.54800922441509
C          -26.06009182569279      107.87265373876819      -12.30476987097287
C          -26.48299534142222      108.83856093626015      -13.30085018325754
C          -26.04091810359318      110.05232845904696      -12.89548157613127
C          -25.33612964899984      109.85489192398649      -11.64269204014254
C          -24.73383661129682      110.84320895442222      -10.87807193895086
H          -24.84189365725785      111.86998953089972      -11.21434635618179
C          -22.45746334052419      108.69205391321239       -7.17433658823816
H          -21.85734815023977      109.06246277887902       -6.34957794405832
C          -23.91936029345014      104.36858009131767       -8.71445434393456
H          -23.80682092990977      103.34510348934118       -8.37461911952376
C          -26.30091302466384      106.50663421012929      -12.35706435963565
H          -26.98567532721567      106.16548499117532      -13.12719838988181
C          -21.93954261675624      111.71621147786246       -6.78994197689336
H          -21.91986324146789      112.80274749417913       -6.91652228838984
H          -20.90725030664100      111.35143229187811       -6.79739415375569
H          -22.38619339927180      111.48900522422539       -5.81522107797128
C          -23.46320042848091      113.16063971329477       -9.22480266846154
H          -24.41343017068838      113.39941655686745       -9.71135589188111
H          -22.64748683765197      113.47396471172094       -9.88673127623829
H          -23.40025504749930      113.73504628489819       -8.29552521225820
C          -21.25967262565583      106.68545678376539       -5.09118909883194
H          -21.52514130605330      107.67178529600370       -4.69841047865534
H          -20.19313338601517      106.69512653966929       -5.34783261840256
H          -21.42375304236860      105.95297708385905       -4.29526014628830
C          -22.23709838639116      103.75688558882922       -6.17401162009430
H          -22.85982951578787      102.93582145941076       -6.52782579988226
C          -21.29615236986545      103.45156769911023       -5.28223484524817
H          -20.62100245777289      104.19898561758302       -4.89061430329912
H          -21.16608069070325      102.43409446645610       -4.92388298865699
C          -24.82476412384785      102.03070817622513      -10.49112704932226
H          -25.70981145948333      101.55116239939261      -10.05474416048587
H          -23.98736247495973      101.90627442272275       -9.80063633621968
H          -24.57059661299369      101.50941391566586      -11.41742184655519
C          -26.44249218367364      103.44213984536761      -12.96997142720972
H          -26.98882923125350      104.08969298056132      -13.65450987950124
C          -26.42280885133544      102.14104024334362      -13.25887989028540
H          -25.90769171705879      101.43015613968684      -12.63296054890050
H          -26.92462169506029      101.74477540046946      -14.13590278926428
C          -27.26018127611867      108.53579997943105      -14.56488114001226
H          -28.32580910228206      108.41946950535339      -14.33473942886023
H          -26.90286228387203      107.61087062555249      -15.02704021711455
H          -27.15241261226636      109.35277023040047      -15.28497726698091
C          -26.20332299606513      111.35451348117024      -13.64353140215471
H          -27.19173013035023      111.40158137605808      -14.11337286054071
H          -25.44633174243172      111.43464588462518      -14.43292106624011
H          -26.10099113922218      112.20894570465680      -12.96952601475829
O          -22.67887230385449      107.26629368734987      -11.26245426734483
H          -22.72814305232301      106.36809730331531      -11.58478803051499
H          -22.02622544902358      107.87270761077174      -11.56379820995888
C          -29.55568527578202      107.24979417100212       -7.02017585751767
H          -30.31118092078014      107.94063632297237       -7.41181023759688
H          -29.63855547799225      107.22488479106023       -5.92794833689935
H          -29.75492262580898      106.25182321994248       -7.41818512528050
N          -27.68748202756726      108.91192779131573       -7.06200474426279
H          -28.16010663952613      109.58013452023475       -6.47718004489427
C          -28.19857523359014      107.69403225092393       -7.43390087462495
C          -26.47545844150730      109.05029592462658       -7.61701258855214
H          -25.85123914399485      109.91811346568046       -7.48188366507247
N          -26.18486676706387      107.98537143184552       -8.33425257270418
C          -27.24948777781638      107.12835732980591       -8.23114339389306
H          -27.24401930094303      106.18473268301396       -8.74353679407333
78
 energy: -116.038655340604 gnorm: 0.022850777395 xtb: 6.7.1 (edcfbbe)
Fe         -24.41798262486866      107.61680292020340       -9.73224644561885
N          -23.72056576862568      109.40351744183137       -9.15665224049041
N          -23.37589830842015      106.68917785698225       -8.21125628003595
N          -25.01551015789607      105.77993360993665      -10.41060605741326
N          -25.35837885475988      108.51029639434122      -11.30898430524532
C          -23.99138312020955      110.61697291210322       -9.71649349756791
C          -23.38288084638006      111.67798560927054       -8.93318977043713
C          -22.73520454502685      111.06967992464482       -7.89933308775005
C          -22.95997789827914      109.64411280897895       -8.05124294688924
C          -22.65040580035805      107.31331560595879       -7.24586654856595
C          -22.10383981107454      106.34577307694866       -6.31178091353910
C          -22.51677756048892      105.10701122561811       -6.74575777604419
C          -23.32428191965105      105.35825035900663       -7.94033496314756
C          -24.64480347408066      104.57182513713869       -9.89522906681705
C          -25.10525917640873      103.49704598542885      -10.74757901204387
C          -25.80121205981513      104.08074685478772      -11.78560595711390
C          -25.73447501673431      105.52132429641519      -11.53951675977485
C          -26.06119435858313      107.87315653057681      -12.28703330360184
C          -26.49313657820335      108.82817129269438      -13.29105683171378
C          -26.04018099804249      110.04998764911450      -12.88695400147171
C          -25.33751518988747      109.83257670874475      -11.63648937102747
C          -24.73039390174611      110.82165976600670      -10.87388973792767
H          -24.83248850906773      111.84342941865251      -11.21547196920341
C          -22.46181553010637      108.68900771620433       -7.17583465971353
H          -21.86183224249758      109.06033515153408       -6.35672818379095
C          -23.91870822877283      104.38048191044561       -8.72182250077998
H          -23.79577895445062      103.35952561851805       -8.39023044113748
C          -26.28759587424216      106.50279357337506      -12.35563478856799
H          -26.94152005721998      106.16514247896136      -13.15056363348454
C          -21.94847880530230      111.70566217879283       -6.80287730619370
H          -21.92484352993349      112.78478441029985       -6.92301932597100
H          -20.92190118108963      111.34466979771989       -6.80307817366384
H          -22.38382502370275      111.47958807604455       -5.83030841339417
C          -23.46790807457945      113.13982110836376       -9.22434242784869
H          -24.40853085005836      113.38860956783174       -9.70702247530335
H          -22.65768751010733      113.45561312679141       -9.88113550380584
H          -23.39744795973571      113.71860655628917       -8.30649197046513
C          -21.28224947178332      106.68929478837404       -5.11441601501321
H          -21.53738278842803      107.67269481038210       -4.72920946840844
H          -20.21887596161467      106.69135036552184       -5.35923756751825
H          -21.44484549956977      105.96881398271067       -4.31714950104487
C          -22.24409906224425      103.79804002377347       -6.19144890286486
H          -22.87813612619991      102.99467850239030       -6.54897520187354
C          -21.30331637517406      103.47260975464542       -5.30613697386904
H          -20.60530707454311      104.18404481194455       -4.90895851909146
H          -21.18846919568214      102.46224932687825       -4.94666076929931
C          -24.82305513431087      102.05511674714835      -10.48736344401139
H          -25.70207719296228      101.56512378101121      -10.06658668646479
H          -23.99912109566398      101.93243785503931       -9.79271105378051
H          -24.54776969967557      101.53441812119638      -11.39943955940401
C          -26.43353439676555      103.45867386400457      -12.92854369135181
H          -26.95659333067318      104.12679956283823      -13.60354676492062
C          -26.43287843114154      102.16404827806510      -13.24564439945888
H          -25.94177525405419      101.42008329086306      -12.65191207897053
H          -26.92292114148219      101.78939953473657      -14.12894292609347
C          -27.25364203496136      108.52732158337693      -14.54038200964534
H          -28.31582980314200      108.40930329921916      -14.32584997672745
H          -26.89961967471353      107.61291746079847      -15.00840841333190
H          -27.14442703727212      109.33689353210285      -15.25750385998630
C          -26.19956156761866      111.34145921026384      -13.62293073997862
H          -27.17897634239693      111.39419717082575      -14.09361244500661
H          -25.44914274178750      111.42957485682078      -14.40963991019582
H          -26.09536536750453      112.19570388143599      -12.96256989824563
O          -22.67415563941195      107.25584798394272      -11.19306230641995
H          -22.71617898337307      106.38640790667054      -11.60440181712087
H          -22.04107693089582      107.87394721087685      -11.56952496661978
C          -29.55227168005512      107.24895790923063       -7.02275184204112
H          -30.31045426453390      107.93089499384139       -7.40473966831468
H          -29.63529688171992      107.22144618034926       -5.93798591993725
H          -29.75059353798476      106.25803708653575       -7.41334889304124
N          -27.68483921573942      108.90638335476669       -7.06652508136280
H          -28.15072055024597      109.57847718545622       -6.47651981006305
C          -28.20018189700234      107.69552744901014       -7.44498290904625
C          -26.46632059631309      109.03204463001940       -7.63886454510971
H          -25.84321571789102      109.89163513719764       -7.50262769124852
N          -26.17227613798265      107.97645569990958       -8.35834498503266
C          -27.24143976531286      107.13518224488926       -8.24305481372960
H          -27.24138609976672      106.19011197438014       -8.74382332679505
78
 energy: -116.042101511189 gnorm: 0.051514823435 xtb: 6.7.1 (edcfbbe)
Fe         -24.41551620807901      107.61346245181882       -9.72943631402519
N          -23.72135871038720      109.39675640666786       -9.15340879076415
N          -23.39220115000360      106.69962884582726       -8.20864512313878
N          -25.01396465338731      105.78451831800047      -10.40672112886288
N          -25.35266355475151      108.49716075699990      -11.29919092912390
C          -23.99140615794916      110.60668699355369       -9.71244597669597
C          -23.38835356612234      111.67084662699587       -8.93390323060361
C          -22.73806457942208      111.06519162557316       -7.90002797735003
C          -22.96290322982395      109.64232330026692       -8.05140560718090
C          -22.66298560168445      107.32070894733769       -7.24747364247863
C          -22.11250474484782      106.36076457141226       -6.31965390125731
C          -22.52393051806654      105.12008786229535       -6.75244491029715
C          -23.33534850656847      105.37223202019601       -7.94066725340151
C          -24.64604178288827      104.58009908460082       -9.88952029234304
C          -25.10323002726145      103.50251120248441      -10.73152104381783
C          -25.80181772953387      104.08359127147877      -11.77081077761000
C          -25.73323296721326      105.52167629138854      -11.52939298442138
C          -26.05812824147975      107.86534067817561      -12.27406989608370
C          -26.49417352117416      108.81741221504302      -13.27545515904038
C          -26.03941722268625      110.03936715186485      -12.87135780831943
C          -25.33505222570620      109.81699673075211      -11.62604415820308
C          -24.72728979207243      110.80752841967971      -10.87037928770844
H          -24.82281128289639      111.82566262508651      -11.21975383994616
C          -22.46636901653471      108.69309803538398       -7.17406391044137
H          -21.86278830742396      109.06299814595154       -6.35847612614252
C          -23.91845648880334      104.39069072663608       -8.72047039302956
H          -23.77863751161525      103.36946539112050       -8.39857246312510
C          -26.27634050959296      106.49674874962960      -12.35563489408957
H          -26.89836285612863      106.15937333824452      -13.17686457061305
C          -21.95128468130028      111.69744733924375       -6.80676725688036
H          -21.92682821413354      112.77661263349498       -6.92613623577382
H          -20.92518005883548      111.33399810065102       -6.80844252735330
H          -22.38442797456399      111.46885497138396       -5.83344743523792
C          -23.47305553142899      113.12811402901433       -9.22847588920308
H          -24.41467906702913      113.37928309873155       -9.70839580792652
H          -22.66329980936528      113.43909076908488       -9.88874675875406
H          -23.39558145208700      113.70887418419754       -8.31202715498686
C          -21.29943266783466      106.70418161923244       -5.12442304174109
H          -21.54808762168658      107.69460222657379       -4.75257462690844
H          -20.23461419325488      106.69134905098788       -5.36403937551724
H          -21.47648994664377      105.99043202655433       -4.32398964482464
C          -22.25797618873433      103.81973644640742       -6.20211061115659
H          -22.90617234996164      103.02774562816769       -6.55868596243250
C          -21.31139523337690      103.47972436194694       -5.32681355595365
H          -20.57789713868216      104.16903065753023       -4.94791224767744
H          -21.21222873049147      102.46740308265089       -4.97270982265536
C          -24.81395892257899      102.06676501470821      -10.47601932637385
H          -25.69819090303406      101.56322359425769      -10.08052314644976
H          -24.00497187281697      101.95042929927831       -9.76157062190674
H          -24.51008128363284      101.55735212107224      -11.38706882504075
C          -26.43016273594100      103.47656689792052      -12.91125735658009
H          -26.93897946224177      104.16516784757039      -13.57649426819150
C          -26.45428165109968      102.18544260428928      -13.24854815681604
H          -25.99582351761626      101.40943851776134      -12.66372067407883
H          -26.94502618026142      101.84267694408763      -14.14394634245436
C          -27.25154394246443      108.51332990645008      -14.52117122049417
H          -28.31444235042669      108.39056906088874      -14.31132323174864
H          -26.89276379043915      107.60034193239781      -14.98928661778404
H          -27.14077958429785      109.32415088758894      -15.23663989394121
C          -26.19616748257342      111.33156338612980      -13.60003915530825
H          -27.17504701879334      111.38720545206660      -14.07152567099917
H          -25.44415492690530      111.42221484607485      -14.38554700241330
H          -26.08980169219337      112.18466481302573      -12.93801017762389
O          -22.60961818460420      107.22754799672774      -11.07612047635442
H          -22.72780596289039      106.42042106415406      -11.64532360762291
H          -22.07871502935062      107.88943647663706      -11.59276443861294
C          -29.54394629581969      107.24541733094102       -7.02827516071698
H          -30.30845527899913      107.92473444845028       -7.40332750764732
H          -29.62001104780355      107.21810111565802       -5.94283429932534
H          -29.74408507303623      106.25340204580147       -7.41532592892258
N          -27.67140331425072      108.89966245737978       -7.08232678759219
H          -28.12837475434724      109.57319019933973       -6.48685751017700
C          -28.19443037627855      107.69128578506916       -7.46098276089601
C          -26.45365484344727      109.01735716505172       -7.66338678003364
H          -25.82471983338944      109.87200293173898       -7.52788450022436
N          -26.16925261394817      107.96347600565493       -8.38563220168031
C          -27.24053638159134      107.12863823126980       -8.26384072338092
H          -27.24783216941271      106.18081461023829       -8.75891528351064
78
 energy: -116.044673576330 gnorm: 0.024707806640 xtb: 6.7.1 (edcfbbe)
Fe         -24.41382139596566      107.61083628510089       -9.72627383434133
N          -23.72365114544182      109.38946765101238       -9.14919951587051
N          -23.41469553668293      106.71525682104676       -8.20690948047530
N          -25.01251153723382      105.79214655941924      -10.40080883436303
N          -25.34354036750241      108.48229302998243      -11.28936963115949
C          -23.99288830878839      110.59637809955299       -9.70970941880607
C          -23.39384085114555      111.66147708836628       -8.93548280049718
C          -22.74235320378539      111.06008020516180       -7.90253704869052
C          -22.96575408401973      109.64060310997272       -8.05056629225183
C          -22.67840645759942      107.33347419395218       -7.25031236154609
C          -22.12264142392550      106.37925164778514       -6.33162100819993
C          -22.53174807534411      105.14014130059898       -6.76378919675844
C          -23.34809858299545      105.38970350147866       -7.94364901486762
C          -24.64589244032426      104.59000493533802       -9.88157404397002
C          -25.10164042354314      103.51139220716672      -10.71316403279699
C          -25.80172010469952      104.08913311781569      -11.75084993408553
C          -25.73140709511116      105.52452527525929      -11.51928711665065
C          -26.05347790455655      107.85480352967500      -12.26162181300866
C          -26.49525254992882      108.80620549514968      -13.25576219862179
C          -26.04090728615955      110.02610008845531      -12.85128991291109
C          -25.33166794689292      109.80184050752231      -11.61336752294087
C          -24.72414343640484      110.79436985689583      -10.86689482169355
H          -24.81368891318607      111.80880266756887      -11.22470766503571
C          -22.47101397792606      108.69978499276230       -7.17172357025698
H          -21.86137657457683      109.06695252675321       -6.36022741591038
C          -23.91642732241845      104.40203437003962       -8.71908048605956
H          -23.75691542582719      103.38056901550944       -8.40722252342152
C          -26.26354728060100      106.48976979776397      -12.35770627680881
H          -26.85426359990637      106.15359446854858      -13.20295727720092
C          -21.95224494107295      111.68931240026728       -6.80973630746029
H          -21.92746129098643      112.77011430550976       -6.92888999374799
H          -20.92570862320940      111.32167894213754       -6.81611098610523
H          -22.38464205213231      111.45684831534928       -5.83504723640635
C          -23.47938133046456      113.11789991839876       -9.23452259471920
H          -24.42508411669911      113.36930297732265       -9.71040855654124
H          -22.67021001086797      113.42219608204290       -9.90162786399716
H          -23.39366569571603      113.70031732215529       -8.31772114936328
C          -21.31391570528044      106.72038129945807       -5.13449365796567
H          -21.55594708325640      107.71963831431506       -4.77617241588626
H          -20.24711193190904      106.69116886764856       -5.37031633884310
H          -21.50833118302045      106.01023291535219       -4.33227178215248
C          -22.27059574310913      103.83906540749119       -6.21643059815770
H          -22.93999849182045      103.05912321626218       -6.56319240141840
C          -21.31337560333120      103.48678701069966       -5.35608539081500
H          -20.55286824879958      104.16015363049577       -4.99175491986473
H          -21.23507068548799      102.47204110842894       -5.00251076788798
C          -24.80493599365690      102.07600613382348      -10.46596763572402
H          -25.69636017081059      101.55693577927363      -10.10035243751367
H          -24.01285090267410      101.96511294362524       -9.72727739211228
H          -24.47006047195649      101.58397590381340      -11.38009710318164
C          -26.43274630004735      103.49504646584373      -12.89522407726941
H          -26.92200253541022      104.20504975974065      -13.55437550784067
C          -26.48382885253153      102.20748266531656      -13.24886700471642
H          -26.05470155893346      101.40223511286828      -12.67196786403812
H          -26.97379214166791      101.90123831392437      -14.16058419433001
C          -27.25309031536769      108.49699810752402      -14.49986753664827
H          -28.31696589967384      108.36727309641694      -14.29114252505593
H          -26.88690064485247      107.58388124802458      -14.96698645006890
H          -27.14240907026441      109.31087176246450      -15.21411681607078
C          -26.19548484484793      111.32207028722500      -13.57275466229802
H          -27.17560901589632      111.38048141689907      -14.04474944493553
H          -25.44011270922135      111.41487841508493      -14.35725418160695
H          -26.08695702855736      112.17292201202969      -12.90469971373086
O          -22.65785690984918      107.26015290281724      -11.11094070054970
H          -22.68346724690180      106.43317303295747      -11.57812737560872
H          -22.06229493177079      107.86801775444009      -11.54617144334260
C          -29.53082773743381      107.23967917175840       -7.03360475075856