78
 energy: -115.929457568421 gnorm: 0.365211105608 xtb: 6.7.1 (edcfbbe)
Fe          28.18700000000000       93.94799999999999       52.99499999999999
N           29.25500000000000       95.61300000000000       52.37600000000000
N           29.29600000000000       93.89000000000000       54.74200000000000
N           27.14000000000000       92.29799999999999       53.65699999999999
N           27.07400000000000       93.98799999999999       51.25200000000000
C           28.97100000000000       96.36000000000000       51.30499999999999
C           29.70600000000000       97.53199999999998       51.30399999999999
C           30.41800000000000       97.51100000000000       52.49000000000000
C           30.06200000000000       96.34199999999998       53.12100000000000
C           30.17800000000000       94.80899999999998       55.12499999999999
C           30.80000000000000       94.47499999999999       56.30700000000000
C           30.28900000000000       93.19799999999999       56.62400000000000
C           29.33600000000000       92.90800000000000       55.64800000000000
C           27.45000000000000       91.51899999999999       54.71300000000000
C           26.56100000000000       90.45600000000000       54.83100000000000
C           25.65300000000000       90.62800000000000       53.74999999999999
C           26.13500000000000       91.70199999999998       53.01199999999999
C           26.12300000000000       93.10899999999999       50.90100000000000
C           25.71200000000000       93.31699999999999       49.59200000000000
C           26.39500000000000       94.45600000000000       49.17399999999999
C           27.18200000000000       94.85400000000000       50.25699999999999
C           28.02300000000000       95.98300000000000       50.32200000000000
H           27.93000000000000       96.67400000000001       49.48599999999999
C           30.48800000000000       95.95500000000000       54.39200000000000
H           31.16400000000000       96.65199999999999       54.88600000000000
C           28.50100000000000       91.78500000000000       55.60500000000000
H           28.69100000000000       91.02100000000000       56.35900000000000
C           25.66900000000000       92.09500000000000       51.75500000000000
H           24.82100000000000       91.52400000000000       51.38000000000000
C           31.37800000000000       98.55200000000001       53.00200000000000
H           30.93000000000000       99.07199999999999       53.87499999999999
H           31.58299999999999       99.29800000000000       52.20500000000000
H           32.32500000000000       98.06499999999998       53.32000000000000
C           29.71200000000000       98.61700000000000       50.23200000000000
H           28.72000000000000       98.65200000000000       49.73400000000000
H           30.48900000000000       98.38900000000000       49.47099999999999
H           29.91600000000000       99.60399999999998       50.69900000000000
C           31.87300000000000       95.34699999999999       56.95500000000000
H           31.51100000000000       96.39500000000000       57.01800000000000
H           32.79800000000000       95.32200000000000       56.34100000000000
H           32.08800000000000       94.97799999999999       57.97999999999999
C           30.62500000000000       92.30199999999999       57.64500000000000
H           30.00200000000000       91.40300000000001       57.74600000000000
C           31.71200000000000       92.41000000000000       58.60599999999999
H           32.39100000000000       93.27500000000001       58.58600000000000
H           31.86700000000000       91.62800000000000       59.36400000000000
C           26.53500000000000       89.49200000000000       56.03100000000000
H           26.51500000000000       90.07599999999998       56.97599999999999
H           27.44500000000000       88.85499999999999       56.02099999999999
H           25.62600000000000       88.85599999999998       55.98200000000000
C           24.49400000000000       89.92800000000000       53.35699999999999
H           23.86000000000000       90.40300000000001       52.59600000000000
C           24.01500000000000       88.63199999999999       53.83600000000000
H           24.57900000000000       88.07599999999999       54.59900000000000
H           23.08500000000000       88.19900000000000       53.43900000000000
C           24.75300000000000       92.46400000000000       48.76300000000000
H           23.70500000000000       92.70699999999998       49.04100000000000
H           24.93900000000000       91.38699999999999       48.96400000000000
H           24.89800000000000       92.67899999999999       47.68299999999999
C           26.30300000000000       95.10599999999999       47.80500000000000
H           25.29300000000000       94.92799999999998       47.37700000000000
H           27.06400000000000       94.66300000000000       47.12700000000000
H           26.46800000000000       96.20099999999999       47.89700000000000
O           26.92000000000000       95.14799999999998       53.87000000000000
H           26.18000000000000       94.60200000000000       54.13500000000000
H           27.00200000000000       96.02399999999999       54.00200000000000
C           30.77700000000000       90.22899999999998       49.75100000000000
H           31.11500000000000       89.26399999999998       50.18600000000000
H           31.58100000000000       90.63100000000000       49.09800000000000
H           29.85600000000000       90.05200000000001       49.15500000000000
N           31.19700000000000       91.58499999999999       51.92300000000000
H           32.09300000000000       91.20699999999998       52.15199999999999
C           30.48300000000000       91.21700000000000       50.87200000000000
C           30.56200000000000       92.50200000000000       52.60200000000000
H           30.94100000000000       92.98099999999999       53.50400000000000
N           29.42100000000000       92.72600000000000       52.00899999999999
C           29.33100000000000       91.96299999999999       50.95500000000000
H           28.45400000000000       91.98999999999998       50.32000000000000
78
 energy: -116.011120293043 gnorm: 0.151564085251 xtb: 6.7.1 (edcfbbe)
Fe          28.19623279490617       93.93775796165211       52.97900728702724
N           29.21417054599157       95.60353826145986       52.38448909322268
N           29.27646018647089       93.89309274465424       54.72411026299103
N           27.16353921239417       92.30679359379791       53.64214456372847
N           27.06931203634850       93.99839796744732       51.28291531903817
C           28.95176819681845       96.34540948868168       51.28625013391446
C           29.70839802738508       97.54659077286065       51.29767212731837
C           30.42213879244072       97.52978606531839       52.47586388762224
C           30.06370365595449       96.33069917013697       53.13058633912748
C           30.17346592668837       94.82235100709703       55.11442655643867
C           30.81506194376261       94.46602082999090       56.31679845718664
C           30.31177930092000       93.20131684904941       56.64390133942216
C           29.32718181709564       92.90395374602461       55.64309420228248
C           27.45649494101617       91.53090951035527       54.71843877101561
C           26.54365158225567       90.45293241206203       54.83749165316008
C           25.64830863462247       90.59555693491835       53.76268463179056
C           26.12643917304156       91.71612152738979       53.01276160052053
C           26.12974173509965       93.09563437784860       50.91581097629513
C           25.70957358357211       93.32345487691754       49.57812615060961
C           26.38301983358140       94.45516475231587       49.16271086703227
C           27.20151691463578       94.85867090942544       50.25802115943105
C           28.02773694295203       95.98227731498990       50.30335065715029
H           27.93247771486959       96.67314482427985       49.47606137446473
C           30.49625407157099       95.96519443627062       54.39497677170665
H           31.17051711420618       96.65574959006686       54.88358824085115
C           28.50293849628241       91.78403385357622       55.60789395230567
H           28.68169649062715       91.02450927551570       56.35902416825679
C           25.65835959284563       92.09265865801456       51.75663240930901
H           24.82579871725623       91.51956334794897       51.36959323193357
C           31.37609173980343       98.55582774480555       52.99798403233029
H           30.94074305083844       99.06999324143234       53.86539255025945
H           31.58839709249968       99.29343465309006       52.21875320480217
H           32.31316981880612       98.07894200857825       53.31327964217883
C           29.71113274081896       98.61384251826789       50.23768745755902
H           28.73578945163712       98.65556278787460       49.73984844685820
H           30.47762150870295       98.39633121280558       49.48207390275952
H           29.91536932994741       99.59165823144129       50.68742491707076
C           31.86464535728837       95.33604756470805       56.95806326459581
H           31.51497864329149       96.37522094934906       57.01783971520074
H           32.78406346919786       95.31938064410754       56.35660513948922
H           32.08725135586251       94.99281970645841       57.96948059029447
C           30.65593648028476       92.30413351903232       57.68710030863907
H           30.03054417375601       91.41369728819328       57.76398667469016
C           31.68583987925556       92.40512352727266       58.58673289401306
H           32.37280173698014       93.24357728616600       58.58035128583857
H           31.85086028073746       91.64037690400097       59.33857925214674
C           26.53049892856457       89.50175453175191       56.01588580029392
H           26.51585387748036       90.06882736273343       56.95671181440323
H           27.42680126786174       88.86615881562172       56.01610864767544
H           25.64250661599461       88.86636242261666       55.98795784952775
C           24.47781146284492       89.87930079714761       53.37783653728990
H           23.86134183752677       90.36958078487004       52.62056962278702
C           24.02659460773321       88.66367338629331       53.82713891129382
H           24.57018530188913       88.09205558946169       54.57085074467759
H           23.10988218985692       88.22609243429368       53.44266888573999
C           24.75916117840577       92.47417566983447       48.77011385727592
H           23.71838153538668       92.70240801949474       49.03728796101416
H           24.93659190986162       91.40753568109332       48.95959518536088
H           24.89476773484202       92.67269829893401       47.70129150952695
C           26.29888481731502       95.10351975336370       47.81059677012864
H           25.30649473852856       94.93407096695687       47.37801922632322
H           27.05245115657838       94.67471349748934       47.13569308820037
H           26.46708327074536       96.18367300982649       47.89070207412611
O           26.90546446150843       95.13637506618446       53.87762155146116
H           26.15261764407332       94.61572948872629       54.15214786617638
H           26.98298173893770       96.06099069005765       54.01987593499027
C           30.78552396674196       90.22457641192146       49.75776515491368
H           31.11698065206183       89.26835855894291       50.17758854709492
H           31.57225707999915       90.62019617903883       49.10374280900415
H           29.87776984293297       90.05785404842926       49.16847027769171
N           31.22003725283535       91.56615265048775       51.90773494010496
H           32.11854840070935       91.18679658258961       52.13942209747527
C           30.47152205783481       91.20390809534703       50.84741651757631
C           30.57380789593437       92.49934666696186       52.60469648839592
H           30.94856248721538       92.97211912940143       53.49302304528551
N           29.42060378906128       92.73725375284026       52.02915369005522
C           29.32711015275488       91.96172398568643       50.94986274827661
H           28.45794606066350       91.98876282395098       50.32084038197399
78
 energy: -116.032384762677 gnorm: 0.051873750201 xtb: 6.7.1 (edcfbbe)
Fe          28.19948987238936       93.93232380476361       52.96568358006231
N           29.16977787632026       95.59999290646485       52.39581082829222
N           29.26642242274345       93.89502112150028       54.70439151559394
N           27.18638203631145       92.31233198109423       53.62287620787376
N           27.07483287438959       94.00191339200775       51.30605839278119
C           28.92914815895273       96.33400594807692       51.27712918143691
C           29.70600069131158       97.55156384594423       51.29534101321490
C           30.41642970280559       97.53672255553622       52.46100437118711
C           30.05192578666109       96.32159130622793       53.13768542157291
C           30.16905829339670       94.83125400514410       55.10050666947617
C           30.82188689162741       94.45322208112849       56.31739609612403
C           30.32642189094615       93.20571620327289       56.64625007401486
C           29.32234053107419       92.90308661886083       55.63198364803728
C           27.46522117428877       91.54617697200496       54.71676712494373
C           26.52881546539306       90.46225201746610       54.83850975400179
C           25.65221429387270       90.58413892153241       53.77462520558878
C           26.12675048503342       91.72680767279090       53.00936765797189
C           26.13821354904118       93.08841297225725       50.93312507664253
C           25.71149865953173       93.33160566767205       49.57581641058577
C           26.37598191951705       94.45149995338130       49.16225813469175
C           27.21881217318203       94.85921329498925       50.26337720442550
C           28.03108129420885       95.98143522112500       50.28484647675349
H           27.94434229203879       96.66343036995615       49.45232796475457
C           30.50053070205261       95.97547737719046       54.39481196935510
H           31.18347589769492       96.65913342518132       54.87369761328137
C           28.50458342512770       91.78652362262306       55.60934536981991
H           28.66616798001432       91.03429511723446       56.36751077390134
C           25.65053211930381       92.08766551079384       51.75648350323575
H           24.83170824302375       91.50788208977404       51.35706881493371
C           31.36995199683941       98.55407167919802       52.98997237944373
H           30.94610362013949       99.06637310822745       53.85550075921721
H           31.59417067739286       99.29309969394816       52.22722771699834
H           32.30190251231146       98.08518441979771       53.30398604118629
C           29.70876237726782       98.60732772787401       50.24209855324158
H           28.74417621666966       98.65857686509307       49.74293605502687
H           30.46946532053872       98.39856354193134       49.48850666015828
H           29.91771637702101       99.58108789771146       50.67912726899139
C           31.85305561321244       95.32109865459681       56.96108337776859
H           31.50810102890156       96.35457076529880       57.01379839857899
H           32.77339131814971       95.31096710157240       56.37262037561005
H           32.08124384479454       94.99914726701638       57.96827273784209
C           30.67533228934337       92.30381535097543       57.71086497396846
H           30.04009543014632       91.42565292745699       57.77577723631497
C           31.66737729356173       92.39985960051739       58.57225729321041
H           32.36655325368071       93.21656288052267       58.57839615569711
H           31.83674142797982       91.64628274100480       59.32309502695156
C           26.52471884007822       89.51690253800021       55.99801861858121
H           26.51958054635731       90.07269093712809       56.93748096292648
H           27.41281577465639       88.88159669442749       55.99758241310008
H           25.64941456548910       88.87869095872664       55.98668825838703
C           24.47055394371176       89.84952234292059       53.39463586823604
H           23.86717974699314       90.35212120498934       52.64201247449569
C           24.04254812587249       88.68268670527884       53.82173261645404
H           24.56905031644404       88.09263466349401       54.55098502064504
H           23.12843671831488       88.24717391324381       53.45048220709487
C           24.76661303592088       92.48589335524795       48.78283947765880
H           23.72940001142979       92.70396747195646       49.04304965216414
H           24.94091668534180       91.42610509128562       48.96573025981611
H           24.89435404192692       92.67192359316250       47.71877624026421
C           26.29653728003039       95.10136422075095       47.82100908001605
H           25.31581385707217       94.93883718197723       47.37994680225211
H           27.04643550467732       94.68370753238663       47.14635531357956
H           26.46732627307327       96.17273818842494       47.89165659581175
O           26.87747468952414       95.13718008159236       53.89851906354474
H           26.10042044005051       94.65720596061888       54.18669967896904
H           26.94322107277909       96.07937251680647       54.04364827217630
C           30.79119225407800       90.22107458003714       49.76291391288526
H           31.12325899557423       89.27191818403539       50.17632563723492
H           31.57186922561551       90.60906136007067       49.10982216064186
H           29.89694383149637       90.05337158500603       49.17073352878215
N           31.24615403723943       91.54528221339548       51.88510263866250
H           32.14671823158194       91.16061434601549       52.11221530451169
C           30.45721785360900       91.19725009920775       50.82740049715549
C           30.59927535793257       92.48743423034271       52.60082549064726
H           30.97929570518542       92.95263000298823       53.48054459008161
N           29.43319108605856       92.74714359412238       52.05672962767466
C           29.32752590551769       91.96496030010709       50.95704501258152
H           28.46035874616266       91.99400615351458       50.33291565820705
78
 energy: -116.038929609217 gnorm: 0.025120187947 xtb: 6.7.1 (edcfbbe)
Fe          28.19465592319431       93.93685262547574       52.96775183271971
N           29.13761818540841       95.60845733537838       52.40419102174024
N           29.26628074787764       93.89846001111603       54.69348780870283
N           27.19726509772199       92.31566108555323       53.60777532313787
N           27.08317132417656       94.00358849676537       51.31397249451462
C           28.91224535540825       96.33499249936061       51.27559964857885
C           29.69805727982132       97.55413220243931       51.29223204283643
C           30.40556240752477       97.54037520746229       52.45382509535136
C           30.03316228377126       96.32471871804749       53.14095852086125
C           30.17032004935685       94.83421153081223       55.09066448279545
C           30.82423015651153       94.44571805933207       56.31229026670113
C           30.32668393160894       93.20680566293647       56.64047866403367
C           29.32070936589720       92.90585618103204       55.62158636556927
C           27.46846748571766       91.55934409473883       54.70997555532021
C           26.52228551838152       90.47763264728988       54.83639096986947
C           25.65597418668869       90.59037109286609       53.77544911424924
C           26.13236178181898       91.73142545470918       53.00107037693073
C           26.14645794237124       93.08932952029448       50.94092955782590
C           25.71476864807730       93.33725163891233       49.58058347412920
C           26.37687624228194       94.45081786593477       49.16490997991385
C           27.22765723749336       94.85783879371226       50.26521793428132
C           28.03554885996267       95.97948951717966       50.26867121638865
H           27.96812661496530       96.64334188295192       49.41871305075984
C           30.50089407488835       95.98205850501866       54.39127714006103
H           31.19974138691963       96.65896651187141       54.85782331828051
C           28.50052802965987       91.79413487906157       55.60799238369646
H           28.64269416439648       91.05180553057932       56.38011697204374
C           25.65211750060701       92.08423355141969       51.75075616527630
H           24.84416086153573       91.49634700428273       51.34034875615821
C           31.36458964782421       98.55291067371526       52.98152138182086
H           30.94617360375471       99.06517122093085       53.84864709547577
H           31.59624536591814       99.29521184364971       52.22426771133510
H           32.29486394992913       98.08126849724334       53.29213322714924
C           29.70538766300964       98.60494526888361       50.23719478359117
H           28.74228590790629       98.66340990311984       49.73832327019822
H           30.46489858978874       98.39315625556441       49.48460782870546
H           29.92242495602872       99.57778783722331       50.67103952893124
C           31.84457327945351       95.31311508852541       56.96638105497938
H           31.49476497806117       96.34395007980592       57.00618717728216
H           32.77275705941195       95.29963715046016       56.39219004403599
H           32.06204255875532       95.00353777731753       57.97956357520614
C           30.66693886260705       92.30220926884172       57.71424704681134
H           30.02327821170275       91.43307982882766       57.78230051935364
C           31.67428835353045       92.38602395911801       58.57666720675910
H           32.39270740347195       93.18448814523309       58.57948252915651
H           31.82938748033786       91.63437876050084       59.33082068249091
C           26.52231185095903       89.53370744273325       55.98977292975045
H           26.52986999059596       90.08773975872667       56.92863683944650
H           27.40703800589728       88.89621621097108       55.97358467068690
H           25.64612066722553       88.89797924515064       55.98771675191720
C           24.47086716319704       89.85020277894510       53.40054255121623
H           23.86150659083265       90.35625836382479       52.65992427510126
C           24.04576283480236       88.66674793972842       53.82837878806300
H           24.57987314965179       88.05874898395911       54.53576284161468
H           23.12743024756521       88.24068390474982       53.46115020428248
C           24.76768758993253       92.49295748058324       48.79693433520288
H           23.73225746296007       92.70975969089486       49.06055956327313
H           24.94614867452162       91.43572393086218       48.98113538525318
H           24.89129242463796       92.67539858301929       47.73263721069830
C           26.29687926955131       95.10399539365413       47.82756824900943
H           25.31852678111631       94.94350105256201       47.38201297700056
H           27.04845164057454       94.69055019984286       47.15378927532204
H           26.46782484731024       96.17397291311083       47.89927461140072
O           26.83487625070445       95.14333823234732       53.93178430445370
H           26.03560247020952       94.69730827585073       54.22413970323435
H           26.88799006853954       96.09168579097890       54.07099611458409
C           30.79358883069982       90.21413224844061       49.75937049479080
H           31.12985662991348       89.27004557145256       50.18051257264354
H           31.57869877731827       90.59796839057833       49.10996739494208
H           29.90795522987801       90.03692200816180       49.15925767953065
N           31.27228443936096       91.52912569740307       51.86107736207748
H           32.17495703940153       91.13537112290747       52.07119818994131
C           30.45331403750378       91.19466582540142       50.81557973810155
C           30.63895265618883       92.47348162933544       52.59427108169970
H           31.03956910737267       92.92937623033551       53.47016785056145
N           29.46105813065525       92.75249395441867       52.07991603145837
C           29.33493520045745       91.97046196192339       50.97184743828348
H           28.46028142492835       92.00497952165176       50.35791838844872
78
 energy: -116.043652849779 gnorm: 0.023236490767 xtb: 6.7.1 (edcfbbe)
Fe          28.19360664495687       93.93857472694489       52.97557781128101
N           29.10684521563782       95.62058108054867       52.41488325999698
N           29.27269382719452       93.90032348627794       54.68342006362305
N           27.20394901417984       92.31754523153123       53.59281316929643
N           27.09618375580188       94.00154578330883       51.31910255717111
C           28.89566922609180       96.33888915018466       51.27907553964114
C           29.68823984460173       97.55607003968721       51.28975727162707
C           30.39139113527396       97.54432851278393       52.45053240494526
C           30.01008314951915       96.33149230810170       53.14628926411773
C           30.17760517905754       94.83375853045649       55.08000232094332
C           30.82949148718629       94.43791172228755       56.30500508276686
C           30.32874912081801       93.20418202797499       56.63136993352297
C           29.32151352731155       92.90865827266886       55.61114541148638
C           27.46827527356131       91.57438345865602       54.70314514810811
C           26.51744861643044       90.49451840578851       54.83521326939710
C           25.66024102822446       90.59566538655928       53.77173950624223
C           26.14006686557246       91.73073450399160       52.98902193418880
C           26.15682838172339       93.09110616196503       50.94689257906343
C           25.71834588387796       93.34238351805749       49.58768936857717
C           26.38143725928140       94.45082042930201       49.16915261464955
C           27.23677932324956       94.85449763383461       50.26811167234953
C           28.04423158935953       95.97441904942636       50.25340528949833
H           28.00303469751693       96.61410766802881       49.38201858045294
C           30.50303652364176       95.98658818948618       54.38652235041457
H           31.21913523979610       96.65641660161209       54.83804645818466
C           28.49211474796221       91.80526113908567       55.60859802428148
H           28.61363754925618       91.07390173661703       56.39440638938464
C           25.65806533515097       92.07616880042916       51.74018857122790
H           24.85881381107467       91.48389599678910       51.32060126667074
C           31.35863310934140       98.55124239349384       52.97410217181535
H           30.94574184637919       99.06385058603149       53.84449496969368
H           31.59233860303074       99.29528856973319       52.21689226944820
H           32.28864450364276       98.07194521389479       53.27720275726053
C           29.70052714727894       98.60132438514809       50.22762560286211
H           28.73574688322159       98.66736292793470       49.73114729814582
H           30.45779305945353       98.38000165256710       49.47403285465762
H           29.92886843998147       99.57464852745265       50.65853195381241
C           31.83775523561220       95.30549798120681       56.97587242795520
H           31.48438156878115       96.33629603208689       56.99900745309397
H           32.78050916939191       95.28498396283581       56.42411414538676
H           32.02775763010580       94.99661046351736       57.99745040386521
C           30.65854032296345       92.29926484923267       57.71076585810889
H           29.99602946081915       91.44826474104975       57.80201073942861
C           31.67692134609879       92.37028887194755       58.56962932419641
H           32.41453002557694       93.15173656009122       58.56182954580633
H           31.80928526581115       91.61851428385235       59.33001441476280
C           26.52019004829535       89.55121217714787       55.98673808518538
H           26.54627161457969       90.10372790304612       56.92665396929299
H           27.39956081666731       88.90581654361107       55.95006717616840
H           25.63469575416365       88.92601113415643       55.98811253857688
C           24.47442516320466       89.85125145069802       53.40585145707098
H           23.84227548499396       90.36131362017238       52.69046004229860
C           24.06401282746111       88.65478792567939       53.82708599622105
H           24.60924672732181       88.03939708557941       54.51835194348427
H           23.13342806495657       88.24375618598934       53.47121629086624
C           24.76410641937247       92.49805293848067       48.81463078836235
H           23.73103451694108       92.71634135601798       49.08804527783730
H           24.94732609866903       91.44133386898692       49.00072222243482
H           24.87993643060311       92.67995189864158       47.74832287584797
C           26.30000505738100       95.11027550488170       47.83492126264570
H           25.32200527698522       94.94807314628584       47.38660938165587
H           27.05537357988066       94.70137978434944       47.16111588118864
H           26.46610691479922       96.18153303931180       47.91261691320643
O           26.77886833399232       95.14808600263332       53.98441704106617
H           25.94419443672487       94.75361500506368       54.26441779403202
H           26.80512095892130       96.10292895738958       54.09841843865495
C           30.79571301158576       90.20494410960639       49.75283121241120