78
 energy: -115.892545165286 gnorm: 0.269203304011 xtb: 6.7.1 (edcfbbe)
Fe          36.87200000000000       29.01000000000000        6.98900000000000
N           36.74100000000000       29.56800000000000        8.82700000000000
N           35.08799999999999       29.91300000000000        6.67000000000000
N           36.95300000000000       28.57900000000000        5.04300000000000
N           38.72900000000000       28.32300000000000        7.30600000000000
C           37.48900000000000       28.98600000000000        9.83200000000000
C           37.02600000000000       29.51600000000000       11.09500000000000
C           35.92400000000000       30.24200000000000       10.86400000000000
C           35.65299999999999       30.14300000000000        9.45500000000000
C           34.28500000000000       30.52000000000000        7.60800000000000
C           33.17200000000000       31.15400000000000        6.93300000000000
C           33.31300000000000       30.92500000000000        5.64300000000000
C           34.61000000000000       30.31500000000000        5.43800000000000
C           36.08100000000000       28.94900000000000        4.05000000000000
C           36.80100000000000       28.92100000000000        2.78500000000000
C           37.96200000000000       28.28300000000000        3.01600000000000
C           37.98799999999999       27.94900000000000        4.42200000000000
C           39.40000000000000       27.59700000000000        6.35800000000000
C           40.34200000000000       26.71400000000000        6.99700000000000
C           40.36699999999999       27.05500000000000        8.28300000000000
C           39.28799999999999       28.00300000000000        8.50900000000000
C           38.65000000000000       28.24900000000000        9.70400000000000
H           39.09100000000000       27.83400000000000       10.61000000000000
C           34.64899999999999       30.88600000000000        8.88300000000000
H           34.17200000000000       31.71100000000000        9.40500000000000
C           35.02800000000000       29.80500000000000        4.23300000000000
H           34.47300000000000       30.10800000000000        3.34500000000000
C           39.14300000000000       27.52800000000000        5.01800000000000
H           39.91700000000000       27.10600000000000        4.37700000000000
C           35.37800000000000       31.39399999999999       11.71500000000000
H           35.66500000000000       32.36400000000000       11.25400000000000
H           35.80700000000000       31.34100000000000       12.73800000000000
H           34.27000000000000       31.33200000000000       11.76400000000000
C           37.81499999999999       29.38600000000000       12.39300000000000
H           38.71900000000000       30.02900000000000       12.34300000000000
H           38.13100000000000       28.33100000000000       12.53600000000000
H           37.18699999999999       29.71300000000000       13.24900000000000
C           31.98200000000000       31.85400000000000        7.62200000000000
H           32.31400000000000       32.28200000000000        8.59200000000000
H           31.17200000000000       31.11800000000000        7.81200000000000
H           31.60500000000000       32.67600000000000        6.97600000000000
C           32.22300000000000       31.06200000000000        4.56600000000000
H           32.48900000000000       31.22700000000000        3.51200000000000
C           30.93400000000000       30.98200000000000        4.90000000000000
H           30.63800000000000       30.81800000000000        5.94600000000000
H           30.15100000000000       31.07900000000000        4.13300000000000
C           36.04000000000000       29.04100000000000        1.46500000000000
H           35.49300000000000       30.00800000000000        1.43900000000000
H           35.30799999999999       28.21000000000000        1.37700000000000
H           36.75500000000000       29.00800000000000        0.61500000000000
C           39.06100000000000       27.70800000000000        2.08900000000000
H           40.07500000000000       27.61000000000000        2.50100000000000
C           38.91099999999999       27.31300000000000        0.82800000000000
H           37.92900000000000       27.37600000000000        0.33600000000000
H           39.76700000000000       26.91800000000000        0.26100000000000
C           41.20600000000000       25.69200000000000        6.25100000000000
H           41.97600000000000       26.22400000000000        5.65200000000000
H           40.56999999999999       25.09100000000000        5.56700000000000
H           41.71399999999999       25.02600000000000        6.98100000000000
C           41.12199999999999       26.41300000000000        9.42800000000000
H           42.06099999999999       25.95900000000000        9.04500000000000
H           40.49900000000000       25.61700000000000        9.88900000000000
H           41.37800000000000       27.18300000000000       10.18700000000000
O           37.46600000000000       30.67299999999999        6.64300000000000
H           37.47200000000000       31.13100000000000        7.48300000000000
H           37.70800000000000       31.01200000000000        5.85700000000000
C           35.23100000000000       23.60600000000000        6.89000000000000
H           34.59700000000000       23.28500000000000        6.03600000000000
H           34.83000000000000       23.15900000000000        7.82500000000000
H           36.27100000000000       23.25600000000000        6.71800000000000
N           34.05900000000000       25.82200000000000        7.19700000000000
H           33.13500000000000       25.45300000000000        7.30100000000000
C           35.21000000000000       25.08700000000000        6.99300000000000
C           34.43099999999999       27.10100000000000        7.22500000000000
H           33.73600000000000       27.92700000000000        7.37300000000000
N           35.74200000000000       27.20500000000000        7.04900000000000
C           36.25900000000000       25.94400000000000        6.90000000000000
H           37.31700000000000       25.77600000000000        6.74300000000000
78
 energy: -115.977169464428 gnorm: 0.125315893221 xtb: 6.7.1 (edcfbbe)
Fe          36.82673022499546       28.99184469463615        6.97116386477337
N           36.70591961909312       29.49741817958941        8.83714994285128
N           35.07895816820175       29.93834592092816        6.66236113729802
N           36.96035644119461       28.57763875966404        5.03644620280060
N           38.69414158503205       28.28194849171207        7.29876990651255
C           37.49795967878730       29.00035719804619        9.84615461570308
C           37.04637292196886       29.51998577284078       11.11578784005360
C           35.95401568740942       30.28185098014161       10.87542903151973
C           35.69115109456143       30.18130279846882        9.46645931671074
C           34.29234699157228       30.57295669546622        7.58358556253762
C           33.14136582119524       31.16146165383992        6.93496193766514
C           33.27949458705909       30.92811335464361        5.61251668547033
C           34.55102692831147       30.25554650090115        5.43751360896520
C           36.12761755386487       29.00199649814139        4.04299318219481
C           36.77791461642023       28.85202106859743        2.74806296464217
C           37.96346969145664       28.22767148084834        2.97856770821893
C           38.02677202281850       28.01388361058468        4.41106647432541
C           39.38955827630831       27.56968115666059        6.37000276114648
C           40.37503616337576       26.72220549733382        6.99572864122830
C           40.35870541111017       27.03758136997099        8.30703578164401
C           39.26248664569215       27.97324319635759        8.49980283804699
C           38.65669181173244       28.26056446905312        9.70576164183815
H           39.09825738181019       27.84958951513193       10.60559981016985
C           34.65811412036580       30.88511057144970        8.87515690712977
H           34.15168576025203       31.67443453467619        9.41314998283910
C           35.01699322031224       29.79973526526130        4.22675492546031
H           34.47567098507550       30.11106775899142        3.34324232374344
C           39.15690990862657       27.53249427854005        5.01969423399235
H           39.91566487134892       27.08992319948103        4.38988429751547
C           35.37233609601358       31.38404652056908       11.72305282328853
H           35.65737962984946       32.34392103340537       11.26855253604612
H           35.79244072103769       31.34205110556571       12.73136713874904
H           34.27922702270104       31.33247522282550       11.77108157568962
C           37.81428083565283       29.38138650522351       12.39652963551896
H           38.70867088903094       30.01589664841496       12.34854071658681
H           38.12692591352376       28.34285570664741       12.54449403640650
H           37.19891833895009       29.70367490857838       13.24259965684553
C           31.99129060613361       31.85248696007442        7.62927664804939
H           32.31068085420264       32.27910732299603        8.58466453225834
H           31.18579191223682       31.13442072610812        7.82623990678962
H           31.60971692531027       32.65766450673215        6.98913205280305
C           32.22596984344732       31.08017232281373        4.57432010059408
H           32.50516133215834       31.22356332197695        3.53209821765365
C           30.93844950188112       30.98744519934010        4.89216606528570
H           30.62793336388448       30.81133065922247        5.91340571845340
H           30.16117450900543       31.07442829798878        4.13975913935298
C           36.04125048784395       29.04932900600151        1.45510408322326
H           35.49870678736137       30.00119416634188        1.43318469752319
H           35.31870230820095       28.22807618979992        1.36894595201050
H           36.74099302088519       29.01604584340823        0.61696246173754
C           39.04919063502061       27.72372347947552        2.08127906073819
H           40.04867329195861       27.62716983792761        2.50824109033374
C           38.90375486514961       27.31924036669616        0.82745828115087
H           37.94240567148611       27.36354524298325        0.33072546356351
H           39.74733026240309       26.92370211403599        0.26752197839105
C           41.20879048449827       25.70412085192852        6.25743323786177
H           41.97142817796894       26.21516805755091        5.65747250597165
H           40.58262879549208       25.10435861195915        5.58348100902920
H           41.70676293298528       25.03567383019606        6.96804564108413
C           41.12505296463697       26.41276857920044        9.43105762291784
H           42.05242226752185       25.96484916583291        9.05615463520429
H           40.51397230162095       25.62610327716436        9.89131498979779
H           41.37469152207014       27.16848066253790       10.18332433113263
O           37.50099633565964       30.68733078262589        6.65504595102628
H           37.48817664030777       31.17045826787865        7.48346547152450
H           37.73788118528309       31.06124568526161        5.82625772902613
C           35.22419458414331       23.59520479208437        6.88783179098158
H           34.60180810106453       23.27355008972819        6.04456232887526
H           34.83472903260960       23.14989662963454        7.81129108505073
H           36.25134426259838       23.25568442457583        6.72274392122526
N           34.07123627651959       25.81211560155500        7.19410095275590
H           33.14029087990819       25.44582535783207        7.29577044651894
C           35.21110611147622       25.07243864334544        6.99023647439048
C           34.44506311974357       27.10187504728765        7.23331588253147
H           33.75557392054877       27.91917334284459        7.37199372524169
N           35.74566909303257       27.21116850443760        7.08355276089805
C           36.24616117370145       25.95200198262401        6.90900526348697
H           37.29727602132748       25.78558012480377        6.74803454742759
78
 energy: -116.015505006513 gnorm: 0.055612397229 xtb: 6.7.1 (edcfbbe)
Fe          36.78173600290071       28.97497002161125        6.95283487378717
N           36.67275211694497       29.43563970993607        8.85047647334137
N           35.06886201986934       29.96030051394283        6.64507966911487
N           36.98221096554715       28.60804131316158        5.02118161119656
N           38.65074847466904       28.21867200002846        7.29250071772029
C           37.49351147357468       29.00292312022023        9.85722489197145
C           37.06774221467981       29.53378651251457       11.12832712721494
C           35.99131202688218       30.33038206216017       10.87736430080374
C           35.72604306381427       30.21268404926048        9.47210430590084
C           34.30083432652978       30.62011046197487        7.55464480131674
C           33.12416200258654       31.17103912895521        6.93211746277266
C           33.24495182886553       30.90963947734804        5.59016192279084
C           34.49778160219490       30.19762986342059        5.43180403172773
C           36.16928592269316       29.05134212230413        4.03116156905294
C           36.76247517687842       28.80794003382378        2.72377012406705
C           37.96928325946173       28.19914443096201        2.95168948883742
C           38.06298641529386       28.07903605087141        4.39878482017248
C           39.37336091850973       27.53153601321896        6.37854367626778
C           40.39945990381418       26.72584997042749        6.99699116716802
C           40.33987359442666       27.01499209561146        8.32671178091942
C           39.21992656879606       27.92293715162289        8.49272504223990
C           38.65067433321025       28.25748910397668        9.70755171218557
H           39.11496984424910       27.87858307486921       10.60582950644480
C           34.66690012572627       30.86801228794299        8.86446002389446
H           34.12684470702684       31.61797088364729        9.42539471741058
C           35.00510409732996       29.78675893262546        4.21502886470603
H           34.47287126198646       30.10534983650298        3.33514332183110
C           39.16368339202437       27.52882571572392        5.01750302788593
H           39.91371233828287       27.07057016351165        4.39780074986314
C           35.37338409834759       31.38124702770109       11.73247286248372
H           35.64211710643234       32.34433492035011       11.29256189187955
H           35.77787250437621       31.34236729622451       12.73696045652144
H           34.28951690705441       31.31986010140827       11.77591871043349
C           37.81579171510707       29.37915325677249       12.40117287020601
H           38.70911653449447       30.00338019911250       12.36325453058249
H           38.12342664964113       28.34915840229813       12.55499347130461
H           37.20786246182667       29.69655329465782       13.24241534247338
C           32.00451941607922       31.85553339844973        7.63223425926094
H           32.31785407765510       32.28186896119071        8.57903501408793
H           31.20017097558223       31.14954604630708        7.84304531459953
H           31.60685332987206       32.64779598868246        6.99995218034307
C           32.22835101678390       31.07575944528994        4.58331279347561
H           32.52613559732220       31.22408677664771        3.55335284179771
C           30.93493844811146       30.99054463724444        4.87942999431390
H           30.60686441565973       30.80410777437429        5.88273314468846
H           30.16560082886363       31.07874537787127        4.13416381955548
C           36.04394832331259       29.04742308713131        1.44851189395888
H           35.51025383856901       29.99372832040698        1.43810845737027
H           35.31533133784022       28.24275591898981        1.33881733364064
H           36.73161871690731       29.02513729161499        0.61320431898466
C           39.02068232445125       27.72097034305975        2.08258106936721
H           40.01314191510819       27.65046270008726        2.51730438127053
C           38.88868998972986       27.31852300477295        0.82402226271733
H           37.94462062800014       27.34504630223035        0.31660387277879
H           39.73110606370976       26.94256542066625        0.26600538386597
C           41.21896412137634       25.71885877528065        6.26581582549912
H           41.97749834638704       26.21000168476296        5.65832193831042
H           40.59187638804733       25.12186659437486        5.60213072582719
H           41.70933529780823       25.04578666859452        6.96300393884784
C           41.12521118876126       26.41291601920749        9.43595537346402
H           42.04548103125364       25.97161753113809        9.06293970710230
H           40.53047062702911       25.62915744030027        9.90498856225576
H           41.37332961580653       27.15969234200039       10.18437474978642
O           37.58034553006892       30.70340535564235        6.67080407337953
H           37.50733369843161       31.23788082212873        7.47054254985081
H           37.75702169441446       31.12045294608077        5.82041166303750
C           35.21963102870757       23.58652040406487        6.88423912355775
H           34.60335933351598       23.26078293289442        6.04973371965463
H           34.83641028122621       23.14103735459043        7.79991854087707
H           36.23780901747197       23.24974753544641        6.72537513695651
N           34.08410340741957       25.80617006272780        7.19088719384420
H           33.14852358384486       25.44304011268239        7.28945141759785
C           35.21626962467271       25.06379302064545        6.98683150296308
C           34.45903170048058       27.10455337508943        7.24900577423218
H           33.77156330273844       27.91331827748553        7.38116622048830
N           35.75261519156810       27.22229277868506        7.10524253772838
C           36.24063322401081       25.96335730572436        6.92552949669053
H           37.28535356535220       25.79493926473374        6.75924997348145
78
 energy: -116.032532235230 gnorm: 0.058752810829 xtb: 6.7.1 (edcfbbe)
Fe          36.76861311141642       28.97720721837474        6.94329345084218
N           36.65439793388620       29.40080285812160        8.86618535034618
N           35.07390037140031       29.98045543408707        6.62496865531579
N           37.00149345756888       28.64624065330397        5.00812516496519
N           38.60589304888403       28.14369369860231        7.29533311330725
C           37.48618178272739       28.99435075696039        9.86673681537256
C           37.08874843673275       29.55657939321127       11.13381013458326
C           36.02526044930875       30.37018810841967       10.87513154496907
C           35.74577728512718       30.22767730440672        9.47292579976963
C           34.31415243086461       30.64612440630964        7.53496932088062
C           33.12087296162984       31.16961249128148        6.92983578500384
C           33.21919654436141       30.87637460338626        5.58446054370282
C           34.46809648761017       30.16308790967932        5.42085991526526
C           36.18359443707315       29.07846212248144        4.01940796906017
C           36.74444454178790       28.78298068777149        2.71326318574310
C           37.96067205351954       28.18585120330923        2.94072731215276
C           38.08312015099487       28.11747946449726        4.39162119729324
C           39.35382206123121       27.48969834881411        6.38196842860831
C           40.40320460759430       26.71502597811491        7.00301850403080
C           40.31620474328997       26.98545846902266        8.33862504601734
C           39.17304955740948       27.86136681845700        8.49562400466124
C           38.63684270097128       28.23881889970578        9.71382674190751
H           39.14014628149106       27.91321185337323       10.61462206425553
C           34.67568270707743       30.85153468370977        8.85619852758600
H           34.09387643548146       31.55541640411856        9.44268659670987
C           34.99214753795599       29.77287154749291        4.20217926726550
H           34.45512841594830       30.08385235724807        3.32315081623044
C           39.16314883731533       27.52274629550052        5.01467765136195
H           39.90865191606102       27.04688303143223        4.40250013967633
C           35.37559572154583       31.38702801254011       11.74509303799526
H           35.61628031038904       32.36888116294367       11.33118942893310
H           35.76512695918766       31.34052476721712       12.75517197522205
H           34.29330777245202       31.29343056113012       11.77922295793530
C           37.82323919910476       29.38114606030473       12.41150694143159
H           38.72523461145921       29.99315178144636       12.39149815775275
H           38.11795928198433       28.34738228094754       12.56493934868603
H           37.21286414932199       29.69531960257097       13.25144788159312
C           32.01608099583723       31.86291104587138        7.63914183253930
H           32.34178793597953       32.29921974870160        8.57708260372740
H           31.21377724439951       31.16138675611053        7.87546737912283
H           31.59907509037793       32.64518651573092        7.00741026444209
C           32.21590409444855       31.06910996572039        4.57871775195885
H           32.53899175927201       31.22074195324227        3.55684683048441
C           30.91513300774630       30.99768668708817        4.85097896355699
H           30.56768608655948       30.78581495725972        5.84346873990079
H           30.15718007716275       31.09584303698101        4.09886638762972
C           36.04119244039457       29.04636961243439        1.43516809467264
H           35.51783540201596       29.99825335111963        1.44388745320178
H           35.30160372552363       28.25599854844676        1.28976394845698
H           36.73103274867749       29.03912387663494        0.60055847995320
C           39.00153055772675       27.72620257278119        2.06697319724841
H           39.98863606759342       27.66870480570032        2.51116450714938
C           38.87825397253003       27.32412409401811        0.80513959296916
H           37.93342426509277       27.31092175395169        0.29699376045229
H           39.72461526310912       26.95820943099459        0.25160612157343
C           41.23797920552697       25.72743478584660        6.27296408876472
H           41.99383786718328       26.21396306908362        5.65939999807076
H           40.60714244036037       25.13137290107691        5.61412566409553
H           41.72981177036183       25.05304278446269        6.96603571507548
C           41.12381515800254       26.40903312128568        9.44555940771724
H           42.04550147556856       25.97824255981019        9.06689091611343
H           40.54992964982863       25.62113083413749        9.93398614677376
H           41.37177384465104       27.16127211615801       10.18806193315020
O           37.69788482570920       30.72241714094917        6.69109316701789
H           37.51161898735150       31.32125287367723        7.44925974306923
H           37.76806624669167       31.18734233507530        5.82624453015376
C           35.21971258881631       23.58466095087801        6.88210590697923
H           34.60251168498460       23.25404968674094        6.05064401963850
H           34.83587382466381       23.13484427459916        7.79495464248347
H           36.23419408225439       23.23979635121882        6.72474685009698
N           34.09442386031848       25.80663542446963        7.19238227409603
H           33.15820197797820       25.44412004517288        7.28619625718702
C           35.22533777069612       25.06472583324624        6.98715188700354
C           34.46706207166225       27.10808191937820        7.26309467709805
H           33.77835735454601       27.91259947733114        7.39798478118696
N           35.76064382706563       27.23407074180626        7.11780869120476
C           36.24507239168774       25.97384874514721        6.93878617296852
H           37.28757706747882       25.80333608536655        6.77348384458298
78
 energy: -116.042630762608 gnorm: 0.046193511815 xtb: 6.7.1 (edcfbbe)
Fe          36.77333930916136       28.98689298333303        6.94060967077147
N           36.64584238486941       29.38705128615187        8.88262695639537
N           35.08864132221301       30.00294256390053        6.60579066909538
N           37.01614791823418       28.68372770913038        4.99732428657585
N           38.56097066630680       28.07166015591429        7.30119038429147
C           37.48429309744323       28.99108029080556        9.87583972908211
C           37.10931154365338       29.58535944085819       11.13819129635914
C           36.05461152634515       30.40443883294592       10.87416955669857
C           35.75750176467853       30.23736690336131        9.47327968035162
C           34.32587207519497       30.65785284529649        7.52203122960317
C           33.11967151847864       31.15913690192993        6.92733142422662
C           33.19808129525727       30.84019828629757        5.58669161694786
C           34.45327111083195       30.14620866714115        5.40990982198819
C           36.18434837700083       29.09550669282992        4.00677146454431
C           36.72814202148691       28.76959649244383        2.70760639970841
C           37.94727801859472       28.18047390341472        2.93688635671974
C           38.09114348918875       28.13756248452105        4.38491861347735
C           39.32942377557372       27.44801994818343        6.38200524537631
C           40.39330402866423       26.69681248043569        7.01022311039730
C           40.28860103747956       26.95133320126383        8.34583795156904
C           39.12666812653109       27.80016354073633        8.50197042286879
C           38.62292837591251       28.21943850699580        9.72066417542054
H           39.16217230061670       27.94219020965143       10.61961265494411
C           34.67880136919899       30.83449134496925        8.85132704592011
H           34.06318158965379       31.49588107070205        9.45421343647597
C           34.97911189693897       29.76062326528184        4.19056217603263
H           34.42349896391741       30.04481096202176        3.31182036349201
C           39.15383165893773       27.51294629060561        5.01217142399482
H           39.89874230619863       27.02759485407759        4.40435294143119
C           35.37673700302013       31.39400274318300       11.75860768582692
H           35.58377114633480       32.39828289792388       11.37578025397116
H           35.75446481395991       31.33415037278044       12.77476210972193
H           34.29515641079793       31.25848258966408       11.78124951838526
C           37.83234590091374       29.38791866690644       12.42368593738135
H           38.74645339509894       29.98481496799816       12.42645180774388
H           38.10795380691312       28.34557942846803       12.56959410240439
H           37.21631220055612       29.69913636743135       13.26272716262153
C           32.02394519704863       31.86683682444494        7.64317376778002
H           32.37239377801102       32.32206647232206        8.56710080878309
H           31.22558822038847       31.16856041713577        7.90934516079687
H           31.59213384523495       32.63900863778274        7.00761423937933
C           32.19865561122181       31.04858165944174        4.57067326888007
H           32.54783671090131       31.22031060310275        3.55903757375144
C           30.89227224962588       30.99038666396762        4.81778726255697
H           30.52330366898405       30.77735827940301        5.80443253986317
H           30.14831036779857       31.12814512030018        4.05442859353860
C           36.03828809950152       29.04721896256632        1.42077991707061
H           35.52450976515647       30.00620420519634        1.44590263335559
H           35.29051393443616       28.26970192145895        1.23792269756170
H           36.73947882798289       29.05487297821603        0.59217942409669
C           38.98161666125026       27.71877293612018        2.04955171293489
H           39.97236399928870       27.69738926394290        2.49008434381433
C           38.85911774676140       27.31061678290621        0.78926399321390
H           37.91517087620219       27.28056204244962        0.27741214070172
H           39.71856108077665       26.98612513405470        0.22647656140628
C           41.25970747570386       25.73318961834129        6.27968717206725
H           42.01044942767539       26.23129003369227        5.66797955768710
H           40.63700145431209       25.13021901043102        5.61858206347708
H           41.76186081706698       25.06407854392900        6.97217743419170
C           41.11954691186408       26.40322654615180        9.45478930010580
H           42.04593181275469       25.98497311253441        9.06970610703268
H           40.57058909341545       25.61085283890899        9.96914936898579
H           41.36680148146717       27.17055182847955       10.18509583788015
O           37.79157443854146       30.75835320208380        6.71322712882529
H           37.56251600229604       31.37704426139393        7.43266955236593
H           37.79502721376036       31.24552982676089        5.85555645050618
C           35.22312123141951       23.58759490136279        6.88240202692519