78
 energy: -115.934131003534 gnorm: 0.351112226825 xtb: 6.7.1 (edcfbbe)
Fe          -5.57900000000000       57.13800000000000      111.76900000000001
N           -6.26700000000000       56.23699999999999      113.48699999999998
N           -6.55300000000000       58.88499999999999      112.37700000000000
N           -4.80600000000000       58.11100000000000      110.16199999999999
N           -4.51700000000000       55.42800000000000      111.25399999999999
C           -6.05600000000000       54.95600000000000      113.83600000000000
C           -6.62800000000000       54.69500000000000      115.07400000000000
C           -7.24600000000000       55.87899999999999      115.49299999999998
C           -6.95900000000000       56.79500000000000      114.51000000000001
C           -7.18700000000000       59.10300000000000      113.53100000000001
C           -7.74900000000000       60.37700000000000      113.57699999999998
C           -7.34400000000000       60.98300000000000      112.39800000000000
C           -6.52400000000000       60.06199999999999      111.74900000000000
C           -4.97100000000000       59.40900000000000      109.83799999999999
C           -4.21700000000000       59.75400000000000      108.71799999999999
C           -3.50100000000000       58.58700000000000      108.40899999999999
C           -3.92700000000000       57.60800000000000      109.29100000000000
C           -3.81200000000000       55.23599999999999      110.13900000000000
C           -3.53200000000000       53.91000000000000      109.94799999999999
C           -4.07300000000000       53.24799999999999      111.04800000000000
C           -4.65900000000000       54.22600000000000      111.83900000000000
C           -5.33700000000000       54.02600000000000      113.05800000000001
H           -5.30000000000000       53.01199999999999      113.45399999999998
C           -7.33600000000000       58.13799999999999      114.53600000000000
H           -7.80700000000000       58.48099999999999      115.45699999999998
C           -5.78300000000000       60.28700000000000      110.58700000000000
H           -5.84100000000000       61.30199999999999      110.19700000000000
C           -3.49700000000000       56.25599999999999      109.26300000000001
H           -2.83100000000000       55.98799999999999      108.44300000000000
C           -8.04600000000000       56.11399999999999      116.78300000000000
H           -7.46900000000000       56.77800000000000      117.46099999999998
H           -8.22600000000000       55.14500000000000      117.29500000000000
H           -9.01500000000000       56.60099999999999      116.54000000000001
C           -6.51900000000000       53.37299999999999      115.82100000000000
H           -5.49000000000000       52.96800000000000      115.70999999999998
H           -7.24100000000000       52.64200000000000      115.39799999999998
H           -6.72800000000000       53.53300000000000      116.89999999999999
C           -8.68100000000000       60.87400000000000      114.68899999999999
H           -8.31600000000000       60.50500000000000      115.67099999999999
H           -9.70800000000000       60.48699999999999      114.51799999999999
H           -8.69100000000000       61.98500000000000      114.70199999999998
C           -7.70100000000000       62.22599999999999      111.86499999999999
H           -7.18000000000000       62.55499999999999      110.95500000000000
C           -8.69600000000000       63.14899999999999      112.38199999999999
H           -9.26700000000000       62.90400000000000      113.28999999999999
H           -8.89000000000000       64.10400000000000      111.87200000000000
C           -4.11400000000000       61.13700000000000      108.04900000000001
H           -3.27900000000000       61.70900000000000      108.50700000000001
H           -5.06100000000000       61.69800000000000      108.20000000000000
H           -3.91400000000000       61.01500000000000      106.96299999999998
C           -2.54800000000000       58.30300000000000      107.41800000000001
H           -2.03900000000000       57.33400000000000      107.50300000000000
C           -2.12300000000000       59.09000000000000      106.28900000000000
H           -2.56400000000000       60.07999999999999      106.10100000000000
H           -1.35300000000000       58.71000000000000      105.60200000000000
C           -2.88700000000000       53.29100000000000      108.72600000000000
H           -1.81900000000000       53.59199999999999      108.67800000000000
H           -3.40300000000000       53.64600000000000      107.80899999999998
H           -2.94600000000000       52.18399999999999      108.79100000000000
C           -4.03500000000000       51.73700000000000      111.31300000000000
H           -3.11800000000000       51.30399999999999      110.85899999999999
H           -4.92600000000000       51.25400000000000      110.85800000000000
H           -4.01900000000000       51.54800000000000      112.40800000000000
O           -4.20100000000000       57.63600000000000      113.06399999999999
H           -4.46600000000000       57.24199999999999      113.89499999999998
H           -3.47300000000000       58.12700000000000      112.92299999999999
C           -9.02800000000000       55.15999999999999      107.81699999999999
H           -9.63500000000000       55.85900000000000      107.20200000000000
H           -9.67700000000000       54.32599999999999      108.15999999999998
H           -8.19600000000000       54.76400000000000      107.19700000000000
N           -9.07000000000000       56.69100000000000      109.92600000000000
H          -10.03500000000000       56.94900000000000      109.88099999999999
C           -8.45800000000000       55.90899999999999      109.03299999999999
C           -8.22500000000000       57.05800000000000      110.84799999999998
H           -8.47200000000000       57.69200000000000      111.69899999999998
N           -7.05600000000000       56.53200000000000      110.56200000000000
C           -7.15600000000000       55.82800000000000      109.46200000000000
H           -6.30000000000000       55.31100000000000      109.04800000000000
78
 energy: -116.010427967677 gnorm: 0.142520039114 xtb: 6.7.1 (edcfbbe)
Fe          -5.57965469820301       57.13500408913725      111.76784404881560
N           -6.27524677048226       56.23543089311935      113.46576882816130
N           -6.52140427365762       58.87491161302277      112.38177056367459
N           -4.79817966088545       58.10827094750525      110.18650710777337
N           -4.53803881552970       55.44583925256612      111.27006406073434
C           -6.04996772758901       54.94871703341496      113.82550680386504
C           -6.63195216497601       54.68390529011210      115.09246702830372
C           -7.23941480110821       55.85616715605104      115.50964350480317
C           -6.96711829021820       56.79976546473960      114.49655890117440
C           -7.19496043744886       59.08449578967265      113.53620638836499
C           -7.76035837598722       60.38404147337537      113.58272682320960
C           -7.36134210817851       61.00434898608337      112.40650396271785
C           -6.52812079401668       60.05525113458542      111.72558955482498
C           -4.97765631592606       59.41329766563454      109.84985744457504
C           -4.20501853054911       59.76038596325523      108.71065619326154
C           -3.49602600002111       58.60336602088703      108.37864255546181
C           -3.91755624363213       57.60142822707108      109.30062732662179
C           -3.83144790175790       55.25236756073986      110.13725954628202
C           -3.53545762110686       53.88486968082497      109.95011116635284
C           -4.06553575593530       53.23044872472740      111.04364496727287
C           -4.67584982666027       54.23025479138769      111.85074944307763
C           -5.33877840671512       54.02026548024065      113.06021248145557
H           -5.30217162013555       53.01165433247129      113.45297441073613
C           -7.34793605914103       58.13380192422539      114.53918845386502
H           -7.81582376204945       58.47307119036289      115.45501567280280
C           -5.79392513313943       60.29211575607693      110.57189043333885
H           -5.83703708207674       61.30432420805935      110.19081178797084
C           -3.49693879911696       56.26683141998475      109.26046273998072
H           -2.84047252076490       55.98609770453483      108.44576839793874
C           -8.03285806373253       56.10733034584931      116.77278570286678
H           -7.47694913465142       56.76816584177530      117.45116688968967
H           -8.22541684973887       55.16103097695097      117.28769819063494
H           -8.99355045223566       56.58725300801274      116.54170322703293
C           -6.52317342797130       53.37660320498300      115.82294746543468
H           -5.50872750987873       52.97276480399461      115.71528032759298
H           -7.23230739567722       52.64823093263237      115.40974387302253
H           -6.72870960895401       53.52308414507684      116.88762938482283
C           -8.66874931598964       60.87074803321229      114.68405416845037
H           -8.32086007980519       60.50784504720913      115.65754085134503
H           -9.68944122176427       60.49804756429375      114.52066625250147
H           -8.68489506370944       61.96287332393779      114.71576381962873
C           -7.72491828478927       62.27003733320029      111.88036637524610
H           -7.20527294132501       62.57165758165365      110.97065096993963
C           -8.67121514445667       63.13367436743114      112.36491391353985
H           -9.25577437335340       62.90853195106645      113.24850345442063
H           -8.87323302094401       64.07758057512311      111.87169336665586
C           -4.11646606162317       61.12310588521949      108.06012124630492
H           -3.29125388581857       61.69909225825488      108.50003912278221
H           -5.04611661904969       61.68619452083815      108.19972275949274
H           -3.92994696862582       61.02138145360587      106.98723210103753
C           -2.52823831807192       58.32737655709987      107.37489270052392
H           -2.03186105278168       57.36247829356350      107.47793330896933
C           -2.12736892035056       59.07872379790738      106.31085450429163
H           -2.54926240694950       60.05409811073191      106.10517551078227
H           -1.37216051555234       58.71026855337141      105.62535796310193
C           -2.88511282299908       53.28840923145199      108.73601346290936
H           -1.83035597587739       53.58644044954421      108.67573054058604
H           -3.39215406641318       53.63524884208569      107.82573514939223
H           -2.94182043325870       52.19709483907179      108.78298211069630
C           -4.03162935951804       51.74575502055398      111.31070666240456
H           -3.13135147624131       51.30662105797861      110.86707908971601
H           -4.91175949796303       51.26028732388207      110.86887009037626
H           -4.02090177460099       51.54893576049103      112.38860541815887
O           -4.18572889829233       57.63757324514609      113.07083147788892
H           -4.44018645819210       57.25317857255756      113.91231326109657
H           -3.41662244544241       58.15633761761310      112.93914870226433
C           -9.03456779807689       55.17132279953510      107.82244133909886
H           -9.63331213610181       55.85093189006336      107.20597641886587
H           -9.66912279596513       54.33950565469107      108.15226584270401
H           -8.21408156711425       54.77463969429924      107.21597922198427
N           -9.09355042241940       56.67835974493553      109.90691761498491
H          -10.06103745709478       56.94059064056140      109.86182795623608
C           -8.45347166139057       55.88991261746249      109.01230895156095
C           -8.23250915655708       57.05756786432050      110.84980720173573
H           -8.47598906561755       57.68427177127863      111.68885240412251
N           -7.05176287449875       56.54478467906419      110.58556446745939
C           -7.15495174385578       55.82508490282517      109.46382491541090
H           -6.30490297770079       55.31423753972260      109.05174965281812
78
 energy: -116.031060787752 gnorm: 0.047141240611 xtb: 6.7.1 (edcfbbe)
Fe          -5.57408272722391       57.13461842135756      111.77202505995690
N           -6.28780083010562       56.22735581881491      113.44197249583992
N           -6.50121116952326       58.86516759510870      112.37879116188576
N           -4.78278457544237       58.10893491484047      110.21516900108843
N           -4.57582319959568       55.45775663850341      111.27324889768590
C           -6.05000200004403       54.94003953941830      113.81150449225296
C           -6.63155793447277       54.67693636449523      115.10318183519323
C           -7.22845127013448       55.83635279713520      115.51404483617341
C           -6.97757850829790       56.79756520006216      114.47515356534282
C           -7.19992339743368       59.06549842425508      113.53120090696963
C           -7.76507778811080       60.38356555503393      113.57637997081861
C           -7.37479334864320       61.00745875430115      112.40752353714252
C           -6.53232435072916       60.04553990511563      111.70684281437713
C           -4.97818010357449       59.41467692673466      109.86772757837868
C           -4.19502998587680       59.75762597713605      108.71043317242525
C           -3.49596702639828       58.61492764973303      108.36619007538528
C           -3.90868342966494       57.59870385922289      109.31498110096129
C           -3.86057412518967       55.26803685672499      110.13536588426626
C           -3.54709131060532       53.87413263545300      109.95646304141657
C           -4.06354490540987       53.22531093139700      111.04105084165516
C           -4.69955998970968       54.23610766625443      111.85610996529047
C           -5.34629030583554       54.01000068940471      113.05953180505828
H           -5.30508598911856       53.00508921877216      113.45312042755494
C           -7.36442742461047       58.12331920905119      114.53356237523380
H           -7.84000084103242       58.45496750958522      115.44457247908709
C           -5.80264857952277       60.29788591248131      110.55898646766248
H           -5.84329295054796       61.30681097857742      110.17619397614469
C           -3.50076239533702       56.27529231540979      109.25956981943574
H           -2.85287318503257       55.98244930079206      108.44659893774515
C           -8.01434802712753       56.09863317541533      116.75926989184889
H           -7.47291201350533       56.76097964598718      117.43713019660898
H           -8.21917754973243       55.16825232967630      117.28223573282169
H           -8.96892942849268       56.57333563797548      116.52834090840908
C           -6.52690853282557       53.37843327660387      115.82502461714424
H           -5.52182709100526       52.97247968706623      115.72224200059830
H           -7.22898863110916       52.65040494608149      115.41842018769532
H           -6.73505404539873       53.51248044630218      116.88248940635125
C           -8.65089665381377       60.86549217253955      114.67691121964346
H           -8.31489387358927       60.49758742111624      115.64434455293207
H           -9.67218017033687       60.50914177973900      114.52098370539764
H           -8.66780247289186       61.94791829980627      114.72831461529124
C           -7.74046686202428       62.29537808501895      111.88437987295191
H           -7.20865244704454       62.58230848665721      110.98322658774977
C           -8.65478684657080       63.12572445550214      112.34611701617318
H           -9.25722520918456       62.91836812154008      113.21088280025897
H           -8.85734716236035       64.06636948947417      111.86381820394878
C           -4.12237707117828       61.10658814372785      108.07315070185351
H           -3.30118073368940       61.68626651759788      108.49984723867973
H           -5.04216994750040       61.66953452386544      108.21434595142500
H           -3.94872491054450       61.02044362549651      107.00531250414173
C           -2.51626778114026       58.34367399728431      107.34773300244380
H           -2.02869485361655       57.38123217813692      107.46402375827479
C           -2.13302223035901       59.07641865473857      106.32047279048336
H           -2.53559945689513       60.04684012832494      106.10028876691571
H           -1.38037256026331       58.71847498151168      105.63834458683279
C           -2.88518657367639       53.29110647675527      108.75116882747122
H           -1.83841792809096       53.58899677739824      108.68481752675099
H           -3.38526059466926       53.63054688276888      107.84302127755355
H           -2.93460969288123       52.20646320380469      108.78092781951464
C           -4.02969656530231       51.75816762066292      111.31244114605417
H           -3.14034777327244       51.31117561126346      110.87373553795996
H           -4.90372001476011       51.26830748100073      110.87956783149332
H           -4.02275683073335       51.55416069532447      112.38017868004341
O           -4.13084241525937       57.63988472816806      113.07725855752125
H           -4.37453304128064       57.28999911746829      113.93999195363774
H           -3.35542275254006       58.18560474111966      112.97170694399733
C           -9.03502422896632       55.18123569199800      107.82951551312814
H           -9.63207569653001       55.85320299529889      107.21743679479651
H           -9.66761616672040       54.35316695868573      108.14879169436145
H           -8.22812919369870       54.78057289101854      107.22340644629126
N           -9.11942178388451       56.66214509035040      109.88889781318098
H          -10.08963799597238       56.92257563132724      109.83708620362408
C           -8.44258511118898       55.87376567549877      109.00179295904474
C           -8.25488050748074       57.05669497425584      110.84670466017391
H           -8.50321665632094       57.67972683937347      111.67630658817912
N           -7.05922695299993       56.56780362098812      110.61128188119716
C           -7.15470121963039       55.83122092981608      109.47619534736943
H           -6.30546009471734       55.32458759329644      109.06762065735174
78
 energy: -116.038859006759 gnorm: 0.028523254993 xtb: 6.7.1 (edcfbbe)
Fe          -5.56355311348269       57.13770085983403      111.78429346960027
N           -6.29074188839456       56.21592492682115      113.42973899209902
N           -6.48981400336883       58.85934360308059      112.37450553567936
N           -4.76675500522201       58.11031247103572      110.23637497496294
N           -4.61175336213737       55.45802772010502      111.26857903371457
C           -6.05437386820862       54.92909732328922      113.80271905905740
C           -6.63069423494240       54.66725282604718      115.10418957785122
C           -7.22270752575408       55.82323471081962      115.50874422459636
C           -6.98464159891672       56.78752954881556      114.45741822909102
C           -7.20419890136394       59.05148429782073      113.52025970877988
C           -7.76665019211744       60.37652226651908      113.56457980499270
C           -7.37767862117473       61.00125534159860      112.40135540978658
C           -6.53196667809717       60.03753679555835      111.69739863055925
C           -4.96998916814067       59.41295366716764      109.88300914650630
C           -4.18770539420031       59.75241492295373      108.71710046606756
C           -3.49311521480871       58.61746760570194      108.36865065073029
C           -3.90146050971081       57.59817992597981      109.32712494076225
C           -3.88925333042315       55.27252236773832      110.13334401663377
C           -3.56294596017197       53.87203211711611      109.95911730970658
C           -4.07263642852875       53.22387030818095      111.03986446482024
C           -4.72463259655143       54.23522592070834      111.85268133759642
C           -5.35896620154422       53.99536843367142      113.05587924912750
H           -5.31112088744474       52.99182261625845      113.45114332945171
C           -7.38345165196140       58.10765867124380      114.51867027167550
H           -7.88143398898537       58.42849280646403      115.42160679808809
C           -5.80504833350321       60.29870517775947      110.55140007845638
H           -5.85687617512984       61.30250219760637      110.15686226042915
C           -3.50960703896350       56.27431252276251      109.26077273018022
H           -2.86957755099059       55.97242781644080      108.44602455126848
C           -8.00055596795254       56.09273158796268      116.75084322017985
H           -7.45935509059884       56.75920444757534      117.42299721770576
H           -8.20842956689650       55.16794653593128      117.28129838539876
H           -8.95267298668881       56.56445668208195      116.51221523362346
C           -6.53095250959945       53.37089743228423      115.82770165916445
H           -5.52749370420497       52.96245634379116      115.73252654021994
H           -7.23184090400944       52.64312960746630      115.42064967673413
H           -6.74654511139906       53.50179155269827      116.88381824335566
C           -8.63345127139465       60.85944610641219      114.67572504177757
H           -8.29809058761470       60.47066578162618      115.63466638710963
H           -9.66207482687160       60.52494791974065      114.52209292401112
H           -8.63123847263438       61.94082676308519      114.74711804140676
C           -7.73138851821870       62.30052478885769      111.87794200273430
H           -7.18486837095500       62.58708938480348      110.98732031155683
C           -8.66323417276340       63.13691450747478      112.32403208599600
H           -9.29330731367703       62.93310134485479      113.16949364225506
H           -8.84638592194661       64.08135393917104      111.84256831900768
C           -4.13257221861846       61.09979777166247      108.08598685400410
H           -3.30737264969657       61.68012119566463      108.50217802263079
H           -5.05190843080047       61.65623183138950      108.24490545112326
H           -3.97896332821020       61.02097004635618      107.01523307672593
C           -2.51156022950465       58.34959804643254      107.34178914322968
H           -2.02180280320297       57.39072988101768      107.45594966831337
C           -2.12504850462426       59.09400851610921      106.31269539206909
H           -2.52365554603937       60.06265330957364      106.08406542184672
H           -1.37391893472691       58.73503996233436      105.63044759406579
C           -2.88317149270608       53.29570387505296      108.76286334395138
H           -1.83930763619968       53.60155074310910      108.70507499639739
H           -3.37856575471579       53.63078501992833      107.85221890867238
H           -2.92281592041629       52.21071812843695      108.78656429410755
C           -4.03109943561602       51.76215675941778      111.31951706907520
H           -3.14314744400216       51.31381859215551      110.88102902161164
H           -4.90478472214186       51.26883672944538      110.89175571314014
H           -4.02290825186291       51.56149537860598      112.38653605765528
O           -4.04225592940676       57.62460623550245      113.07759421319032
H           -4.29380127264385       57.35094176142933      113.97243901692156
H           -3.29482604934018       58.22694068394365      112.99763857853809
C           -9.03213355726521       55.18518081631348      107.83228191491469
H           -9.62941835581696       55.86491428813581      107.22951645965155
H           -9.67102238726234       54.36089367251031      108.14717139902925
H           -8.23443782411956       54.78131548625203      107.21834427271723
N           -9.14291369838668       56.64766660390151      109.88078802267519
H          -10.11691502627481       56.89559387200133      109.81550582953896
C           -8.43567964561678       55.86622860285019      109.00485292971955
C           -8.28846839122579       57.06011283671809      110.84696935390255
H           -8.55446613855389       57.68283595488904      111.67095629364427
N           -7.07861625974804       56.59409894363525      110.63451339848913
C           -7.15629098256123       55.84618478681348      109.49609019758904
H           -6.29991645702797       55.34560517349566      109.09511090635064
78
 energy: -116.043750543214 gnorm: 0.055053099268 xtb: 6.7.1 (edcfbbe)
Fe          -5.55952966855420       57.13694443742206      111.79324035362642
N           -6.28055192415118       56.20669070573839      113.42367701909424
N           -6.46825578035955       58.85483855899491      112.37632339536125
N           -4.75241847105699       58.10922313101189      110.25246767653107
N           -4.64986960872341       55.45614853019102      111.25934478160970
C           -6.05424226109338       54.91944045238963      113.79603443429357
C           -6.62830947566288       54.65673181006426      115.10216954632199
C           -7.21752081523276       55.81183404031889      115.50050680806170
C           -6.98290908606284       56.77735893955294      114.44215455065391
C           -7.20219751767877       59.03848953452523      113.51080131289309
C           -7.76919983090544       60.36484896917160      113.54987041907872
C           -7.38197975177910       60.98873790929488      112.39103407551794
C           -6.52591432698045       60.02840496520482      111.69263783621570
C           -4.95939722756485       59.40898598874575      109.89807153554034
C           -4.18076151424097       59.74735999373979      108.72533782722213
C           -3.48775208270856       58.61904544159279      108.37414311842059
C           -3.89354345400347       57.59755835944954      109.33693836375522
C           -3.91938371041543       55.27557866269009      110.12933778660238
C           -3.58076771912020       53.87270313772787      109.95867063310114
C           -4.08524762744562       53.22398135122472      111.03738737513402
C           -4.75077161291042       54.23392327312764      111.84516514730372
C           -5.37225072916444       53.97877809487758      113.05005688399979
H           -5.32102887065239       52.97537469717535      113.44438300768091
C           -7.40245423284072       58.08975293617411      114.50145218159687
H           -7.93846853175555       58.39454197650900      115.38942201217779
C           -5.80537762661083       60.29646344041013      110.54492837486181
H           -5.87764742229024       61.29174144042791      110.13238947836838
C           -3.51974429368885       56.27031347145444      109.25914266469019
H           -2.88683513534133       55.96116161301542      108.44231499492153
C           -7.98971715131449       56.08988892304005      116.74270480694082
H           -7.44384563623110       56.76053953396521      117.40720769548064
H           -8.19612636758428       55.16872345974513      117.28166947018615
H           -8.94158653450644       56.55943987223367      116.49917296242705
C           -6.53518042222347       53.35972600404175      115.82783640230068
H           -5.53099580690182       52.94853635692660      115.74546413906700
H           -7.23469986925900       52.63231359026954      115.41517728225863
H           -6.76332897071257       53.49111704705849      116.88299190472597
C           -8.61764829817911       60.85781088936735      114.67025191858569
H           -8.28075082981185       60.44649732693528      115.62088276403918
H           -9.65658442021509       60.55112856264710      114.52243439855255
H           -8.58571310246920       61.94070457049558      114.74759446355151
C           -7.72369998294316       62.29466418956375      111.86813582259357
H           -7.14987824890158       62.59997707783180      111.00224892580299
C           -8.66667958740877       63.13270607674991      112.30125959057740
H           -9.31706065142200       62.92568593962612      113.13082161999372
H           -8.82521095358002       64.08250422756896      111.81732564660371
C           -4.14398946178197       61.09585448003348      108.09696727635300
H           -3.31245480445463       61.67763912416227      108.49949982737760
H           -5.06422812941258       61.64508714377092      108.28042515166260
H           -4.01271011511710       61.01870462384370      107.02177280807463
C           -2.50795614918878       58.35699662214108      107.34068956610585
H           -2.01524324485381       57.40005514757732      107.44317731059915
C           -2.12453932002379       59.11266119346564      106.31167631596118
H           -2.52011669292494       60.08366705522810      106.08630325665435
H           -1.36820408378728       58.75467023706362      105.63272412050044
C           -2.87874235609777       53.30386866077991      108.77265827082527
H           -1.83693341603654       53.62186944933154      108.73274941029109
H           -3.36649609523079       53.63349963116138      107.85550024813347
H           -2.90556812450759       52.21721160653340      108.79619937818612
C           -4.03467184768321       51.76479511325940      111.32972373210153
H           -3.14635302679013       51.31683966572776      110.88955848102653
H           -4.90962173467773       51.26468172400224      110.91016232872875
H           -4.01948838473769       51.57283982392022      112.39891402563282
O           -3.90984191487748       57.56299286255002      113.06878960732166
H           -4.20209165107718       57.44793793037721      114.01327481145498
H           -3.24966992587531       58.30390852792893      113.04191799434153
C           -9.02978342512017       55.18706376885285      107.83342523707501