78
 energy: -115.980473491342 gnorm: 0.265384234380 xtb: 6.7.1 (edcfbbe)
Fe           5.82900000000000       -4.49400000000000        9.07800000000000
N            7.31800000000000       -3.43200000000000        8.36600000000000
N            4.60400000000000       -3.39900000000000        7.85500000000000
N            4.10800000000000       -5.44200000000000        9.85700000000000
N            6.92400000000000       -5.43700000000000       10.41800000000000
C            8.60800000000000       -3.58700000000000        8.81900000000000
C            9.44900000000000       -2.68200000000000        8.08600000000000
C            8.69400000000000       -2.03200000000000        7.20400000000000
C            7.33700000000000       -2.48300000000000        7.37200000000000
C            4.98700000000000       -2.49200000000000        6.89400000000000
C            3.83400000000000       -2.06900000000000        6.16200000000000
C            2.77600000000000       -2.71600000000000        6.64300000000000
C            3.23100000000000       -3.58300000000000        7.71600000000000
C            2.80700000000000       -5.20100000000000        9.50100000000000
C            1.93200000000000       -5.89500000000000       10.41300000000000
C            2.72000000000000       -6.52000000000000       11.29500000000000
C            4.08500000000000       -6.24600000000000       10.95600000000000
C            6.49700000000000       -6.25200000000000       11.44800000000000
C            7.62100000000000       -6.48600000000000       12.31100000000000
C            8.67400000000000       -5.86400000000000       11.81400000000000
C            8.24900000000000       -5.18400000000000       10.61000000000000
C            9.03500000000000       -4.42500000000000        9.80300000000000
H           10.11200000000000       -4.49400000000000        9.95800000000000
C            6.24200000000000       -2.05500000000000        6.65500000000000
H            6.39600000000000       -1.32900000000000        5.85700000000000
C            2.41100000000000       -4.41100000000000        8.45100000000000
H            1.35700000000000       -4.44100000000000        8.17500000000000
C            5.20400000000000       -6.72100000000000       11.61800000000000
H            5.05600000000000       -7.53100000000000       12.33200000000000
C            9.15200000000000       -0.95400000000000        6.19600000000000
H           10.26200000000000       -0.91100000000000        6.17800000000000
H            8.75800000000000        0.03800000000000        6.50300000000000
H            8.78500000000000       -1.21100000000000        5.17900000000000
C           10.96600000000000       -2.49600000000000        8.32700000000000
H           11.53300000000000       -3.20500000000000        7.68700000000000
H           11.20500000000000       -2.70200000000000        9.39200000000000
H           11.26300000000000       -1.45800000000000        8.06500000000000
C            3.90000000000000       -1.07600000000000        4.99900000000000
H            4.88200000000000       -1.16900000000000        4.48700000000000
H            3.79100000000000       -0.04000000000000        5.38400000000000
H            3.09100000000000       -1.29700000000000        4.27000000000000
C            1.30600000000000       -2.60000000000000        6.20900000000000
H            0.62000000000000       -3.43000000000000        6.43100000000000
C            0.79200000000000       -1.54600000000000        5.57100000000000
H            1.42500000000000       -0.68200000000000        5.32000000000000
H           -0.27100000000000       -1.52800000000000        5.28900000000000
C            0.38100000000000       -5.81900000000000       10.30000000000000
H            0.01700000000000       -6.63700000000000        9.64200000000000
H            0.08400000000000       -4.84300000000000        9.86000000000000
H           -0.07500000000000       -5.93600000000000       11.30600000000000
C            2.39000000000000       -7.42600000000000       12.50300000000000
H            3.20500000000000       -7.73500000000000       13.17400000000000
C            1.16300000000000       -7.87000000000000       12.79800000000000
H            0.30400000000000       -7.59700000000000       12.16700000000000
H            0.99800000000000       -8.51300000000000       13.67500000000000
C            7.59500000000000       -7.32300000000000       13.58500000000000
H            7.83700000000000       -8.37900000000000       13.34000000000000
H            6.58200000000000       -7.28200000000000       14.04000000000000
H            8.35000000000000       -6.93700000000000       14.30300000000000
C           10.09400000000000       -5.82700000000000       12.41500000000000
H           10.28300000000000       -6.76500000000000       12.97900000000000
H           10.18500000000000       -4.96500000000000       13.10900000000000
H           10.84400000000000       -5.74000000000000       11.60000000000000
O            5.29400000000000       -3.07600000000000       10.66800000000000
H            4.46000000000000       -3.38200000000000       11.02500000000000
H            5.74900000000000       -2.36100000000000       10.93500000000000
C            5.95300000000000       -9.19300000000000        5.86900000000000
H            6.79400000000000       -9.87200000000000        6.12700000000000
H            5.85800000000000       -9.14200000000000        4.76300000000000
H            5.01700000000000       -9.59400000000000        6.31200000000000
N            7.33500000000000       -7.09800000000000        6.04400000000000
H            7.99400000000000       -7.38100000000000        5.34800000000000
C            6.22700000000000       -7.82900000000000        6.41600000000000
C            7.37900000000000       -5.98300000000000        6.74700000000000
H            8.15100000000000       -5.22100000000000        6.65100000000000
N            6.34400000000000       -5.96700000000000        7.56200000000000
C            5.63300000000000       -7.13000000000000        7.40700000000000
H            4.76800000000000       -7.34900000000000        8.02000000000000
78
 energy: -116.026855446722 gnorm: 0.102078300832 xtb: 6.7.1 (edcfbbe)
Fe           5.80537933630276       -4.48894171425483        9.06446481345985
N            7.32373181997929       -3.42364207360010        8.38258934709643
N            4.58788573352463       -3.42432910998242        7.83148601894606
N            4.11141609780274       -5.43451978529409        9.86625115035248
N            6.91405728091881       -5.41506683131611       10.42584533559220
C            8.61454122388267       -3.57660298847006        8.81014709725526
C            9.47586208880612       -2.67711669093324        8.08346444455699
C            8.70333151413783       -2.01605247967539        7.19430678786086
C            7.35081088596483       -2.48830639378553        7.38332708377050
C            4.96764306391321       -2.50477495375774        6.89230497507978
C            3.82115355978330       -2.06111558281705        6.14268650327223
C            2.74112376063675       -2.71686992379818        6.63356623902536
C            3.22812763609274       -3.58432808167703        7.69784783384415
C            2.81206239640261       -5.20934039614964        9.50854018514034
C            1.91997978124730       -5.90434864970061       10.41313676407965
C            2.71485933286945       -6.55457922508272       11.31154162212876
C            4.08466108030468       -6.25911890557191       10.94858377956161
C            6.50185641497119       -6.24847263137121       11.43759387443321
C            7.61816928887642       -6.50994745836194       12.31713353054002
C            8.69276516404723       -5.87363821924961       11.81250905610469
C            8.24573678500498       -5.19549655939006       10.61409916043902
C            9.04380461850253       -4.42664918051826        9.80182794946785
H           10.11281972857897       -4.47765605982846        9.97274877228719
C            6.24888065264690       -2.06260758068775        6.66565891831498
H            6.40597882079760       -1.33527612900031        5.87689657658014
C            2.41544093639224       -4.41068509093446        8.44864996572531
H            1.36474980532594       -4.43027646511247        8.18475797802173
C            5.21162853189393       -6.72093466453352       11.61153221012868
H            5.06493256673165       -7.50478027893902       12.34621174447119
C            9.14492536180713       -0.96231107084293        6.20290900533306
H           10.23767787630502       -0.91174340229792        6.17558952002460
H            8.75848848351962        0.02034488420581        6.49373672585551
H            8.78550460730759       -1.20406940868766        5.19755955892814
C           10.95884789427554       -2.50118136507121        8.32355545849691
H           11.52900460800295       -3.19640359268258        7.69697759179938
H           11.20214032617321       -2.69446742333362        9.37188099255802
H           11.25943915582339       -1.47957738013569        8.07406437004522
C            3.90048387954571       -1.08220954901681        5.00104653228701
H            4.86512186905566       -1.16542313868799        4.49116276112488
H            3.79234727738447       -0.05610341860789        5.37202457818163
H            3.10891717332546       -1.29125139330204        4.27635924371528
C            1.32089179999457       -2.59755980798193        6.21085337917568
H            0.65588923551224       -3.42836493207553        6.43986768021937
C            0.80012988864570       -1.55099064369881        5.57681291919604
H            1.39794294962489       -0.68306482343253        5.33368518843124
H           -0.24772962655257       -1.52939991448231        5.29445852696834
C            0.40542733632372       -5.81999796710641       10.30208446350724
H            0.02957839006327       -6.62291188549754        9.65550914040936
H            0.09919157655500       -4.86182837447136        9.87148487769148
H           -0.06363588305323       -5.91732236864415       11.28446589317341
C            2.37768646782798       -7.41325085249150       12.48439083774776
H            3.19877586154262       -7.70713905485634       13.13707525163487
C            1.16563187167927       -7.86517395100835       12.79088237706664
H            0.30641911869877       -7.62591497736687       12.18183962262627
H            1.00256983043137       -8.49880863795747       13.65679908267339
C            7.58667157274772       -7.32611484909379       13.57993403783807
H            7.82860133052294       -8.37020513760674       13.35025871838779
H            6.59622506596330       -7.28633030563757       14.04060854655255
H            8.32745182818239       -6.94732248224022       14.29165512315472
C           10.08367694418852       -5.82878118482502       12.40478151596914
H           10.28030410559513       -6.74784880732469       12.96568555428767
H           10.18387423704707       -4.97863061843046       13.08974380428546
H           10.83434232825196       -5.73776815192201       11.61505529035857
O            5.29174536842190       -3.08351267415320       10.66274988571300
H            4.45840476821858       -3.36502986619379       11.03872161321643
H            5.75654372650918       -2.32281498636681       10.95895843549099
C            5.95750563891769       -9.19478659770848        5.86682968180242
H            6.77978937909923       -9.87490095264679        6.11678840887121
H            5.85664978116015       -9.15275231416073        4.77647770694897
H            5.03391081519532       -9.58686306538297        6.29928947522753
N            7.33144434454471       -7.11008081231397        6.03659930618412
H            7.99513243232995       -7.38951961498476        5.33526540714760
C            6.23826090033883       -7.84422553057754        6.42310232191639
C            7.35958123896915       -5.98158130985966        6.75714643468635
H            8.12226402894337       -5.22685586489525        6.65993491192445
N            6.33916651779947       -5.95576621336705        7.58639503221273
C            5.63857082832586       -7.11645167464339        7.40547774384158
H            4.77482558256877       -7.33225843233982        8.00575574757496
78
 energy: -116.039192759741 gnorm: 0.023974990424 xtb: 6.7.1 (edcfbbe)
Fe           5.78617443846097       -4.48607518760334        9.05900929837165
N            7.33195015088573       -3.42154536753361        8.39895405685926
N            4.57889555913717       -3.45807289435482        7.80363705935546
N            4.11758622866713       -5.43825562688635        9.86110838237616
N            6.91348000870397       -5.40315687260283       10.42755803055555
C            8.61973508994207       -3.56577410993646        8.81307542376759
C            9.49217349075580       -2.67422091241165        8.08407740596226
C            8.70586165006785       -2.00860200219280        7.19276555925697
C            7.35782645237958       -2.49456970594420        7.39963851247596
C            4.95806104860338       -2.52929360650341        6.88354703971823
C            3.81908731754632       -2.06086629008133        6.12896736736549
C            2.72377362824451       -2.72002950755662        6.62461944916040
C            3.23068429528986       -3.59802035172455        7.67441202609739
C            2.82070208689376       -5.21684010499509        9.50782094902005
C            1.92006459821243       -5.91018735888819       10.40377381103871
C            2.71527650246368       -6.58215335334117       11.30856568902729
C            4.08795443714729       -6.26764947775958       10.93647993876720
C            6.50748158531557       -6.24013410406550       11.42707312511653
C            7.61680685019494       -6.53053374556544       12.31292658475083
C            8.70336155098496       -5.88742151246899       11.80452752215835
C            8.24464620242366       -5.19960557614309       10.61830343053005
C            9.05164994352173       -4.41823463981336        9.81235908059899
H           10.11480029588082       -4.45157628746072       10.00039396992577
C            6.25335149475953       -2.07676083181106        6.67888031083407
H            6.41330993188663       -1.34095136246051        5.90407403853233
C            2.42106790931721       -4.41333524986457        8.44484850107602
H            1.36806585286054       -4.41329771681981        8.20366543494315
C            5.21807967153528       -6.71031577602429       11.61056780648511
H            5.07388388147410       -7.46405428443841       12.37345923152388
C            9.13214166440437       -0.97143359205099        6.20998551426667
H           10.21679679724827       -0.91313544793363        6.17452502083682
H            8.74693307178840        0.00831012171363        6.48859178337859
H            8.77336760280779       -1.20534700850985        5.21035372233683
C           10.95379601781223       -2.50559493990701        8.31884761685200
H           11.52950151834970       -3.19605205594801        7.70292081543929
H           11.20048618721014       -2.69076576353673        9.35982781121482
H           11.26097667673311       -1.49272413426488        8.07391396031495
C            3.90137131126358       -1.09000588282302        5.00244631417490
H            4.85958864628918       -1.16685271565259        4.49633543741558
H            3.79200870834418       -0.06733002539930        5.36406297587960
H            3.11758408162139       -1.28895492533660        4.27744616733462
C            1.34335604245241       -2.59881915836116        6.21745252370205
H            0.69723601078156       -3.43600145265186        6.45196556083671
C            0.80687894217236       -1.55504259095946        5.58947025570284
H            1.37209321750681       -0.67356445353915        5.35410688013674
H           -0.23101849912369       -1.54130740274393        5.30163576877330
C            0.43308158852403       -5.82083281617639       10.30479388223504
H            0.04553148019673       -6.61838984912438        9.66865578290466
H            0.12806916796177       -4.87083743727412        9.87327058470196
H           -0.03764821795818       -5.90374645591827       11.27970493065289
C            2.37210868466887       -7.40605963347719       12.44506403650374
H            3.19898246435427       -7.67081821616760       13.09374006471515
C            1.16769646935161       -7.86817027991425       12.77091565017698
H            0.29580529607106       -7.65998926063049       12.18308443508076
H            1.01327851384357       -8.47753014751425       13.64610194862824
C            7.57584411050605       -7.33368046059791       13.56927181028969
H            7.81444328726275       -8.37619064017330       13.35900557708199
H            6.59693959677016       -7.29098409580808       14.03514846962656
H            8.30851568362021       -6.95611879231324       14.27853571611588
C           10.07406807651880       -5.83525544459662       12.38987192292400
H           10.27759498693698       -6.74197620797987       12.95387535695017
H           10.17391550889583       -4.98689991527903       13.06804441590180
H           10.82872833314944       -5.73706573259834       11.61545383740202
O            5.29151594296342       -3.06324343271918       10.65348660761047
H            4.46600038466131       -3.31713990545859       11.07097131063819
H            5.74989093109726       -2.29058448345491       10.98019204273893
C            5.95841726298475       -9.19644507465745        5.86909885382555
H            6.76949665828950       -9.88268251927011        6.10820517064530
H            5.85565328018277       -9.15250267144005        4.78659011839185
H            5.03938952206088       -9.58406685475325        6.29282911885477
N            7.32630153705030       -7.11403500420180        6.04115803235284
H            7.99416866726069       -7.38639453562631        5.33712314441030
C            6.24473634825867       -7.85509875717666        6.43637712317389
C            7.33517205720658       -5.97596849469510        6.76959462244027
H            8.08844403841070       -5.22232004122935        6.66968856814268
N            6.31985267470261       -5.94517431596122        7.59979698744403
C            5.63705029476593       -7.10998912045122        7.40839822455567
H            4.76806521821184       -7.32565415820547        7.99297448863665
78
 energy: -116.042843342502 gnorm: 0.021349530867 xtb: 6.7.1 (edcfbbe)
Fe           5.78016117101107       -4.48171898940795        9.06194356920901
N            7.33997781360362       -3.42120829995824        8.41253983785711
N            4.58252555911145       -3.48446505744038        7.78221299788670
N            4.12759196957428       -5.44391197376897        9.84674533179315
N            6.91764781174720       -5.39597525886047       10.42821615880677
C            8.62605311243476       -3.55743597156159        8.82614908921646
C            9.49780846270837       -2.66989769297000        8.09113170450340
C            8.70568211101369       -2.00741855172881        7.20046111179102
C            7.36135127385354       -2.49853416433678        7.41226997931359
C            4.96359782788103       -2.54977587397817        6.87199267086177
C            3.82921014090758       -2.06839986188937        6.12067044511222
C            2.72951970483273       -2.72698504638959        6.61560668098999
C            3.23720418386037       -3.61426016863211        7.65549300617013
C            2.83172907859600       -5.22380349182487        9.49288300756549
C            1.93087835537385       -5.91643599230074       10.38169159229908
C            2.72223866154897       -6.59469274297745       11.28696830989184
C            4.09575541830922       -6.27232519082540       10.92095187881427
C            6.51076548094047       -6.23532456851570       11.42036146175307
C            7.61617368713951       -6.54329824401693       12.30437261485349
C            8.70595108890477       -5.90072623468699       11.79677819872746
C            8.24788899764073       -5.19799454506481       10.62138530240600
C            9.05929200979071       -4.40538785466605        9.82942895684080
H           10.11961300435279       -4.41975541464489       10.03705711845613
C            6.25973041823872       -2.08810975803927        6.68577923860684
H            6.42181278485750       -1.34061645544719        5.92396125379480
C            2.42666288806033       -4.41770947904430        8.43545940044761
H            1.36818711674137       -4.39582932743473        8.21792178872137
C            5.22140539382018       -6.69936035883542       11.61059032119638
H            5.07677031753601       -7.42443877226922       12.40177035757610
C            9.11782249810310       -0.97427809881842        6.21106290734428
H           10.20196919654005       -0.90770994323450        6.16798178437935
H            8.72577414466959        0.00485005955213        6.48532380116253
H            8.75283649578560       -1.21379358236487        5.21432697002787
C           10.95975767967271       -2.50710146704965        8.31713047769121
H           11.53367581644534       -3.20346903915651        7.70498389183466
H           11.20988574365537       -2.68692954396823        9.35886806905839
H           11.27266142294357       -1.49693612673737        8.06582927838978
C            3.90798048023404       -1.09524967319953        4.99897068034895
H            4.86712735119662       -1.16692265696703        4.49296455967499
H            3.79329948934374       -0.07245854878302        5.35981234783790
H            3.12354678632463       -1.29289682666155        4.27300011868051
C            1.35279259079939       -2.60615514681267        6.21734548263035
H            0.71803141086899       -3.45217182182804        6.45148865511705
C            0.80169462109189       -1.56119143463510        5.60126455867762
H            1.34650552973303       -0.65971063512109        5.38618761692324
H           -0.23584753448177       -1.55887268499507        5.31514093612983
C            0.44869247619172       -5.81600959217036       10.29935591752685
H            0.04567857026023       -6.62048322682404        9.68059602247236
H            0.14921565423817       -4.86870354864543        9.85785062795643
H           -0.00972399521302       -5.87779599806166       11.28239110367931
C            2.37023155802753       -7.40160394124998       12.42432280213698
H            3.20037798970897       -7.65098465325552       13.07402704491137
C            1.17068815277031       -7.87517052165170       12.76006760743815
H            0.29084061290440       -7.72031029581606       12.16140051730466
H            1.03105558983349       -8.47025133694144       13.64675215427222
C            7.56440113915493       -7.34619619815571       13.55916913434872
H            7.79575164539728       -8.39296552218309       13.35909339646596
H            6.58461897473997       -7.29582899347885       14.02414780676029
H            8.29583287058419       -6.96987190956017       14.27073151162645
C           10.07473623285188       -5.84541760228433       12.37860175990077
H           10.28273056364334       -6.74835040152971       12.94694901338124
H           10.16913372850630       -4.99203944328284       13.05225414610245
H           10.83121524883553       -5.74399148650205       11.60566157026260
O            5.27926145586642       -3.01145052383861       10.63481490780279
H            4.48155863360557       -3.26274100147194       11.11470372924103
H            5.75327844248179       -2.25975753802398       10.99835306756573
C            5.95563598120584       -9.19733643257646        5.87412978445699
H            6.76302261670024       -9.89130592540714        6.10542103946147
H            5.85370293419808       -9.14408945073632        4.79172259640852
H            5.03424582352356       -9.58577656629841        6.29214175047063
N            7.31736000345550       -7.11020218246312        6.05652893882238
H            7.98866027912844       -7.37508727143590        5.35257371094224
C            6.24082879023862       -7.85946173053397        6.45087898266368
C            7.30970358270863       -5.96773546913798        6.78259767281184
H            8.05331525185334       -5.20589028542421        6.67896631307935
N            6.29405442056625       -5.94358647500395        7.61061234854499
C            5.62203972180551       -7.11308090172242        7.41554727559885
H            4.74515548290892       -7.33173106203647        7.98716022421199
78
 energy: -116.045396733618 gnorm: 0.039503433622 xtb: 6.7.1 (edcfbbe)
Fe           5.77345469274547       -4.48030559295297        9.06005193185599
N            7.35084782057617       -3.42331674216303        8.42740428576832
N            4.59074403839189       -3.51176787955018        7.75927206935492
N            4.14313912977159       -5.43812502049579        9.83357545995166
N            6.92199434189014       -5.37896004395559       10.43326915151671
C            8.63543711066895       -3.54529758245441        8.84619100421531
C            9.50358633610281       -2.66112645522480        8.10251608415208
C            8.70591250935033       -2.00658224716775        7.21186769292019
C            7.36584806592216       -2.50337669904894        7.42687222556737
C            4.97483904608083       -2.57300172476467        6.85651574179649
C            3.84559332958432       -2.07965408737771        6.11013858974704
C            2.74293944405613       -2.73592072394119        6.60320790979295
C            3.24677238807523       -3.63121230354942        7.63396512622791
C            2.84762841374445       -5.22580140483694        9.47369819682814
C            1.94838186534427       -5.92377147154254       10.35082583935008
C            2.73443180636887       -6.60630718089902       11.25476307870497
C            4.10799719111006       -6.27030034313061       10.90385685116636
C            6.51428200071983       -6.22470367693981       11.41574418211744
C            7.61633713792865       -6.55591741734811       12.29386179216843
C            8.70837485463130       -5.91586305076430       11.78863752535689
C            8.25295170321912       -5.19041222924494       10.62752578037446
C            9.06954630627697       -4.38254612466701        9.85723960030213
H           10.12496308345220       -4.37424028244940       10.09003532698353
C            6.26894473215466       -2.10115919403076        6.69253806424392
H            6.43349928325049       -1.33986037620861        5.94559422786162
C            2.43415470175564       -4.41893136987627        8.42414924872735
H            1.37175145500384       -4.37615606602956        8.23160275424785
C            5.22455056627504       -6.67915350100298       11.61412538441563
H            5.07990344974783       -7.37424866610358       12.42959997083245
C            9.09840314052610       -0.97680395077270        6.21021977353196
H           10.18202101833183       -0.89581246109120        6.15594632558796
H            8.69344200835239        0.00005363296643        6.48005231871494
H            8.72437405259997       -1.23005052162983        5.21846346997261
C           10.96985171617771       -2.50621614798776        8.31575150679559
H           11.53482672747998       -3.21591117421024        7.70795493897507
H           11.22700579119988       -2.67676544321490        9.35904396433881
H           11.29105073137600       -1.50094872541130        8.04929376982521
C            3.91709217110595       -1.10166147727052        4.99260419524670
H            4.87720196291295       -1.16562239898375        4.48422658190963
H            3.79534599674326       -0.07926032559506        5.35545981732242
H            3.12845604515775       -1.30029373596339        4.26863624808391
C            1.36278061116659       -2.61726917088633        6.21479388238486
H            0.74410903002333       -3.48048797707420        6.43354057182444
C            0.79248608520697       -1.56668443480361        5.62466968051911
H            1.32017132058964       -0.65297359453688        5.41668869863897
H           -0.24594033694951       -1.58084859838736        5.33960289492132
C            0.46643805636560       -5.81766954309679       10.29419780043368
H            0.04091579357615       -6.63112646157959        9.70071205689422
H            0.16643474350887       -4.87462178589089        9.84096137723604
H            0.03767443055730       -5.86118308886848       11.29398137310801
C            2.37100326883870       -7.40808851794197       12.39111915411779
H            3.19364295722140       -7.61767726854351       13.06691997690071
C            1.17743179616413       -7.90220176592423       12.72034303826690
H            0.28985297358430       -7.77104020098504       12.12820210574587
H            1.04678952003627       -8.45543430002348       13.63852430130803
C            7.55035340050716       -7.36485954682373       13.54443142293420
H            7.76766605455100       -8.41663451873165       13.34974138658637
H            6.56732150991944       -7.30220364709548       14.00577090984414
H            8.28224443465835       -6.99627116926560       14.26143871328405
C           10.07969955299386       -5.86183353818144       12.36512453974593
H           10.29115223259755       -6.76074964325347       12.93942670012127
H           10.17169421126960       -5.00121108738181       13.03226583178801
H           10.83539360017980       -5.76256374028510       11.58956915187304
O            5.23455579358646       -2.91190062156582       10.57300573798428
H            4.51880278192735       -3.20198102725970       11.18720417461614
H            5.77150479957180       -2.24281770678869       11.04633667374955
C            5.94886659092361       -9.19775226369181        5.88201593539147