87
 energy: -128.467862891306 gnorm: 0.000045793706 xtb: 6.7.1 (edcfbbe)
Fe          33.37323766534203       20.23633883619879       34.29360976047061
N           33.14782217311916       18.43980276271506       35.15037654165224
N           34.04304323800989       19.35744170794666       32.61993550191924
N           33.60227796781248       22.04256269439795       33.44484089599042
N           32.69758437536017       21.11453722788276       35.96583771038917
C           32.69577358939299       18.18317139826619       36.40348961582168
C           32.67891547059519       16.75869630610650       36.66013795351301
C           33.13138849273830       16.16112989420944       35.52621087443520
C           33.41963876755688       17.22994881290060       34.59368677697129
C           34.19044365476616       18.02350760946853       32.39971125862573
C           34.68079362817581       17.77352469599662       31.06836777459521
C           34.82628000414284       19.00033121455195       30.47646942028354
C           34.42960273706963       19.97522938188342       31.47605156038315
C           34.05535876580681       22.29717860041243       32.18757174295121
C           34.08014758148751       23.71318231629068       31.92872367830666
C           33.62199255781050       24.32191296703628       33.06875825812481
C           33.33747755680803       23.25055471459471       34.00358521585149
C           32.53774655651874       22.44667035905564       36.18274675575228
C           32.01544252860239       22.69024954931726       37.50932062150204
C           31.86620734338420       21.46884448679694       38.08896843634001
C           32.29779618313949       20.49790065061622       37.10774160497488
C           32.29576261933425       19.13293429271503       37.32452191290515
H           31.95331032578948       18.78177421449259       38.28627636993709
C           33.90257694371410       17.02338242862399       33.31558672027513
H           34.06067716354499       16.00146429343268       33.00417868796036
C           34.43111699770994       21.33918200608384       31.26159737663363
H           34.74355594313669       21.68908489917241       30.28929828203860
C           32.82988065351794       23.45019318662808       35.27624847009390
H           32.64311983536327       24.46750490969504       35.58701181840349
C           33.32007347852574       14.71191190478560       35.23087913426819
H           33.03492398652611       14.10259489230937       36.08511367892551
H           34.36311013172953       14.50054057435474       34.99275880912779
H           32.71164994382763       14.41087138855612       34.37743480167867
C           32.23775973279088       16.13941421977357       37.94225168664615
H           31.19933304258517       16.39564541650175       38.15423820217663
H           32.84948477376674       16.49700805379573       38.77094018690197
H           32.32061271990975       15.05600426641235       37.89848276675237
C           35.01907225842174       16.43263883194188       30.51474359711418
H           34.12720751728779       15.92946660961814       30.13676338032238
H           35.46326514747997       15.79886033961948       31.28112687039602
H           35.72753082407496       16.53541811060767       29.69511777364451
C           35.30177122958339       19.32346942849943       29.15027933589488
H           35.85362063111243       20.25263145257458       29.06425024372618
C           35.10928282775711       18.58924838918653       28.05871688925269
H           34.52879940506897       17.68338242157843       28.07203758522666
H           35.50642941894128       18.88672201671685       27.10212415663662
C           34.58711938861668       24.35012706714987       30.68161951044062
H           33.81899717542895       24.35634293642276       29.90625322303862
H           35.44936755740262       23.80822201000324       30.29594460907454
H           34.88293505458959       25.37850297161649       30.88021592972157
C           33.46108237901954       25.72952606505844       33.35463397328779
H           33.62286202141465       26.01924242153140       34.38707543660827
C           33.12818203310712       26.66733791033465       32.47266302839149
H           32.90739626738181       26.43579081131777       31.44545008937052
H           33.04056506716525       27.70290909660090       32.75759917543208
C           31.72330332747053       24.04285716092990       38.06515114650782
H           30.99115016763466       24.56344439609663       37.44693792548300
H           32.62868799648303       24.65012985662490       38.09732367085665
H           31.32664375707604       23.96878099097300       39.07485078531632
C           31.36608831178519       21.12541464087688       39.45064665409972
H           31.09746231254464       22.02268055580348       40.00327188663604
H           32.12975316153077       20.59030162779364       40.01576063051878
H           30.48532924524864       20.48605552462368       39.38534262615197
C           28.53316459994966       18.64836762900246       31.96589207720827
H           28.24666435535199       19.11970353035609       31.02565087620651
H           27.64915411156421       18.58984891294156       32.60102830655612
H           28.87982671457773       17.64089208847243       31.75815610020432
N           29.45701438127401       20.72277002208795       33.02243688264947
H           28.62634700324056       21.27814521198646       32.89963788392738
C           29.61358532422445       19.41758880881754       32.63387970131176
C           30.61661515837336       21.12182751916759       33.59169381769153
H           30.78326929068572       22.10177603914194       33.98891746192353
N           31.49611578531161       20.15109488334494       33.58741268733392
C           30.88720255602481       19.08441766349131       32.99547308941229
H           31.40258931033569       18.15499950570156       32.87012087983634
C           38.67215671484296       19.17338795803789       35.76264095306163
H           38.90898673706148       19.13364104119172       36.82598732777286
H           39.46348012225645       19.72763774346020       35.25783117278710
H           38.65346682043899       18.16063042314777       35.37237430836511
N           37.08577521885722       21.10478547783590       35.92353208204022
H           37.73146398342801       21.72872544399261       36.37885847867405
C           37.35229524654998       19.81624529470417       35.53921916420288
C           35.80759087415615       21.37836549469202       35.57762321410935
H           35.32561994072223       22.31712036593774       35.75686344926795
N           35.24960586740183       20.34406005036767       34.99914667487059
C           36.19749093347620       19.36448986484937       34.96803563228081
H           35.98669533685885       18.40674824918727       34.53972678157688
