87
 energy: -128.400381813591 gnorm: 0.234013501570 xtb: 6.7.1 (edcfbbe)
Fe          33.31900000000000       20.21400000000000       34.31300000000000
N           33.10000000000000       18.43000000000000       35.16799999999999
N           33.92200000000000       19.34900000000000       32.64700000000000
N           33.55800000000000       22.00000000000000       33.46100000000000
N           32.72200000000000       21.11800000000000       35.99200000000000
C           32.79500000000000       18.15900000000000       36.46900000000000
C           32.90500000000000       16.71100000000000       36.73100000000000
C           33.20600000000000       16.08100000000000       35.55100000000000
C           33.31500000000000       17.14600000000000       34.58000000000000
C           34.00599999999999       17.97500000000000       32.36300000000000
C           34.49800000000000       17.74600000000000       31.01400000000000
C           34.77399999999999       18.99200000000000       30.48600000000000
C           34.38300000000000       19.95700000000000       31.48800000000000
C           34.09100000000000       22.28200000000000       32.20900000000000
C           34.17899999999999       23.73600000000000       31.95300000000000
C           33.68600000000000       24.32300000000000       33.08400000000000
C           33.27700000000000       23.24600000000000       33.99600000000000
C           32.48400000000000       22.48100000000000       36.20400000000000
C           31.91700000000000       22.71800000000000       37.50500000000000
C           31.77500000000000       21.50600000000000       38.06900000000000
C           32.32700000000000       20.50700000000000       37.16100000000000
C           32.38000000000000       19.12300000000000       37.37900000000000
H           32.06400000000000       18.76800000000000       38.36000000000000
C           33.70800000000000       16.96000000000000       33.26900000000000
H           33.79200000000000       15.93300000000000       32.91400000000000
C           34.47000000000000       21.33800000000000       31.30000000000000
H           34.87300000000000       21.69000000000000       30.35000000000000
C           32.73900000000000       23.44800000000000       35.26100000000000
H           32.49500000000000       24.47500000000000       35.53200000000000
C           33.39500000000000       14.58500000000000       35.30400000000000
H           33.07600000000000       14.01700000000000       36.20400000000000
H           34.46600000000000       14.37000000000000       35.10399999999999
H           32.77600000000000       14.26600000000000       34.43900000000000
C           32.75900000000000       16.05400000000000       38.08900000000000
H           31.73900000000000       15.62400000000000       38.18500000000000
H           32.90900000000000       16.81000000000000       38.89000000000000
H           33.50500000000000       15.23700000000000       38.19300000000000
C           34.76100000000000       16.37800000000000       30.38400000000000
H           33.87300000000000       15.72600000000000       30.52900000000000
H           35.64000000000000       15.90300000000000       30.87100000000000
H           34.94799999999999       16.49600000000000       29.29500000000000
C           35.51400000000000       19.35200000000000       29.33700000000000
H           36.28100000000000       20.12300000000000       29.48200000000000
C           35.42700000000000       18.88500000000000       28.04500000000000
H           34.69300000000000       18.11000000000000       27.78000000000000
H           36.09000000000000       19.28100000000000       27.26200000000000
C           34.76100000000000       24.37100000000000       30.66500000000000
H           33.99800000000000       24.33800000000000       29.85800000000000
H           35.65700000000000       23.80200000000000       30.33800000000000
H           35.03400000000000       25.43000000000000       30.85900000000000
C           33.56700000000000       25.69300000000000       33.35700000000000
H           33.83200000000000       26.08299999999999       34.35099999999999
C           33.11900000000000       26.59000000000000       32.40000000000000
H           32.84400000000000       26.24200000000000       31.39399999999999
H           33.03300000000000       27.66100000000000       32.63500000000000
C           31.59000000000000       24.05900000000000       38.14600000000000
H           30.62300000000000       24.43500000000000       37.74700000000000
H           32.38800000000000       24.79400000000000       37.90699999999999
H           31.50300000000000       23.93800000000000       39.24700000000000
C           31.06600000000000       21.20200000000000       39.36599999999999
H           30.24900000000000       21.93800000000000       39.52399999999999
H           31.78300000000000       21.27300000000000       40.21099999999999
H           30.62800000000000       20.18200000000000       39.32400000000000
C           28.51300000000000       18.76800000000000       31.92800000000000
H           28.31200000000000       19.26900000000000       30.95700000000000
H           27.56900000000000       18.72400000000000       32.51200000000000
H           28.88800000000000       17.73999999999999       31.73300000000000
N           29.38500000000000       20.87100000000000       33.08000000000000
H           28.57600000000000       21.44300000000000       32.94800000000000
C           29.54200000000000       19.54600000000000       32.68800000000000
C           30.53000000000000       21.19100000000000       33.65600000000000
H           30.73600000000000       22.18300000000000       34.05700000000000
N           31.34500000000000       20.19200000000000       33.67500000000000
C           30.78300000000000       19.07500000000000       33.05500000000000
H           31.28800000000000       18.12600000000000       32.94600000000000
C           38.57000000000000       19.06600000000000       35.85100000000000
H           38.96400000000000       19.39399999999999       36.83700000000000
H           39.31200000000000       19.31900000000000       35.06400000000000
H           38.40300000000000       17.96800000000000       35.87700000000000
N           37.14800000000000       21.15300000000000       35.48500000000000
H           37.86600000000000       21.82300000000000       35.67400000000000
C           37.25800000000000       19.77800000000000       35.56700000000000
C           35.87900000000000       21.37900000000000       35.10000000000000
H           35.48800000000000       22.38100000000000       34.92300000000000
N           35.20900000000000       20.29000000000000       34.97200000000000
C           36.01700000000000       19.19100000000000       35.25700000000000
H           35.66799999999999       18.16900000000000       35.21800000000000
87
 energy: -128.446910649715 gnorm: 0.099841624548 xtb: 6.7.1 (edcfbbe)
Fe          33.32019908506368       20.21459440348982       34.30955182324972
N           33.10080171084324       18.41008859555664       35.16115651826406
N           33.92506197377887       19.33543601311676       32.62875331470769
N           33.55971066189831       22.01739754993234       33.44782076959245
N           32.71239328928288       21.12112242600117       35.99586667956274
C           32.79969142037081       18.15687438653412       36.46347358204739
C           32.90182561888742       16.72281309169557       36.73741498374509
C           33.19900725370313       16.10279812188462       35.55744608204621
C           33.32737187128183       17.15988507032634       34.57983243687740
C           33.99909884624581       17.98033228741621       32.35479338886370
C           34.49953557010788       17.74619238364975       31.01952818393715
C           34.78288066767112       18.98494777106105       30.49129187094789
C           34.39544902212005       19.94968417512764       31.49700044422341
C           34.08963475725391       22.28152351244133       32.20616661396421
C           34.17501275844703       23.71534907549227       31.95112545880932
C           33.67786167421156       24.31535933745901       33.07676697790291
C           33.29792384586405       23.24524535370400       33.99595267096499
C           32.49081601378953       22.47103638087957       36.19579998658644
C           31.92233513945994       22.70711753537252       37.50056048890070
C           31.77051124382749       21.48456429376872       38.07018740693147
C           32.30406170633282       20.49855346927688       37.14404679450187
C           32.38134801076012       19.12463050424277       37.37220935598969
H           32.07108149376724       18.77488598855484       38.35213218966492
C           33.70300530918615       16.97071501514742       33.26384447630961
H           33.79874755894860       15.94603542985258       32.91802438528232
C           34.47599097553967       21.32403567372234       31.30088441777611
H           34.86675534671299       21.67259292665561       30.35129593073180
C           32.75284573751867       23.44970674649193       35.25628479104236
H           32.50691561704804       24.47180075686230       35.52876434766499
C           33.38983186698903       14.62148194568359       35.30911141597341
H           33.08050028036435       14.04064771974241       36.18525247369949
H           34.44182039614034       14.38460395632893       35.10372738632918
H           32.79112281300586       14.28326775628905       34.45520714827205
C           32.75366548886984       16.06557491481476       38.08059653269544
H           31.75179439745964       15.63156022086778       38.18969384938480
H           32.90714040452241       16.79307303908500       38.88259751174331
H           33.48733065071072       15.25889896883867       38.19351447259772
C           34.75330275742132       16.39539001294877       30.39770739064942
H           33.88578607402867       15.73832818184679       30.52780264952701
H           35.62078887575681       15.91318410973617       30.86504504367068
H           34.94986115007111       16.49781515082391       29.32648380394275
C           35.51861073736808       19.35114265867010       29.31479113203639
H           36.26946305127401       20.12702558629761       29.47124300180321
C           35.42583865120117       18.88251518198910       28.06181929276476
H           34.69850238042578       18.12829736942162       27.78544952482123
H           36.07360805466553       19.26397089566475       27.28093325615367
C           34.74786145492955       24.35053287571325       30.69534676204997
H           34.01036961506696       24.33045147154066       29.88268987654573
H           35.63698338934802       23.80918984972526       30.35434420700904
H           35.02295475174724       25.39703527784691       30.87241490327928
C           33.55206939276192       25.71460163412799       33.34188973664388
H           33.80926029502089       26.08591508941424       34.33451962662771
C           33.13054463918706       26.58927025184283       32.41318325391164
H           32.84350331933146       26.25197819811562       31.42446070422987
H           33.04003903066157       27.64579844531752       32.63246576487473
C           31.59211347370162       24.04024375547870       38.12646613039071
H           30.63882567118534       24.43095952121296       37.74796627717315
H           32.37255383213546       24.77738792930069       37.90851469795413
H           31.50846362314608       23.93787520000473       39.21404747203318
C           31.07472625451959       21.19459043101219       39.36541720937026
H           30.26851722401790       21.91994105342100       39.52605341397343
H           31.77132577979185       21.26124693871720       40.20891203103122
H           30.63529546266071       20.19405316468302       39.33824208884144
C           28.49792606599135       18.77012759245176       31.92348321049766
H           28.29848564389322       19.25613648589123       30.96207683792045
H           27.56555605079460       18.71545368556331       32.49473892241601
H           28.87042272901718       17.76001552958019       31.73675239449062
N           29.38644350550314       20.84470200739154       33.06727057154101
H           28.57271273205954       21.41998053593181       32.93456887543918
C           29.53026213710611       19.53097216614310       32.67660760774400
C           30.54264715392672       21.18379915416833       33.66204314282984
H           30.74087110609551       22.16638343656272       34.06012751179662
N           31.37691591760979       20.19051799481309       33.67697964922850
C           30.77181603782832       19.11217871105772       33.06144498005322
H           31.27276000198816       18.16885197826957       32.95346907701369
C           38.56651757259495       19.07079988313535       35.85776825121173
H           38.96647844235274       19.38728318531125       36.82740754108817
H           39.30250712405871       19.31038478902608       35.08171715905335
H           38.40690813589450       17.99056307601673       35.87614148239013
N           37.15358364332938       21.12689575100390       35.48040492227902
H           37.87563386496431       21.79944688462277       35.67177670609247
C           37.26923334465879       19.76031453039180       35.56545805014115
C           35.87903505904550       21.37830102349429       35.10689266005625
H           35.49503770229992       22.37083944408494       34.93646025438677
N           35.20138225279589       20.28384223436516       34.96339411076580
C           36.03858857575568       19.22695723929086       35.25197200277444
H           35.69202578102513       18.21108564919248       35.21615766569723
87
 energy: -128.458512462465 gnorm: 0.021134760529 xtb: 6.7.1 (edcfbbe)
Fe          33.31644394337184       20.21309278915157       34.30532605035949
N           33.10338130693216       18.39574035356444       35.15749073288688
N           33.93103555018686       19.32360212627734       32.61434269511757
N           33.56830670573427       22.03080433403697       33.44097497519667
N           32.69901824589820       21.12136212664946       35.99281026840497
C           32.80088052367753       18.15821089672988       36.45928507345519
C           32.89805580445859       16.73638337489023       36.74301156641874
C           33.19645119153655       16.12354139441685       35.56288089853385
C           33.33340601586492       17.17737170382195       34.58198432040493
C           33.99556985691997       17.98588174296968       32.35051687494470
C           34.50523702064100       17.74702726327644       31.02301672395658
C           34.79919414656713       18.97950911513522       30.49978518418252
C           34.40768280752339       19.94457435980483       31.50599597753567
C           34.08915590760272       22.28038882628517       32.20647545253783
C           34.16888487113231       23.69834826897994       31.95351846028939
C           33.67210529859579       24.30754229273246       33.07619989465621
C           33.31021004312099       23.24315691386078       33.99572760577654
C           32.49459055680489       22.45718016364979       36.18659153631910
C           31.92395215186005       22.69316030233400       37.49336317787376
C           31.76258049837409       21.46597355737473       38.06550954808088
C           32.28533623068841       20.49248204917990       37.12633340380059
C           32.38042055862117       19.12733465924576       37.36422576005727
H           32.07891960471711       18.78208687695001       38.34442782301853
C           33.69774158132850       16.98126547688890       33.26174590851396
H           33.80576292889072       15.95851740740086       32.92469458175792
C           34.48148842584771       21.31205348458447       31.30329450230407
H           34.86230457694923       21.65544430758096       30.35239935996608
C           32.76526759523334       23.44802104058831       35.25520176063467
H           32.53125030590711       24.46707131562557       35.53484186181468
C           33.38580079708440       14.65787389784016       35.31169548269140
H           33.07947290317326       14.07769652508416       36.17966694788674
H           34.43053126499567       14.42174418096031       35.10162675175104
H           32.79415839842294       14.32215787790589       34.46047664550978
C           32.74463256878217       16.08046770366384       38.07602650537402
H           31.75100138143101       15.64520684860596       38.18807752322370
H           32.90078240667987       16.79333487358244       38.87954421661865
H           33.47351128160847       15.27878014257881       38.18711679067490
C           34.74838358474750       16.40773153974848       30.41052330811762
H           33.88535697863300       15.75565456860871       30.53372965523507
H           35.60650798706597       15.92232534645657       30.87693118110834
H           34.95553320577687       16.50791991368061       29.34967774528577
C           35.52474005790295       19.35343186322547       29.30138605756834
H           36.26260783823169       20.13379219529133       29.46930815076065
C           35.41571403255991       18.87747577744846       28.07060596142510
H           34.69492014535590       18.12960509354706       27.79207397831951
H           36.05354522488528       19.24196075594748       27.28320968417546
C           34.73332688645207       24.32904714793979       30.72272574832132
H           34.00666714922541       24.31465933771402       29.90824829250584
H           35.62100038340866       23.79870805777682       30.38159088985429
H           35.00582925073379       25.36703320379030       30.90829948188424
C           33.53776708424089       25.72599463928111       33.33380673255366
H           33.78878309183330       26.07415431308888       34.33013787931221
C           33.12641237792122       26.59380437560782       32.42271952822883
H           32.84184432673482       26.27154056869610       31.43688977538647
H           33.04886809642648       27.64649966031010       32.62822449411359
C           31.59618926021517       24.01992958326656       38.10528932216837
H           30.65040371603254       24.41269255088624       37.72956605061896
H           32.37101294646995       24.75364237692484       37.89165961484235
H           31.51356892821311       23.92488039527187       39.18626363733349
C           31.08469265496722       21.18160726216804       39.36485258640797
H           30.28734555651131       21.90466086469531       39.52991175925220
H           31.77688512085193       21.24677778819377       40.20365071275130
H           30.64468833400764       20.18928060920404       39.35380103569037
C           28.48565971317249       18.76935509125751       31.92130921132631
H           28.28152402292753       19.24938769500211       30.96622413859258
H           27.55853047119542       18.71282595449768       32.48656750395813
H           28.84830874847149       17.76498753920843       31.73502853704861
N           29.39293585505083       20.82457989998150       33.05752221184873
H           28.57738823652710       21.40131690325543       32.92649938121464
C           29.52695541894398       19.51848261148441       32.66587078030426
C           30.55220190322868       21.18065268539567       33.66124358318948
H           30.74006596328236       22.15562262718135       34.06236224648335
N           31.40153671313456       20.18909865604006       33.67130084941456
C           30.77407300063396       19.13959479883467       33.06001677451429
H           31.26902628130645       18.19728456393626       32.95345289127221
C           38.56510064370718       19.07116820527763       35.86336314419265
H           38.96256255336529       19.38659539561830       36.82569928110050
H           39.30185598768659       19.30486155269411       35.09575619582481
H           38.41100934536715       17.99857339894843       35.88049285849547
N           37.16096400916185       21.10899152645740       35.47616764307804
H           37.88557252557496       21.78109937690860       35.66969704482411
C           37.27913761852792       19.74678562342032       35.55839373035204
C           35.88591800199131       21.38236305856448       35.11274876319334
H           35.50827283562657       22.37092691281303       34.95830520474169
N           35.19809666326446       20.28296748237963       34.95361255550113
C           36.05150918341860       19.25308516563675       35.23780513687748
H           35.71067482786413       18.23919291222812       35.20027422690049
87
 energy: -128.460585906620 gnorm: 0.010701175755 xtb: 6.7.1 (edcfbbe)
Fe          33.31634494267582       20.21490306101706       34.30336249667685
N           33.09837647846134       18.40284070653092       35.15634087432736
N           33.93563457804449       19.32415258617814       32.61289565812776
N           33.56632855978398       22.03131997747209       33.44150601917207
N           32.68723140103325       21.11494110624086       35.98491174669747
C           32.79635654828014       18.16556733829541       36.45753722975402
C           32.89285925004414       16.74858655302331       36.74376231526822
C           33.19519871005399       16.13884818568649       35.56427019389636
C           33.33365670688096       17.19155699328583       34.58340225376352
C           33.99822254486351       17.99024359800084       32.35260973653165
C           34.51386006127525       17.74981528836238       31.02665607951200
C           34.81461210089343       18.97935916652403       30.50556533279608
C           34.41967200865680       19.94567704458057       31.51095122668930
C           34.08615466731186       22.27813049506366       32.20962738877569
C           34.15669092278529       23.69336875145867       31.95821577875484
C           33.65897305260918       24.30545214915736       33.07857717277738
C           33.31002604095838       23.24111912985304       33.99900347266866
C           32.49340799189667       22.44693698170074       36.18208481662825
C           31.92044717103361       22.68147505261635       37.48741666228034
C           31.75606547063034       21.45594429052258       38.06049701440612
C           32.27157380543243       20.48774412213505       37.11629884301968
C           32.37300660397225       19.12821312586031       37.36116565866651
H           32.08061285028716       18.78446589036215       38.34361753671995
C           33.69903109665833       16.98816701692992       33.26382301628887
H           33.81267784693118       15.96546635281866       32.93172348213321
C           34.48740227848191       21.31027326143737       31.30696375788774
H           34.86355476044482       21.65117138837722       30.35389756730127
C           32.77433662365831       23.44442369116723       35.26114897520942
H           32.55845393390072       24.46405464937403       35.55014633928987
C           33.38522942745042       14.68056524565593       35.30826525640753
H           33.07925842665355       14.10076609820671       36.17592385797411
H           34.43079562667990       14.45317542392643       35.09478544968803
H           32.79182036552029       14.35487025538266       34.45482412245817
C           32.73139040804219       16.09509605736796       38.07575749239171
H           31.73545377758792       15.66410488403201       38.18544630433570
H           32.88862953548532       16.80632636717440       38.88150211024632
H           33.45784220443333       15.29109707652324       38.18742518061016
C           34.75038028409683       16.40873226483880       30.42201900955617
H           33.87772756921088       15.76769532119856       30.53782254587675
H           35.59743219696590       15.91645080353601       30.90245379215704
H           34.97300552320956       16.50671631269247       29.36375148105181
C           35.53067785631177       19.35198901664866       29.29888201615001
H           36.26167481064495       20.13951674327379       29.45827841178022
C           35.40370542268343       18.86115900124827       28.07250339111697
H           34.67391545278871       18.11617624152185       27.80834159380913
H           36.02493726278988       19.22106909942070       27.26806587385306
C           34.72539857113696       24.32152435602934       30.73459856401798
H           34.00153208322713       24.30487960134595       29.91801580002892
H           35.61519034160864       23.78925208817757       30.40173794442279
H           34.99342927015077       25.35794961270733       30.93194818135325
C           33.52406891696710       25.72610247651752       33.33639775938989
H           33.76432661396233       26.06128378573906       34.33959584207377
C           33.12914754210348       26.60687778872105       32.42409993848319
H           32.83612030706892       26.29494139682982       31.43648996906069
H           33.05050581726380       27.65892606061304       32.63695383719311
C           31.59566987878446       24.00949619948945       38.08717374932876
H           30.65234386363017       24.39954242023291       37.70214498036730
H           32.37488951492726       24.73685318655878       37.86750547363590
H           31.51086726091087       23.91966011031240       39.16812053135588
C           31.09829091996941       21.16659560876201       39.36907856454771
H           30.30379891873379       21.88969291617510       39.54811942644365
H           31.80414396806929       21.22902410099973       40.19768951893156
H           30.65785441962670       20.17311038085534       39.36764759533853
C           28.47716559008338       18.76714485378480       31.92171106311676
H           28.26336066647679       19.24725976206823       30.96752381285642
H           27.55254384430516       18.71635828299786       32.49382568277788
H           28.82696070399463       17.75802401899438       31.73099481185103
N           29.39876647497917       20.81692211503248       33.05043091204214
H           28.58249638419319       21.39263425919523       32.92253550214621
C           29.53100511659831       19.51139866865723       32.65658764839505
C           30.55772279232855       21.17871596554540       33.65152075506680
H           30.73974552973504       22.15141908215055       34.05975367509511
N           31.41212714606155       20.18731386074048       33.65638623698199
C           30.78454917315553       19.14161342243483       33.04598022087576
H           31.27790901755113       18.19905670178755       32.93683676967939
C           38.57013643657277       19.06599885726254       35.86753999000008
H           38.95664247787823       19.38540429361265       36.83388970364481
H           39.31728817778616       19.29681088795896       35.10813969615669
H           38.41692522426446       17.99243960954511       35.88753494334764
N           37.17298985460280       21.10545737885671       35.47613550221583
H           37.89992372842484       21.77346451715909       35.67344331015925
C           37.28851253890504       19.74229349051312       35.54730650058837
C           35.89930198153067       21.38880834614223       35.11905902824351
H           35.52381317307073       22.38142261356334       34.98620059941553
N           35.20553553035534       20.29058310917628       34.94733490569276
C           36.05765530956997       19.25864038978288       35.21469019052422
H           35.72069976094074       18.24437925629042       35.16429432767008
87
 energy: -128.461951171914 gnorm: 0.010143022805 xtb: 6.7.1 (edcfbbe)
Fe          33.31497813088596       20.21897895042412       34.30067366058213
N           33.09695981609916       18.41718809606392       35.15566918061404
N           33.94687765011102       19.32882671096004       32.61557985788689
N           33.56730024663887       22.02987197312361       33.44734340672530
N           32.67589331767824       21.10656237071983       35.97534001436407
C           32.79086045447143       18.17545504828198       36.45537735413433
C           32.88623399663338       16.76183090782973       36.74213668994180
C           33.19465389753297       16.15489187274135       35.56371053775499
C           33.33573585254005       17.20871957527738       34.58494295763646
C           34.00761013942603       17.99666263457356       32.35744748623166
C           34.52677219515603       17.75427111763044       31.03137885156210
C           34.83310952545381       18.98129932619651       30.51161766685823
C           34.43602491592340       19.95006020965135       31.51665018553087
C           34.08178342621469       22.27718105510929       32.21513337901183
C           34.13988788205806       23.69146444274682       31.96259216096705
C           33.64171716402338       24.30483817368077       33.08205101856119
C           33.30715597543636       23.23915798388359       34.00423784598310
C           32.48931337936068       22.43601811876157       36.17768288141676
C           31.91679098023176       22.67070972628133       37.48251095581004
C           31.74912440773574       21.44738858613555       38.05538983737824
C           32.25878941423630       20.48354249989303       37.10760723041774
C           32.36365353494918       19.12892389791572       37.35990508616547
H           32.07717927216612       18.78601242913864       38.34336713526112
C           33.70559281045954       16.99648482916536       33.26743007040394
H           33.82174180946095       15.97352840999197       32.94026879067374
C           34.49423654231537       21.31281529881837       31.31172981634207
H           34.86943734252736       21.65284289408303       30.35822880052325
C           32.78183957986437       23.44025532749386       35.26933412128739
H           32.58699078902410       24.46026716613221       35.56971809876836
C           33.38631579889474       14.70169240995857       35.29968021622780
H           33.08331059283560       14.11750729376030       36.16527637014570