87
 energy: -128.400381813591 gnorm: 0.234013501570 xtb: 6.7.1 (edcfbbe)
Fe          33.31900000000000       20.21400000000000       34.31300000000000
N           33.10000000000000       18.43000000000000       35.16799999999999
N           33.92200000000000       19.34900000000000       32.64700000000000
N           33.55800000000000       22.00000000000000       33.46100000000000
N           32.72200000000000       21.11800000000000       35.99200000000000
C           32.79500000000000       18.15900000000000       36.46900000000000
C           32.90500000000000       16.71100000000000       36.73100000000000
C           33.20600000000000       16.08100000000000       35.55100000000000
C           33.31500000000000       17.14600000000000       34.58000000000000
C           34.00599999999999       17.97500000000000       32.36300000000000
C           34.49800000000000       17.74600000000000       31.01400000000000
C           34.77399999999999       18.99200000000000       30.48600000000000
C           34.38300000000000       19.95700000000000       31.48800000000000
C           34.09100000000000       22.28200000000000       32.20900000000000
C           34.17899999999999       23.73600000000000       31.95300000000000
C           33.68600000000000       24.32300000000000       33.08400000000000
C           33.27700000000000       23.24600000000000       33.99600000000000
C           32.48400000000000       22.48100000000000       36.20400000000000
C           31.91700000000000       22.71800000000000       37.50500000000000
C           31.77500000000000       21.50600000000000       38.06900000000000
C           32.32700000000000       20.50700000000000       37.16100000000000
C           32.38000000000000       19.12300000000000       37.37900000000000
H           32.06400000000000       18.76800000000000       38.36000000000000
C           33.70800000000000       16.96000000000000       33.26900000000000
H           33.79200000000000       15.93300000000000       32.91400000000000
C           34.47000000000000       21.33800000000000       31.30000000000000
H           34.87300000000000       21.69000000000000       30.35000000000000
C           32.73900000000000       23.44800000000000       35.26100000000000
H           32.49500000000000       24.47500000000000       35.53200000000000
C           33.39500000000000       14.58500000000000       35.30400000000000
H           33.07600000000000       14.01700000000000       36.20400000000000
H           34.46600000000000       14.37000000000000       35.10399999999999
H           32.77600000000000       14.26600000000000       34.43900000000000
C           32.75900000000000       16.05400000000000       38.08900000000000
H           31.73900000000000       15.62400000000000       38.18500000000000
H           32.90900000000000       16.81000000000000       38.89000000000000
H           33.50500000000000       15.23700000000000       38.19300000000000
C           34.76100000000000       16.37800000000000       30.38400000000000
H           33.87300000000000       15.72600000000000       30.52900000000000
H           35.64000000000000       15.90300000000000       30.87100000000000
H           34.94799999999999       16.49600000000000       29.29500000000000
C           35.51400000000000       19.35200000000000       29.33700000000000
H           36.28100000000000       20.12300000000000       29.48200000000000
C           35.42700000000000       18.88500000000000       28.04500000000000
H           34.69300000000000       18.11000000000000       27.78000000000000
H           36.09000000000000       19.28100000000000       27.26200000000000
C           34.76100000000000       24.37100000000000       30.66500000000000
H           33.99800000000000       24.33800000000000       29.85800000000000
H           35.65700000000000       23.80200000000000       30.33800000000000
H           35.03400000000000       25.43000000000000       30.85900000000000
C           33.56700000000000       25.69300000000000       33.35700000000000
H           33.83200000000000       26.08299999999999       34.35099999999999
C           33.11900000000000       26.59000000000000       32.40000000000000
H           32.84400000000000       26.24200000000000       31.39399999999999
H           33.03300000000000       27.66100000000000       32.63500000000000
C           31.59000000000000       24.05900000000000       38.14600000000000
H           30.62300000000000       24.43500000000000       37.74700000000000
H           32.38800000000000       24.79400000000000       37.90699999999999
H           31.50300000000000       23.93800000000000       39.24700000000000
C           31.06600000000000       21.20200000000000       39.36599999999999
H           30.24900000000000       21.93800000000000       39.52399999999999
H           31.78300000000000       21.27300000000000       40.21099999999999
H           30.62800000000000       20.18200000000000       39.32400000000000
C           28.51300000000000       18.76800000000000       31.92800000000000
H           28.31200000000000       19.26900000000000       30.95700000000000
H           27.56900000000000       18.72400000000000       32.51200000000000
H           28.88800000000000       17.73999999999999       31.73300000000000
N           29.38500000000000       20.87100000000000       33.08000000000000
H           28.57600000000000       21.44300000000000       32.94800000000000
C           29.54200000000000       19.54600000000000       32.68800000000000
C           30.53000000000000       21.19100000000000       33.65600000000000
H           30.73600000000000       22.18300000000000       34.05700000000000
N           31.34500000000000       20.19200000000000       33.67500000000000
C           30.78300000000000       19.07500000000000       33.05500000000000
H           31.28800000000000       18.12600000000000       32.94600000000000
C           38.57000000000000       19.06600000000000       35.85100000000000
H           38.96400000000000       19.39399999999999       36.83700000000000
H           39.31200000000000       19.31900000000000       35.06400000000000
H           38.40300000000000       17.96800000000000       35.87700000000000
N           37.14800000000000       21.15300000000000       35.48500000000000
H           37.86600000000000       21.82300000000000       35.67400000000000
C           37.25800000000000       19.77800000000000       35.56700000000000
C           35.87900000000000       21.37900000000000       35.10000000000000
H           35.48800000000000       22.38100000000000       34.92300000000000
N           35.20900000000000       20.29000000000000       34.97200000000000
C           36.01700000000000       19.19100000000000       35.25700000000000
H           35.66799999999999       18.16900000000000       35.21800000000000
87
 energy: -128.446910651030 gnorm: 0.099841639839 xtb: 6.7.1 (edcfbbe)
Fe          33.32019908497375       20.21459440239369       34.30955182331046
N           33.10080171198702       18.41008859389906       35.16115651706954
N           33.92506197140838       19.33543601277107       32.62875331279663
N           33.55971066218297       22.01739755105325       33.44782076950776
N           32.71239328716419       21.12112242440972       35.99586667960774
C           32.79969141993444       18.15687438591468       36.46347358295601
C           32.90182561921482       16.72281309520596       36.73741498378678
C           33.19900725293935       16.10279812713572       35.55744608474638
C           33.32737187381809       17.15988506720873       34.57983243539830
C           33.99909884388607       17.98033228529268       32.35479338612625
C           34.49953557138775       17.74619238561888       31.01952818411577
C           34.78288067112898       18.98494777073593       30.49129186775164
C           34.39544902736053       19.94968417264156       31.49700044303272
C           34.08963475800930       22.28152350994615       32.20616661118463
C           34.17501275761381       23.71534907245892       31.95112546005005
C           33.67786167316336       24.31535933990661       33.07676697485199
C           33.29792384995764       23.24524535614851       33.99595267105173
C           32.49081601480786       22.47103638125230       36.19579998672878
C           31.92233514075578       22.70711752930767       37.50056048809861
C           31.77051124328820       21.48456429184411       38.07018740485944
C           32.30406170064596       20.49855346760739       37.14404679505844
C           32.38134801052821       19.12463050399106       37.37220935184685
H           32.07108149603957       18.77488598970702       38.35213218736347
C           33.70300530713897       16.97071501963354       33.26384447617970
H           33.79874756089485       15.94603543541969       32.91802438556294
C           34.47599097501282       21.32403567226019       31.30088441936218
H           34.86675534574682       21.67259292247716       30.35129593063781
C           32.75284574056028       23.44970674473499       35.25628479059745
H           32.50691562021496       24.47180075491115       35.52876434619245
C           33.38983186579583       14.62148195423674       35.30911141674256
H           33.08050028255104       14.04064772387212       36.18525246825498
H           34.44182038869045       14.38460395903244       35.10372738671094
H           32.79112281736574       14.28326776036604       34.45520715276425
C           32.75366548804347       16.06557491858584       38.08059653035646
H           31.75179440109886       15.63156022310853       38.18969385070281
H           32.90714040315039       16.79307303622746       38.88259750941137
H           33.48733064561222       15.25889897374140       38.19351447329014
C           34.75330275594181       16.39539001769774       30.39770739440160
H           33.88578607672629       15.73832818561633       30.52780264837623
H           35.62078887157094       15.91318411226038       30.86504504175130
H           34.94986115073540       16.49781515102715       29.32648381123798
C           35.51861073690936       19.35114265946967       29.31479113539135
H           36.26946304979991       20.12702558783265       29.47124299904835
C           35.42583865177973       18.88251517886346       28.06181929350237
H           34.69850238124704       18.12829737375190       27.78544952771066
H           36.07360804951499       19.26397089097252       27.28093325977308
C           34.74786145204170       24.35053287018487       30.69534676758875
H           34.01036961899033       24.33045147041748       29.88268988212030
H           35.63698338430614       23.80918985215936       30.35434420973465
H           35.02295474822598       25.39703526914044       30.87241490703092
C           33.55206939036935       25.71460163047470       33.34188973569970
H           33.80926028969145       26.08591508964797       34.33451962257215
C           33.13054464143766       26.58927025459202       32.41318325242071
H           32.84350331945762       26.25197820013678       31.42446071046346
H           33.04003903175322       27.64579844189203       32.63246576540939
C           31.59211347418754       24.04024374992859       38.12646612500880
H           30.63882567502290       24.43095952166604       37.74796627761772
H           32.37255382752918       24.77738792539155       37.90851470021432
H           31.50846362443879       23.93787520195622       39.21404746406682
C           31.07472625790098       21.19459042954731       39.36541720877314
H           30.26851722937842       21.91994104720673       39.52605341530456
H           31.77132577722443       21.26124693694788       40.20891203158828
H           30.63529546206930       20.19405316813605       39.33824209146922
C           28.49792606040419       18.77012758980608       31.92348320730076
H           28.29848564105352       19.25613648399116       30.96207683745179
H           27.56555604926121       18.71545368457240       32.49473892111687
H           28.87042272546607       17.76001553074908       31.73675239432758
N           29.38644350634553       20.84470200690157       33.06727057047058
H           28.57271273122386       21.41998053030682       32.93456887167882
C           29.53026213404191       19.53097216516769       32.67660760495001
C           30.54264715550982       21.18379914929459       33.66204314301308
H           30.74087110995310       22.16638343609830       34.06012751582564
N           31.37691591978835       20.19051799915893       33.67697964964862
C           30.77181603744086       19.11217871262523       33.06144498028691
H           31.27275999951768       18.16885198690117       32.95346907853608
C           38.56651757310283       19.07079988337381       35.85776825313300
H           38.96647844335923       19.38728318471288       36.82740754178096
H           39.30250712213549       19.31038478894622       35.08171716189295
H           38.40690813537308       17.99056307864548       35.87614148168639
N           37.15358364727836       21.12689574922914       35.48040492227678
H           37.87563386710719       21.79944687706586       35.67177670453773
C           37.26923334760981       19.76031453029785       35.56545804974539
C           35.87903505922576       21.37830101863755       35.10689266091779
H           35.49503770181724       22.37083944493929       34.93646025852362
N           35.20138225563267       20.28384223790906       34.96339410941807
C           36.03858857874375       19.22695723982096       35.25197200067462
H           35.69202578628509       18.21108565887298       35.21615766446398
87
 energy: -128.458512463664 gnorm: 0.021134776596 xtb: 6.7.1 (edcfbbe)
Fe          33.31644394856551       20.21309279089155       34.30532604658337
N           33.10338130571405       18.39574036233810       35.15749073039625
N           33.93103555574400       19.32360213018515       32.61434269412025
N           33.56830670675807       22.03080433127166       33.44097497435369
N           32.69901823555674       21.12136211785898       35.99281026181080
C           32.80088052160217       18.15821090243454       36.45928507079167
C           32.89805580108909       16.73638338735332       36.74301156561323
C           33.19645118941724       16.12354141059985       35.56288090070631
C           33.33340601878011       17.17737170455277       34.58198431890001
C           33.99556985657038       17.98588174197785       32.35051686996049
C           34.50523702118988       17.74702726729454       31.02301672663812
C           34.79919415980522       18.97950911514556       30.49978518409915
C           34.40768282414312       19.94457435656113       31.50599597639093
C           34.08915590979823       22.28038882000239       32.20647544876331
C           34.16888486062660       23.69834826342348       31.95351846137381
C           33.67210529138651       24.30754229323582       33.07619988825785
C           33.31021005255456       23.24315691306947       33.99572760792041
C           32.49459055865236       22.45718016164650       36.18659153564609
C           31.92395214963518       22.69316029102814       37.49336317459140
C           31.76258049232371       21.46597354939270       38.06550954236787
C           32.28533621359019       20.49248204414006       37.12633339963412
C           32.38042055195694       19.12733465861214       37.36422575337419
H           32.07891961087513       18.78208688003640       38.34442781954312
C           33.69774157863080       16.98126548611251       33.26174590942552
H           33.80576293636410       15.95851741920166       32.92469458517415
C           34.48148843394100       21.31205348205360       31.30329450569100
H           34.86230457377395       21.65544429809317       30.35239935812686
C           32.76526761032045       23.44802103384501       35.25520176263539
H           32.53125032764288       24.46707131114860       35.53484186363902
C           33.38580079452459       14.65787391994026       35.31169548219501
H           33.07947290026158       14.07769654547102       36.17966693919390
H           34.43053125791246       14.42174420341914       35.10162675003223
H           32.79415840239651       14.32215790393398       34.46047664354882
C           32.74463256237178       16.08046771874001       38.07602650127744
H           31.75100137779469       15.64520686326017       38.18807752270239
H           32.90078240264088       16.79333488039828       38.87954421738607
H           33.47351126994943       15.27878015804704       38.18711679069830
C           34.74838358257328       16.40773154666321       30.41052331973462
H           33.88535697606844       15.75565457903754       30.53372965821451
H           35.60650797809329       15.92232535021424       30.87693119486016
H           34.95553321449817       16.50791991781229       29.34967776288320
C           35.52474005670671       19.35343186126401       29.30138606228550
H           36.26260783184865       20.13379220124254       29.46930812968031
C           35.41571402484794       18.87747577151905       28.07060596680717
H           34.69492013277038       18.12960509483095       27.79207399351384
H           36.05354521358749       19.24196073882482       27.28320968873622
C           34.73332688093908       24.32904713780242       30.72272575904254
H           34.00666714785896       24.31465932791301       29.90824830586136
H           35.62100037797271       23.79870805153717       30.38159090797800
H           35.00582924031504       25.36703318719335       30.90829950269447
C           33.53776707504605       25.72599463051344       33.33380673137001
H           33.78878306359676       26.07415430857936       34.33013787817897
C           33.12641237305378       26.59380437864892       32.42271953354773
H           32.84184432148014       26.27154057627828       31.43688978443954
H           33.04886810929536       27.64649965953706       32.62822449889373
C           31.59618925974558       24.01992957262092       38.10528930897546
H           30.65040372266596       24.41269254614384       37.72956603578309
H           32.37101294348895       24.75364236311828       37.89165960343173
H           31.51356893055551       23.92488039363695       39.18626361909785
C           31.08469266427801       21.18160724923071       39.36485259008718
H           30.28734557239651       21.90466084859427       39.52991177323243
H           31.77688512776458       21.24677777278612       40.20365071325133
H           30.64468833939755       20.18928060296247       39.35380104756143
C           28.48565970047953       18.76935508855258       31.92130920824765
H           28.28152400419317       19.24938768693048       30.96622413654788
H           27.55853046065523       18.71282594992715       32.48656749991603
H           28.84830873415590       17.76498754136623       31.73502853654774
N           29.39293585476008       20.82457989891507       33.05752220526043
H           28.57738823095272       21.40131689543708       32.92649937120649
C           29.52695541499499       19.51848260905989       32.66587077166356
C           30.55220190360614       21.18065267900761       33.66124358028671
H           30.74006596261002       22.15562261975464       34.06236225062683
N           31.40153671542740       20.18909865976866       33.67130084338564
C           30.77407299871432       19.13959479768718       33.06001676292571
H           31.26902627953402       18.19728457289217       32.95345288325282
C           38.56510064852496       19.07116820214917       35.86336314902771
H           38.96256255563120       19.38659538932205       36.82569928490334
H           39.30185599531677       19.30486154719383       35.09575620767490
H           38.41100934563975       17.99857340316913       35.88049286342853
N           37.16096402601372       21.10899152735938       35.47616764226745
H           37.88557254428779       21.78109936876304       35.66969704518915
C           37.27913762637817       19.74678562307962       35.55839372431230
C           35.88591801103996       21.38236305725938       35.11274877082908
H           35.50827284795521       22.37092691760235       34.95830522638285
N           35.19809667310606       20.28296748937118       34.95361255130343
C           36.05150919506141       19.25308516578801       35.23780512303251
H           35.71067484525626       18.23919292442210       35.20027420807610
87
 energy: -128.460585904477 gnorm: 0.010701179712 xtb: 6.7.1 (edcfbbe)
Fe          33.31634492505879       20.21490305816535       34.30336249240189
N           33.09837649153337       18.40284070070234       35.15634087267578
N           33.93563456338671       19.32415258637528       32.61289565374088
N           33.56632857321323       22.03131997149913       33.44150601888307
N           32.68723141399465       21.11494111863232       35.98491174766430
C           32.79635656066230       18.16556733510220       36.45753722791419
C           32.89285926000537       16.74858654835297       36.74376231520379
C           33.19519871729837       16.13884817684249       35.56427019622316
C           33.33365671334155       17.19155697894852       34.58340225161532
C           33.99822253874427       17.99024359615882       32.35260972723540
C           34.51386005062058       17.74981528888245       31.02665607505196
C           34.81461206733481       18.97935917162830       30.50556532021300
C           34.41967197721476       19.94567704070177       31.51095121553624
C           34.08615466283518       22.27813048906692       32.20962738134160
C           34.15669093267908       23.69336874355212       31.95821576847738
C           33.65897308152759       24.30545214427476       33.07857716742402
C           33.31002604901929       23.24111912788132       33.99900346433166
C           32.49340800112506       22.44693699846316       36.18208481849939
C           31.92044719625051       22.68147506879302       37.48741666770272
C           31.75606549026830       21.45594430443501       38.06049701866547
C           32.27157382803239       20.48774413164669       37.11629884999869
C           32.37300662033015       19.12821313021262       37.36116565684011
H           32.08061286244957       18.78446589470275       38.34361753562143
C           33.69903109748191       16.98816701370191       33.26382301331915
H           33.81267786455677       15.96546634705468       32.93172348024516
C           34.48740224714309       21.31027325744273       31.30696374451868
H           34.86355472094781       21.65117138013915       30.35389755290778
C           32.77433662079996       23.44442369530368       35.26114896277693
H           32.55845391176897       24.46405465398466       35.55014631050870
C           33.38522943431586       14.68056523044141       35.30826527512332
H           33.07925842775016       14.10076609806265       36.17592388232628
H           34.43079563686275       14.45317541149623       35.09478548040877
H           32.79182037964613       14.35487022865861       34.45482413804284
C           32.73139043074129       16.09509603632423       38.07575748623940
H           31.73545380478410       15.66410484518587       38.18544629057119
H           32.88862955040977       16.80632634359347       38.88150211180015
H           33.45784224415114       15.29109706585047       38.18742515656169
C           34.75038031283233       16.40873227603205       30.42201899465361
H           33.87772763205196       15.76769528877646       30.53782255656421
H           35.59743226604719       15.91645086537133       30.90245375805905
H           34.97300551896291       16.50671634412549       29.36375145877697
C           35.53067782225719       19.35198903913045       29.29888201549806
H           36.26167477034147       20.13951677434069       29.45827841934282
C           35.40370541589206       18.86115905623533       28.07250337800441
H           34.67391547062915       18.11617628362021       27.80834155075106
H           36.02493728757219       19.22106916419868       27.26806589425848
C           34.72539856230645       24.32152434225040       30.73459854750122
H           34.00153205548877       24.30487959050756       29.91801579862058
H           35.61519032448635       23.78925206292476       30.40173791633187
H           34.99342927153423       25.35794959568267       30.93194816624529
C           33.52406894913538       25.72610246875012       33.33639774577131
H           33.76432667250621       26.06128380148452       34.33959581641244
C           33.12914754283651       26.60687776469369       32.42409993187827
H           32.83612032425123       26.29494135701179       31.43648996124762
H           33.05050585898487       27.65892604491316       32.63695380443131
C           31.59566992093255       24.00949621151929       38.08717378444535
H           30.65234389770466       24.39954243586309       37.70214504079237
H           32.37488955371762       24.73685320191632       37.86750550402513
H           31.51086732297376       23.91966010057935       39.16812056654423
C           31.09829091240427       21.16659564273746       39.36907856195900
H           30.30379891316349       21.88969296241668       39.54811939278422
H           31.80414393941895       21.22902414109207       40.19768953400435
H           30.65785440798847       20.17311041576535       39.36764758728314
C           28.47716561281069       18.76714484151662       31.92171102522305
H           28.26336072819733       19.24725974676136       30.96752376663145
H           27.55254384614349       18.71635825925731       32.49382560791705
H           28.82696075894142       17.75802401665166       31.73099479629334
N           29.39876644406772       20.81692211968382       33.05043090508535
H           28.58249634941653       21.39263425572241       32.92253546696239
C           29.53100510169328       19.51139867056377       32.65658764766655
C           30.55772274812656       21.17871596938879       33.65152077456587
H           30.73974548639582       22.15141909271399       34.05975369015225
N           31.41212709818469       20.18731386768988       33.65638627603740
C           30.78454914200238       19.14161341585979       33.04598026004922
H           31.27790899568116       18.19905669782347       32.93683683697338
C           38.57013640751850       19.06599884417361       35.86753998433667
H           38.95664247550314       19.38540426085580       36.83388969150504
H           39.31728812134720       19.29681089476795       35.10813967426392
H           38.41692518828862       17.99243959978646       35.88753491726968
N           37.17298982210414       21.10545737258900       35.47613553555102
H           37.89992370008690       21.77346450873182       35.67344333998428
C           37.28851250605378       19.74229348423731       35.54730653461983
C           35.89930194608696       21.38880832935333       35.11905905108825
H           35.52381313727428       22.38142259343970       34.98620060726944
N           35.20553550240757       20.29058309442360       34.94733493481068
C           36.05765528144759       19.25864037486136       35.21469024871918
H           35.72069972551414       18.24437924494762       35.16429441222642
87
 energy: -128.461951170212 gnorm: 0.010143022129 xtb: 6.7.1 (edcfbbe)
Fe          33.31497810570323       20.21897894664712       34.30067366711690
N           33.09695980753421       18.41718808434633       35.15566917807123
N           33.94687760097808       19.32882670405163       32.61557984500094
N           33.56730023293743       22.02987196710891       33.44734339983089
N           32.67589332555221       21.10656238719636       35.97534001740220
C           32.79086045960316       18.17545504546767       36.45537735467861
C           32.88623401108859       16.76183090361104       36.74213669373469
C           33.19465390757708       16.15489186355365       35.56371054265822
C           33.33573585112184       17.20871956628936       34.58494295642766
C           34.00761011992650       17.99666263156741       32.35744747602566
C           34.52677217774217       17.75427111578271       31.03137884223798
C           34.83310946717586       18.98129933228111       30.51161764897640
C           34.43602484660678       19.95006020496068       31.51665016951856
C           34.08178340130785       22.27718104703462       32.21513337136130
C           34.13988788565644       23.69146442870633       31.96259214794058
C           33.64171719195767       24.30483816496600       33.08205101544070
C           33.30715597959904       23.23915798200654       34.00423783923117
C           32.48931339590219       22.43601813573153       36.17768288561018
C           31.91679101978454       22.67070974822963       37.48251096569764
C           31.74912443866234       21.44738860477502       38.05538984747007
C           32.25878943560593       20.48354251118706       37.10760723585031
C           32.36365354941870       19.12892390514426       37.35990508896974
H           32.07717929218001       18.78601243716229       38.34336714249999
C           33.70559281081065       16.99648482089838       33.26743006775162
H           33.82174182801822       15.97352839981293       32.94026879146552
C           34.49423648009890       21.31281529101154       31.31172979339203
H           34.86943726734246       21.65284288390796       30.35822877460196
C           32.78183958160066       23.44025533881100       35.26933411382154
H           32.58699077324492       24.46026717837497       35.56971807487131
C           33.38631581621590       14.70169239339808       35.29968024781824
H           33.08331059904916       14.11750729859128       36.16527641142375