72
 energy: -105.980502379582 gnorm: 0.000185853211 xtb: 6.7.1 (edcfbbe)
Fe          17.44888413887659       -1.22401864288987       14.98046772320197
N           16.79351247122184       -2.87206342383651       15.90025810263135
N           18.34200573459715       -0.63124356219659       16.68669954514718
N           18.06554369959940        0.46181862576239       14.07883298646962
N           16.48695902548351       -1.76268676956585       13.32059010116277
C           15.98097149753102       -3.82833614451312       15.38088483936849
C           15.72759252053920       -4.86886080839182       16.35312777625779
C           16.40777255881628       -4.51591083878975       17.47589150209440
C           17.05903221542385       -3.25908940526221       17.17696401390224
C           18.40625333348014       -1.32302205428755       17.85902300089738
C           19.15983009825843       -0.59222838991276       18.84320812442146
C           19.55974741390355        0.57006959255871       18.23758924236678
C           19.03781364400854        0.51932580745790       16.88764123775336
C           18.83264443639527        1.44746451026609       14.62245592986241
C           19.12512199419594        2.46501222163337       13.64577381443024
C           18.51901424728866        2.06803751771059       12.48377314408450
C           17.87124505850399        0.80636852218577       12.78055382940856
C           16.46368466589139       -1.09553245509863       12.13797909701630
C           15.64964116324535       -1.79855310325962       11.16952953160943
C           15.17534036297377       -2.90388142975739       11.80210507649932
C           15.71081019415098       -2.86294117030426       13.14555577837877
C           15.46597786395293       -3.83213854006229       14.09849213265223
H           14.82475833113283       -4.65427612224454       13.82137614442817
C           17.82205805487073       -2.55694487493813       18.08824581460591
H           17.95825118955136       -2.99748517899098       19.06347131180166
C           19.27238809259663        1.48936792455714       15.93308530337991
H           19.86567699492159        2.34043346289995       16.22807902859645
C           17.11539464883248        0.09234621209769       11.87065906991582
H           17.01525308951710        0.49966846337262       10.87678483645936
C           16.50010296107199       -5.21943021902214       18.78578542751187
H           15.95095026490042       -6.15721737172264       18.75969462900917
H           16.08457998097853       -4.60141206246349       19.58207871567917
H           17.53933641788721       -5.43682759963640       19.03361006193640
C           14.87467795032890       -6.06359813905898       16.09980207672780
H           15.26826072694681       -6.64880924994991       15.26808949426947
H           13.85864433859870       -5.75960640625541       15.84823954425452
H           14.83317351312810       -6.70233366426869       16.97846818292036
C           19.37051739288654       -1.02092644312399       20.25284109252597
H           20.20129864712253       -1.72468963601949       20.32515684997427
H           18.47990123812877       -1.50941225325198       20.64531276073916
H           19.59724703923085       -0.15749415212870       20.87487694232937
C           20.32316305134494        1.67090683043553       18.78343824550016
H           20.05991057578541        2.65396237044296       18.41030310463876
C           21.29961653122192        1.56066269612131       19.67769946769656
H           21.63400453811912        0.60670769208133       20.04625597357060
H           21.81908469458204        2.42640225307406       20.05335575258283
C           19.98587042541807        3.65587977322662       13.88174137599250
H           20.83556112051144        3.39705027183706       14.51155222310852
H           19.42587676447792        4.45040939398233       14.37810344924458
H           20.35859344306702        4.03893026681737       12.93420848610405
C           18.51033670903605        2.71260011623785       11.18857622550325
H           18.50982915058629        2.04572057659638       10.33441471546837
C           18.49499557613685        4.02523802113074       10.98356100728363
H           18.50281767851024        4.44017083328931        9.98945468485789
H           18.44786532920439        4.73142499722335       11.79423028842716
C           15.41981642212373       -1.33625327789957        9.77224603660763
H           16.36472685180973       -1.25594402640324        9.23426262719046
H           14.94357498511164       -0.35570882224141        9.76715476641595
H           14.77864704888934       -2.03126380462666        9.23589875820013
C           14.28516684439452       -3.98107411815423       11.28597621538324
H           14.78457035055689       -4.94915895001044       11.33517793143802
H           14.00812316573926       -3.79114032071762       10.25211560426425
H           13.37346592743018       -4.03993269519879       11.88040362076238
O           15.66328048274007       -0.05782727948942       15.68413036822525
H           15.92604611898115        0.13260667393180       16.59214535654119
H           15.76274494373442        0.75976740562383       15.18279184419919
C           19.02538742267373       -3.81463431556000       13.43780976844782
H           19.89578917002873       -4.46264801165695       13.40440727872658
H           18.75376109224016       -3.49994400863424       12.43562565035300
H           18.18188225019750       -4.30722500848234       13.90939656727553
S           19.44467723553606       -2.29658341475508       14.36431888526619
H           19.68194488882890       -2.92404486753374       15.52218990403038
