78
 energy: -116.058080169488 gnorm: 0.000022453532 xtb: 6.7.1 (edcfbbe)
Fe          35.28125309839562        4.40659167566407       10.22322459610955
N           37.13829783299821        4.06624496223614        9.58739083894761
N           34.94145949049293        5.58963196464764        8.65503823554056
N           33.42765760493147        4.78716243248494       10.91728934212838
N           35.63239560240385        3.25814894226054       11.84000111730625
C           38.08995780363106        3.30683132703812       10.19012985501629
C           39.31259908577255        3.30544362746009        9.41545474345646
C           39.07263417378391        4.08095207873687        8.32565146698780
C           37.70778208683811        4.54670580197890        8.45152466070616
C           35.80142628118135        5.85682954871338        7.63757650151451
C           35.20181463669786        6.74952643183160        6.67749641284143
C           33.94546015937261        7.02836511534741        7.14387725841539
C           33.80456313100937        6.27878459576263        8.37911518542969
C           32.48651061160440        5.57970459317784       10.33119373018652
C           31.27119153635637        5.58740433176441       11.10207886724558
C           31.49249553502407        4.76784590274566       12.17831852320305
C           32.84581155698510        4.27107268004539       12.03150673170516
C           34.75335928492917        2.94944771324695       12.83248079268129
C           35.36090790369001        2.05641652476118       13.79264025890773
C           36.62859043221334        1.82740938332319       13.35370944134555
C           36.77772467892871        2.58307335396845       12.13145786731338
C           37.93374338701435        2.60824569896027       11.37323939007642
H           38.77596234290660        2.03533637992024       11.73040431486492
C           37.09291143894259        5.37169171219921        7.53264048360165
H           37.67278619017426        5.67907489021413        6.67586062710969
C           32.66332004808153        6.29230248249781        9.15720495385913
H           31.84005271264521        6.90541028372731        8.82376138093770
C           33.45825484422821        3.42098248605169       12.93389874489689
H           32.88038448568677        3.09707960287852       13.78564756063327
C           39.97990399782358        4.43086429824993        7.19655538215919
H           40.95202846924261        3.95978848110931        7.32018584645637
H           40.12563572291905        5.50987209321496        7.14482821610494
H           39.55658720915812        4.10095068391762        6.24748459216237
C           40.55327745461204        2.57572169892816        9.80300608395250
H           40.36283683331725        1.50471649218319        9.88083281577702
H           40.91644341034853        2.92507295656752       10.76970207141980
H           41.33829139776319        2.73037795177335        9.06698998831684
C           35.83901319461050        7.19722947510000        5.40873066697422
H           36.41433014928145        6.38854727364886        4.96042836455572
H           36.51585032024642        8.03401557155296        5.58831585712284
H           35.07719222252844        7.51751132691652        4.70077206328903
C           32.91564801564682        7.85859224836266        6.55945127074217
H           31.89621469988755        7.52805924283971        6.72361026112836
C           33.12497534559688        8.97070389559894        5.86231199027949
H           34.11084880852917        9.37332769347987        5.70938709505409
H           32.30843832770042        9.53458129051071        5.44244802179787
C           30.02042665263010        6.30146921509195       10.72462919778856
H           29.85970652702238        6.25575690729767        9.64850560587482
H           30.06936045192048        7.35285123254684       11.01316834027137
H           29.16660047574231        5.84762925698886       11.22358762655209
C           30.59572771172405        4.41089230665875       13.25522368538217
H           30.70671619933259        3.40454426747246       13.64246334463235
C           29.67968083658219        5.20985813648174       13.79279929995965
H           29.55741408117148        6.23266562518890       13.48168476756791
H           29.03396300935114        4.87252858822063       14.58659623263387
C           34.67193249280260        1.52929813848608       15.00438536397699
H           33.78864298995443        0.95514419341762       14.72342121869038
H           34.35105071890843        2.34705045258052       15.65022596156689
H           35.33343968144826        0.88215481510437       15.57513604404669
C           37.69982251770223        0.98479725409545       13.95714015768882
H           38.00353058995059        0.19632928078449       13.26782132643249
H           37.35422741731374        0.51994147128449       14.87716755673521
H           38.57838591898723        1.58816596954841       14.18680678040760
O           35.97069969174601        6.17949042328090       11.50353920931622
H           35.11963220268076        6.55284912347389       11.75738609387371
H           36.31020530689183        5.70223184954350       12.26846408887079
C           32.29641720431036        0.87022397449620        7.11548086056764
H           31.81048975196300        0.03858484849836        7.62563280437000
H           32.73564728759712        0.49367115597529        6.19176635664709
H           31.54461056199677        1.61231797012608        6.86606587902539
N           34.41339547205754        0.78379631800646        8.45060942390267
H           34.60962110696373       -0.18636009375987        8.26655976261808
C           33.33436458553898        1.48562028663738        7.98061312225818
C           35.15660389004597        1.62839581496446        9.20068910409556
H           36.06375245025939        1.35150488309535        9.69701177137133
N           34.61398689866605        2.82131726202161        9.23408457800923
C           33.48014034991579        2.74827871207583        8.47935155198508
H           32.84898141067160        3.60235116270413        8.34712841258818
