78
 energy: -115.905285504289 gnorm: 0.317185576539 xtb: 6.7.1 (edcfbbe)
Fe          35.21399999999999        4.34900000000000       10.18600000000000
N           37.02600000000000        4.01500000000000        9.63900000000000
N           34.89899999999999        5.65400000000000        8.68700000000000
N           33.37400000000000        4.72600000000000       10.72900000000000
N           35.58100000000000        3.11500000000000       11.75700000000000
C           38.02900000000000        3.25800000000000       10.21200000000000
C           39.28900000000000        3.24300000000000        9.41400000000000
C           39.03900000000000        4.12800000000000        8.35100000000000
C           37.67399999999999        4.62300000000000        8.51300000000000
C           35.81200000000000        5.97400000000000        7.73200000000000
C           35.25300000000000        6.92700000000000        6.72400000000000
C           33.92700000000000        7.13800000000000        7.14900000000000
C           33.72900000000000        6.32400000000000        8.35400000000000
C           32.41200000000000        5.64700000000000       10.26700000000000
C           31.31400000000000        5.71200000000000       11.13400000000000
C           31.52300000000000        4.90000000000000       12.23300000000000
C           32.78500000000000        4.26300000000000       11.97100000000000
C           34.65600000000000        2.91100000000000       12.85400000000000
C           35.16499999999999        1.93900000000000       13.82000000000000
C           36.45900000000000        1.70000000000000       13.37100000000000
C           36.67700000000000        2.45700000000000       12.07500000000000
C           37.89200000000000        2.51000000000000       11.35100000000000
H           38.74600000000000        1.93700000000000       11.71100000000000
C           37.13200000000000        5.51200000000000        7.65600000000000
H           37.76100000000000        5.89500000000000        6.85300000000000
C           32.46000000000000        6.29700000000000        9.03500000000000
H           31.57700000000000        6.76400000000000        8.60600000000000
C           33.37100000000000        3.41700000000000       12.89100000000000
H           32.75400000000000        3.11600000000000       13.73700000000000
C           40.05700000000000        4.55900000000000        7.22500000000000
H           41.03100000000000        4.05100000000000        7.39200000000000
H           40.21299999999999        5.65800000000000        7.26100000000000
H           39.66199999999999        4.26400000000000        6.22900000000000
C           40.57099999999999        2.32500000000000        9.59800000000000
H           40.30000000000000        1.42300000000000       10.18700000000000
H           41.36000000000000        2.88700000000000       10.14200000000000
H           40.95000000000000        2.00500000000000        8.60400000000000
C           35.83200000000000        7.41200000000000        5.35600000000000
H           36.71899999999999        6.79800000000000        5.09000000000000
H           36.14100000000000        8.47600000000000        5.43500000000000
H           35.06400000000000        7.29800000000000        4.56200000000000
C           32.92800000000000        7.94900000000000        6.44800000000000
H           31.96100000000000        7.53800000000000        6.12500000000000
C           33.25700000000000        9.34600000000000        6.18400000000000
H           34.22300000000000        9.76200000000000        6.50500000000000
H           32.54200000000000        9.99900000000000        5.66100000000000
C           30.10800000000000        6.50700000000000       10.81300000000000
H           29.55700000000000        6.02400000000000        9.97800000000000
H           30.40500000000000        7.53200000000000       10.50400000000000
H           29.44400000000000        6.55700000000000       11.70200000000000
C           30.67299999999999        4.61300000000000       13.43800000000000
H           30.95600000000000        3.71200000000000       13.99200000000000
C           29.54400000000000        5.29200000000000       14.02300000000000
H           29.15100000000000        6.21400000000000       13.57000000000000
H           29.06300000000000        4.89600000000000       14.92900000000000
C           34.49100000000000        1.32600000000000       15.05700000000000
H           33.48800000000000        0.93900000000000       14.77900000000000
H           34.37200000000000        2.10200000000000       15.84300000000000
H           35.10700000000000        0.48600000000000       15.44300000000000
C           37.59499999999999        1.11500000000000       14.18700000000000
H           37.70600000000000        0.03600000000000       13.94800000000000
H           37.37400000000000        1.22300000000000       15.27000000000000
H           38.54300000000000        1.63800000000000       13.93900000000000
O           35.85499999999999        6.05500000000000       11.37100000000000
H           35.39500000000000        6.81400000000000       11.01200000000000
H           36.42700000000000        6.06100000000000       12.05200000000000
C           32.35800000000000        0.16300000000000        7.55200000000000
H           32.51300000000000       -0.78500000000000        8.11100000000000
H           32.40100000000000       -0.05000000000000        6.46200000000000
H           31.36300000000000        0.57900000000000        7.81800000000000
N           34.81700000000000        0.89100000000000        7.71100000000000
H           35.19899999999999        0.14400000000000        7.16700000000000
C           33.45200000000000        1.16100000000000        7.92700000000000
C           35.47700000000000        1.84500000000000        8.38800000000000
H           36.56400000000000        1.91300000000000        8.43300000000000
N           34.62600000000000        2.65400000000000        8.96700000000000
C           33.27500000000000        2.30300000000000        8.71100000000000
H           32.41800000000000        2.84800000000000        9.07700000000000
78
 energy: -115.997709139956 gnorm: 0.148430654369 xtb: 6.7.1 (edcfbbe)
Fe          35.21252145627597        4.34104191342634       10.17665139645102
N           37.06648342339835        4.03408495961880        9.63286261537356
N           34.88843578257593        5.66327016753582        8.66426060296333
N           33.36570180843912        4.73642243971764       10.78003229883851
N           35.56154016421952        3.12550512148776       11.78490903875996
C           38.03577330115537        3.23991385065811       10.19754534389802
C           39.28388735959288        3.24118283148565        9.39904713887079
C           39.05320255465075        4.12100523887299        8.36273634925907
C           37.68853377546904        4.61385507572658        8.51584083496466
C           35.80400576971684        5.98877003000066        7.71306368751967
C           35.23594969388336        6.91518724187975        6.72095795558216
C           33.92842018244221        7.13074061643412        7.13239293171163
C           33.72525524528463        6.32375683518237        8.33329974220954
C           32.41384716616941        5.61420059511445       10.26718815286386
C           31.29681044462185        5.70888394783868       11.14055648797122
C           31.50098213442063        4.89873864814640       12.24050729154322
C           32.78754101897614        4.27946504761478       11.98295561830959
C           34.64239360342103        2.87394893385123       12.82482657226025
C           35.19269452889465        1.94930424002268       13.80230517165646
C           36.48039955362466        1.72394441678610       13.37692958886423
C           36.67552254359782        2.45956358994450       12.09949416248097
C           37.87524395941301        2.50097989384163       11.35629556173268
H           38.72919973883118        1.93717806407284       11.71504860329699
C           37.12183757221249        5.51589018489890        7.65263257456862
H           37.74969664849728        5.89452397557563        6.85455329821428
C           32.50257469817661        6.27910242273068        9.03859772480497
H           31.62230945675887        6.76422153393441        8.62088660949445
C           33.37303987872347        3.40594910780947       12.88063242136986
H           32.76908398850757        3.11830265705830       13.73442933589012
C           40.03395050498909        4.54604856307904        7.25208145487147
H           41.00574087045125        4.05754200179079        7.39670126074904
H           40.20063330889743        5.63243741887061        7.26717385591709
H           39.66081379338364        4.26912857743294        6.25532547169438
C           40.53370173591495        2.34973548392449        9.59912372638913
H           40.29438761887188        1.44656154095901       10.17605481337642
H           41.33463094354885        2.88416461684271       10.13050125840337
H           40.93047393714432        2.02358624452231        8.62685745005735
C           35.82834742522066        7.39868109509782        5.39130332327308
H           36.70484744270210        6.80488289203972        5.10262698394334
H           36.13406924839565        8.45290706574517        5.44101209844910
H           35.07808011621110        7.30196190920015        4.59287825631011
C           32.95363010807868        7.99046381199474        6.45606048038117
H           31.99322090161116        7.56871382926891        6.14293790091142
C           33.24572435225058        9.30132816926543        6.18851593695215
H           34.19304799448793        9.73467929614436        6.50150015023877
H           32.55143199845766        9.96338002545011        5.67342022484486
C           30.09825889189015        6.51534913640274       10.81275508477004
H           29.55489293919021        6.03798978037893        9.98580914611930
H           30.39048886492581        7.52702486743184       10.50721444638531
H           29.44067109369812        6.56655744039204       11.68189869549459
C           30.65807228872992        4.62781442537431       13.43049437417318
H           30.94998558760440        3.73147269109771       13.97987109233810
C           29.58622486377349        5.27712747410571       13.98730136250205
H           29.17195452413441        6.19379034640654       13.57644118146453
H           29.09954887525263        4.89724745138960       14.88785937727602
C           34.50679803033672        1.34631036664335       15.02517824288195
H           33.51087778766937        0.95147339809116       14.77489954829523
H           34.37629987890722        2.09255802141186       15.82290232626808
H           35.09892564949753        0.51238036915336       15.42764718918809
C           37.59211892915374        1.10792392728043       14.17760566185730
H           37.71120386940142        0.04082169944282       13.95105877784500
H           37.38111634105270        1.21747384141818       15.24923076261223
H           38.53112955587466        1.62443839389363       13.94743345881149
O           35.84329809132485        6.05275615350822       11.35470616662947
H           35.39913297925614        6.83030608391728       11.02145762959769
H           36.44319887099982        6.07408035726641       12.07589901519568
C           32.36320347258056        0.16418238808789        7.54462322987144
H           32.50929816573836       -0.77274982888063        8.09863959980474
H           32.39480727564031       -0.05169720689890        6.47059513029568
H           31.38283639096958        0.57356791126819        7.80908042158876
N           34.78512130388290        0.89495454776527        7.72386988598507
H           35.17631856087599        0.14624139176047        7.17485510260610
C           33.43572377167990        1.14365685717999        7.93282066288097
C           35.45677156708662        1.85817893427111        8.39224270875749
H           36.53626150544180        1.91768368900630        8.43263867295446
N           34.62802376309620        2.68355251613168        8.97115833882061
C           33.32152624805965        2.27698249742913        8.70209827589256
H           32.46429030970711        2.82441395497776        9.06420067235082
78
 energy: -116.029409780684 gnorm: 0.059305889026 xtb: 6.7.1 (edcfbbe)
Fe          35.20581323951389        4.33012876643731       10.17469487691871
N           37.10140726454572        4.04274511350788        9.61446638949624
N           34.88413910934985        5.66372490078573        8.64216305929251
N           33.34282978757067        4.73328637994712       10.82407135607366
N           35.53586570697693        3.11390560427083       11.79860989895221
C           38.04049754727689        3.22700542850890       10.18468854487257
C           39.27463157924313        3.23356765671120        9.38786931096970
C           39.06139883661955        4.11547370988342        8.37023548054033
C           37.70034217030616        4.61233038176726        8.52315363025202
C           35.80047699534990        5.99039914986448        7.69142268779547
C           35.22536970367955        6.89919599490307        6.71762255926486
C           33.93226651311432        7.11536342376038        7.11954189216779
C           33.72780905176518        6.31799868152628        8.31950810735979
C           32.41868481663826        5.58572380857910       10.27249383390428
C           31.27801150029584        5.70268660419099       11.14032194802406
C           31.48664792070863        4.90158196022429       12.24085269121478
C           32.79215839049066        4.29457631278796       11.99368609773176
C           34.63816020396716        2.84735827002795       12.79545691949587
C           35.21379554099543        1.95481048083306       13.78110373949304
C           36.50252148635234        1.75156238781640       13.37873199093385
C           36.67864923611035        2.46602724997735       12.11998880191112
C           37.85734640212462        2.50443034081115       11.36098862965900
H           38.70744544368424        1.93844248667559       11.71662717289398
C           37.11312598417916        5.51644020840412        7.65274795998324
H           37.73975886639204        5.88938497701565        6.85557106048332
C           32.54858640019066        6.25968962165191        9.05094635693761
H           31.67481069456883        6.76865730965707        8.64968339373281
C           33.37735792783307        3.40062893199428       12.87517328698684
H           32.78392799025475        3.11672865851645       13.73368693281226
C           40.01324101131829        4.53204369353537        7.28175545024717
H           40.98345349773120        4.05457439848802        7.41153042457532
H           40.17847715766779        5.61178218306183        7.28683126166150
H           39.64325045522592        4.26625498169638        6.28860632850216
C           40.49517311673495        2.37331669399252        9.59926263130304
H           40.26871123425052        1.47414070202135       10.17171021456552
H           41.29636870860951        2.90000257390498       10.12439617731134
H           40.90378763916109        2.04729570988452        8.63930324266654
C           35.82461937517500        7.38557546872527        5.42534064995212
H           36.69361762627782        6.80080031263495        5.13008132638612
H           36.12905300818107        8.43280936575494        5.46796746390694
H           35.08349262892397        7.30383895542294        4.62544615232988
C           32.97371130805156        8.01248890111448        6.46164362251449
H           32.01598441931018        7.58092654452774        6.16912387536104
C           33.23805448039341        9.26530818913295        6.20028982079262
H           34.17480907457428        9.71638040798062        6.49661655465564
H           32.55727756254139        9.92996321281253        5.68712024738595
C           30.08490132328900        6.52225031865085       10.80798498973961
H           29.54634886865321        6.05459860340677        9.98329211447708
H           30.37774790091276        7.52552047126429       10.50801209347940
H           29.42808970985510        6.57907437439972       11.66354906843723
C           30.65899616503773        4.63434340339718       13.41812729754016
H           30.96041463449191        3.73882461839047       13.95824773796648
C           29.62762410002675        5.26906840481093       13.94775015961874
H           29.19501301169966        6.18349603912533       13.57137454916487
H           29.13723088606077        4.89917970091057       14.84290052791064
C           34.52415104966291        1.36689858301397       14.99142467398828
H           33.53449488077319        0.97375812382692       14.74751322710145
H           34.38945193665026        2.10088566772399       15.79043031649667
H           35.10428902036840        0.53866605930825       15.40211242324121
C           37.59392692162185        1.10573869125325       14.16721747822268
H           37.70870262016174        0.04605618710331       13.94309886609876
H           37.38589881702370        1.20823656350473       15.23179204947275
H           38.53408262713313        1.60899618924313       13.95427419333579
O           35.83977070306771        6.04964843625756       11.34365901561796
H           35.41566458875825        6.85627210522483       11.04877957600612
H           36.44379257412078        6.09447046878231       12.08421283107014
C           32.36755154035365        0.16855192942081        7.54025339966644
H           32.50463027934225       -0.76618009108215        8.08527867270360
H           32.39541976580637       -0.04733978515358        6.47517845056086
H           31.39403248260550        0.57230076527553        7.79828018423440
N           34.76033311224622        0.89664255716961        7.74178588795836
H           35.15807055908130        0.14914579333570        7.19123617237770
C           33.42407579075256        1.13075679458618        7.94576365645474
C           35.44196729516887        1.86958922793166        8.39139248690512
H           36.51353119308433        1.92138788385037        8.42455001199834
N           34.62737448577143        2.70681986410596        8.97695776376972
C           33.36080711933940        2.26469400455266        8.70042709692276
H           32.50269542285338        2.80529095068029        9.06000897319083
78
 energy: -116.037642689595 gnorm: 0.023241680924 xtb: 6.7.1 (edcfbbe)
Fe          35.20381430032000        4.33164272295578       10.17811441375376
N           37.10978334691747        4.05300037332126        9.61278292677531
N           34.89009293993504        5.64295206981262        8.63135015497907
N           33.33876212918093        4.73237545036495       10.84273943368789
N           35.53199607636707        3.11775626999874       11.79149355239327
C           38.03415233590738        3.22277418418106       10.17858787552668
C           39.25871545268776        3.22964658433187        9.38805772773971
C           39.05581635306233        4.11579792464174        8.37572065067080
C           37.70046177184038        4.61301656014762        8.52390821129493
C           35.80199369520506        5.97100118120883        7.67951148714828
C           35.22087947258120        6.87752675936870        6.71741199149485
C           33.93291449459910        7.09220163571951        7.12331959537821
C           33.73716054028435        6.29730672846098        8.31976731893443
C           32.42164530967165        5.57216003868431       10.27790233691269
C           31.26644345254024        5.69532192404194       11.13195239879625
C           31.48259786704158        4.89664887246285       12.22888360796693
C           32.78961907683586        4.28828720045211       11.99775995797380
C           34.63374177954180        2.83039889914600       12.76959148828857
C           35.22919358875799        1.96283566373085       13.76385506114385
C           36.52265980425702        1.77537095154353       13.37508755406233
C           36.68443199494410        2.48057256508956       12.11886575666350
C           37.84847330122728        2.50787336612684       11.35546468155646
H           38.69256436014265        1.93637774411040       11.71437863368054
C           37.11129870576375        5.50800443918675        7.64537251075150
H           37.73612198520572        5.87917970839932        6.84634378787049
C           32.57288356174389        6.24875187817996        9.06648236220774
H           31.71556851463571        6.79400837355913        8.68532765019943
C           33.37213261458279        3.38307450836937       12.86906080796821
H           32.79472540971951        3.10545960588269       13.73933893776719
C           40.00141021748587        4.52412961405544        7.29797097554738
H           40.96812269634442        4.04421469034168        7.43031074374482
H           40.15682597148047        5.60314051102395        7.31043023168374
H           39.61760216839868        4.25681165883026        6.31254246652901
C           40.46956893103881        2.38483549923037        9.60768163007715
H           40.23394527269573        1.49177576410006       10.18141883959184
H           41.25425828300095        2.92926700456288       10.13518292597866
H           40.87978260379153        2.06712256930965        8.64814538676109
C           35.83024000128731        7.37677135744545        5.44810973371545
H           36.69582604239037        6.78649384094720        5.16008984279059
H           36.13788312886224        8.41951512994195        5.51737841604964
H           35.08966062962590        7.31152761757383        4.64880687486311
C           32.97130827215583        7.98811719629140        6.48106366876664
H           32.00998315525581        7.55817894035568        6.21277980383824
C           33.23865977130511        9.25776467541461        6.19570394663560
H           34.17285815902159        9.71563117112527        6.48422122714394
H           32.54229938292153        9.91307718907571        5.69768871233968
C           30.07579761840618        6.52494693004631       10.79542369783500
H           29.53499915246939        6.07331301675238        9.96370900606742
H           30.37182305996193        7.52987995218446       10.50383439117773
H           29.40560063381189        6.58993258711901       11.64138591287912
C           30.67053734075215        4.61894003677704       13.39721820257908
H           30.97716310093669        3.72556104512920       13.93302178077091
C           29.64256990871710        5.27621039365438       13.92499368082279
H           29.22519944964555        6.19606446528132       13.55364519067362
H           29.15601654340870        4.90520314494581       14.81582294993169
C           34.54071294485235        1.38760439599389       14.96363255657304
H           33.55590603646226        0.99994910114313       14.70334243033053
H           34.40570880518058        2.13158277259175       15.75025691870424
H           35.12292926676130        0.56481814325449       15.37533184869729
C           37.60443609121688        1.10174316317476       14.15422164594846
H           37.70081237271321        0.04353353168630       13.91404956159780
H           37.39500629249343        1.18849768816133       15.21899436999865
H           38.55678015547895        1.58828530764094       13.95665466905106
O           35.84639224720948        6.06477950881103       11.34723057417832
H           35.43507030505441        6.89189448807384       11.08372953640817
H           36.44347956219731        6.11530034840625       12.09537457012688
C           32.36500567367482        0.17400435862244        7.53697211956237
H           32.49082828669219       -0.76978417409502        8.06895993424750
H           32.40371008479281       -0.03059014660353        6.46951969130031
H           31.38973996443309        0.57805293277880        7.78473031200925
N           34.75269114820166        0.89260765297833        7.76227195203351
H           35.14687409111454        0.14313040751946        7.21539903946658
C           33.41929233674134        1.12649327197577        7.96764650358711
C           35.44004474811489        1.87557586649445        8.38938009813006
H           36.50855041510631        1.92948855521601        8.40734585724442
N           34.62972069499951        2.71893806504693        8.97769337054710
C           33.36954247153406        2.26417935975468        8.72045719115689
H           32.51418027430283        2.79916521637930        9.07979213671974
78
 energy: -116.041672330733 gnorm: 0.016566890359 xtb: 6.7.1 (edcfbbe)
Fe          35.20090340270887        4.33549287612331       10.18041103572196
N           37.10630329406160        4.05794194290106        9.60919917334021
N           34.89458723279380        5.61732263716969        8.62721456158409
N           33.33411125821321        4.72541662539847       10.84732460249256
N           35.53099054171436        3.12540164941019       11.77339760511010
C           38.02584433401237        3.22606480219599       10.17208930687103
C           39.24191633359993        3.22628342876604        9.38697952831324
C           39.04609859606422        4.11520056971568        8.37577733836437
C           37.69659796158054        4.61283223615778        8.52163577455234
C           35.80163501306193        5.94826579461871        7.67264217311645
C           35.21752104093552        6.85868343754098        6.72017730752777
C           33.93200055932471        7.07586257080663        7.13290196784009
C           33.74526846897320        6.27572749958090        8.32439537472264
C           32.42404861142460        5.56515736072672       10.28301007055249
C           31.25604968577075        5.68667799434201       11.12225144354970
C           31.47518424764269        4.88674961559238       12.21612819252338
C           32.78381997805614        4.27759280414141       11.99952422750017
C           34.63881078692256        2.83360280093011       12.75111752904982
C           35.24126364052826        1.97344555047508       13.74463948638807
C           36.53762516333445        1.79826934190618       13.36478137877839
C           36.69044043549705        2.49970263606575       12.10936001131966
C           37.84517389044302        2.51761641255328       11.34771677135775
H           38.68317220937836        1.93850458062375       11.70909534856040
C           37.10939349142185        5.49743203660513        7.63527232172494
H           37.73260111670280        5.86531816997772        6.83298539048283
C           32.58979137429812        6.24734305057869        9.08428271037563
H           31.74950743154564        6.82793665175647        8.72250422096297
C           33.37138553900141        3.37326264888725       12.86683572618753
H           32.80897063140235        3.08315842101459       13.74107004223837
C           39.99363607030816        4.52096431183898        7.30273472669628
H           40.95776935767529        4.03775737476132        7.43810791580141
H           40.14621840609942        5.59990324810109        7.31975578780690
H           39.60329990144712        4.25194622506970        6.32064185842684
C           40.45362677392286        2.39083608342159        9.62258192522711
H           40.21192800692418        1.50226536192892       10.19947591622529
H           41.22159815433305        2.95103457561593       10.15791602977221
H           40.87559027368904        2.07371941855382        8.66858219406343
C           35.84160481508810        7.37260791701973        5.46753583142099
H           36.70160819780121        6.77295505179171        5.18184848347394
H           36.16466468715060        8.40824884329158        5.57210365222469
H           35.10704063484331        7.33746668108015        4.66050474504366
C           32.96408013492233        7.96649410014397        6.50705648617777
H           31.99203651194060        7.54781773805824        6.27070063527486
C           33.22695946894812        9.23438036721152        6.21326021398434
H           34.17753113550945        9.68329132196743        6.45653078690541
H           32.51651079126518        9.87238041356355        5.71549208086574
C           30.07034676343460        6.52343399676323       10.77651393003559
H           29.53447345806169        6.08848869239220        9.93085929377148
H           30.37532286911638        7.53217504027644       10.49973594088273
H           29.38247598017470        6.58969614023701       11.61123765926268
C           30.67339696904166        4.60408072635310       13.38089002094921
H           30.96462974548576        3.70276161487190       13.90602444716664
C           29.65563667529838        5.28370759614295       13.91003944544637
H           29.26564804238445        6.20994065258125       13.53160922620190
H           29.16784116129638        4.91317665349259       14.79713555638594
C           34.55187613793059        1.40791280446826       14.93848389066730
H           33.56901808089919        1.02561085559762       14.66683043609498
H           34.41775513529797        2.16365079136306       15.71359552099994
H           35.13290230456454        0.58863460349622       15.35651224247142
C           37.61314534298590        1.09964446794137       14.13224894828224
H           37.68540332247592        0.04345556021144       13.86592420146702
H           37.40570353355712        1.16441411100389       15.19992523901440
H           38.57942649899219        1.56675190307536       13.94780993815708
O           35.86006544069661        6.08744716063574       11.35069033849176
H           35.45471375352655        6.93231277651360       11.12928516445714
H           36.43922578176512        6.13993745880932       12.11215028465796
C           32.36041548672991        0.18246245083709        7.53790531495037