78
 energy: -116.058135367916 gnorm: 0.000044427318 xtb: 6.7.1 (edcfbbe)
Fe          29.40939177973569        7.26569028382771        2.90319130673435
N           29.33235141418284        8.56764141372227        4.43655763709553
N           27.41880783718549        7.25934404396386        2.80610231008117
N           29.50679730571711        5.93074163192889        1.42507149758099
N           31.41801348071844        7.23853780360509        3.05546154579984
C           30.38150366344966        9.09566741716138        5.12479674706769
C           29.91836160312088       10.03156257682563        6.12379499859547
C           28.56251902641051       10.06712587940228        6.01451990431681
C           28.21520563296675        9.14664517007094        4.95582082467165
C           26.55820954365216        7.99649952935586        3.55801646023898
C           25.19169235704779        7.73804373777714        3.17757840394369
C           25.24273548914233        6.81969789143957        2.16393545108945
C           26.65036253774669        6.53262864959624        1.95695005343023
C           28.45678750772789        5.38357661535424        0.75621547426022
C           28.91428738970616        4.47529733398691       -0.26545745854071
C           30.28193241723465        4.48908018506998       -0.20601785022003
C           30.62520507447499        5.40365321769786        0.86722552085911
C           32.28416448079721        6.55629517312093        2.25851406649977
C           33.65116552849778        6.82858887519904        2.63921587505161
C           33.59188489584357        7.69440177072123        3.68761840430928
C           32.18941193020588        7.94528920212678        3.92751635674828
C           31.71555047210201        8.80278036567429        4.90391304369593
H           32.44391106252779        9.29819178818646        5.52760827187783
C           26.92058784214892        8.88727222270990        4.55323582464296
H           26.12976306574121        9.42301060741895        5.05546908173153
C           27.12268169909269        5.66282351906278        0.99388273059066
H           26.39420856488830        5.16822646603872        0.36946779889160
C           31.92390315078640        5.70190653720108        1.23417085563025
H           32.72150419525430        5.23098444647815        0.68047547147639
C           27.57334115482544       10.86209510588173        6.79563435987955
H           26.98947551332530       11.50271299362051        6.13448705630834
H           28.07331795076515       11.49084300331179        7.52836859540885
H           26.88303112759375       10.20336799794969        7.32323854768768
C           30.81128347332323       10.77722502672365        7.05585469280584
H           31.50386976153259       11.41123503605591        6.50122077245643
H           31.39840755501505       10.08589159093715        7.66096867281975
H           30.23127500357393       11.40843381575218        7.72446860561541
C           23.99189961525941        8.32120400110256        3.83886139934548
H           23.78605007318869        9.32349519633154        3.45916513348395
H           24.14160376954678        8.39261905628866        4.91512868046882
H           23.12137973509298        7.69656175518187        3.64942639334774
C           24.15841000970589        6.19999126380081        1.43480243851060
H           24.32497531892277        5.17267252238476        1.13219313749459
C           23.00984304657791        6.78715303885566        1.11444303540116
H           22.80896925364447        7.81826142323269        1.34786686347090
H           22.23649964201117        6.25932946084664        0.58128597137921
C           28.03233535052656        3.64973782538678       -1.13552348463422
H           27.66311164988070        4.23176307391232       -1.98176775850511
H           27.17226873143697        3.28590001658385       -0.57557121393887
H           28.58351199249442        2.79450012227808       -1.52106939935821
C           31.23941209419685        3.74445383734553       -0.99340231969330
H           32.14287523345884        3.44679214400289       -0.47368020428423
C           31.09628767858760        3.41549608302427       -2.27323125220513
H           30.24336734256857        3.72408373588220       -2.85210774622327
H           31.84594885826603        2.84428694757134       -2.79545826709362
C           34.84387219364799        6.23566680518824        1.97119882679924
H           34.85433625492278        6.48972964592268        0.91114260904414
H           34.83077335534903        5.14880951501975        2.05726346585122
H           35.76298925299945        6.60315622050554        2.42112290552411
C           34.70200390338553        8.30301001652457        4.47460523168452
H           34.68148791148470        9.39028804727176        4.39272343153610
H           35.66669002043701        7.95181201948611        4.11698376036906
H           34.61252989967992        8.04299472951133        5.52970710349859
O           29.41248349000424        5.60783466547438        4.48819805788756
H           29.26010845125611        6.14246723565949        5.27511231465128
H           30.34866719537091        5.38048727358786        4.47789261055385
C           28.70451148767364       10.68043784243286       -1.44590029420417
H           29.53841321949167       10.79369179729754       -2.13861108439453
H           28.27487334182173       11.66572166422712       -1.26557663645404
H           27.95088593033676       10.05123807982688       -1.90880069098514
N           30.09161917195334       10.64448279865081        0.63894569283090
H           30.55553464871154       11.52131999694505        0.46721853933609
C           29.15577158920847       10.06086291334518       -0.17431164028696
C           30.27495224850087        9.83020900538331        1.70251914093117
H           30.95296648984614       10.03447732986881        2.50506157773163
N           29.51291937876769        8.76753432366183        1.61214643371075
C           28.81049590498518        8.89654014209039        0.44986106726844
H           28.10846277673322        8.14891750316525        0.14304425898773
