72
 energy: -105.980558485220 gnorm: 0.000065489308 xtb: 6.7.1 (edcfbbe)
Fe           3.44025395839184       -2.88761746999677       15.27488809902333
N            2.05431504002362       -3.04812147970527       16.69590425451492
N            4.09081224856731       -4.73446174606968       15.68649717119993
N            4.89263899199712       -2.68714270267839       13.89047509724740
N            2.84202339277387       -1.01059802534261       14.90174767987531
C            1.12046077279232       -2.12388753189111       17.03533517353695
C            0.28394805397845       -2.61158339939475       18.11117493036477
C            0.74535676981268       -3.85180901059602       18.41987604668784
C            1.85234425991969       -4.10675258861810       17.52314326054572
C            3.62118218185047       -5.56690713352468       16.65465118947300
C            4.33713031225841       -6.81682080294733       16.64840842828227
C            5.26018047170046       -6.72658449969620       15.64107548701194
C            5.09687258797534       -5.40510901495671       15.06711734414041
C            5.77707322652406       -3.64563329903431       13.49291498421397
C            6.62931176690667       -3.15078871621610       12.44433454167344
C            6.23957877858414       -1.85822241635588       12.20913422212532
C            5.14958293103779       -1.59453600762827       13.12490252517003
C            3.36211587252294       -0.15070453526822       13.98543013800266
C            2.61814153898669        1.08924104631874       13.96938525863758
C            1.62642955008729        0.95118432575345       14.88927966259579
C            1.78294085321475       -0.36768384520773       15.46055031695992
C            0.97264876562851       -0.87869309649799       16.45491441167471
H            0.17065039076902       -0.25307018149466       16.81428809223328
C            2.57751233068789       -5.28038880817156       17.51720646952088
H            2.30299978792365       -6.03749605188100       18.23510226863951
C            5.86405478906077       -4.91951721895431       14.02609810325209
H            6.60279890272722       -5.58200126247708       13.60300739868655
C            4.44305527867054       -0.40706125563966       13.16480537695924
H            4.73913307627800        0.37141494039662       12.47953207499445
C            0.26370093752657       -4.81082703330248       19.45305178473216
H           -0.57610071695815       -4.39534097069179       20.00424298241594
H            1.05959502675684       -5.03946258691478       20.16183752253702
H           -0.05720133881928       -5.74498618262634       18.99116661859371
C           -0.84021273364214       -1.84286892280968       18.71491544083670
H           -1.58022544197269       -1.58580588614861       17.95673137588695
H           -0.47506181935679       -0.91658792650024       19.15883381490227
H           -1.33243820517888       -2.42341636238218       19.49110111859502
C            4.12465960292961       -7.92924562521370       17.61389548697177
H            3.92970916270494       -7.53942778113681       18.61167018419922
H            5.00892225321182       -8.56185631929321       17.65340367239562
H            3.27342673285865       -8.54559338553225       17.31912916127041
C            6.24668994433414       -7.69528001608481       15.21581109118925
H            7.18675874013857       -7.28524904020814       14.86562285418665
C            6.08001822913822       -9.01353701711997       15.21887992383437
H            5.15227574591792       -9.47337790256672       15.51186353581270
H            6.86384146910978       -9.68079730776766       14.90135487770067
C            7.75165619270857       -3.90652017391517       11.82451868878011
H            8.27057589002051       -4.50785610289002       12.56956151816367
H            8.46365713465757       -3.21619692009210       11.37698256542320
H            7.38541086983321       -4.57705151742205       11.04548482975282
C            6.77909866009809       -0.89498398652373       11.27433651296916
H            6.76291742890786        0.13733681839066       11.60446558288659
C            7.26979099141301       -1.18065640686424       10.07317378134029
H            7.26561895173672       -2.18047683922345        9.67564612268381
H            7.66898979356994       -0.41318399755934        9.43121332588320
C            2.93200622008619        2.24457962638466       13.08314454700432
H            2.86231317660775        1.95136749502978       12.03559852496819
H            3.94401416837608        2.60657729785048       13.26657012286683
H            2.23895904994417        3.06387755734416       13.25660223167530
C            0.56279821527595        1.91586233550866       15.28524457938097
H           -0.42439933645203        1.49098277179665       15.10362049772123
H            0.64782030743735        2.83929427233788       14.71804888841614
H            0.63798393624436        2.15594104571939       16.34610566586682
O            4.91114613855222       -2.00923969484646       16.72660248245042
H            5.73495202154760       -2.13652877536663       16.24206936709497
H            4.68816115244538       -1.07309406722670       16.66564639843770
C            0.92646442470024       -4.97023910982835       14.31014369576588
H            0.48036917365823       -5.55159348578751       13.50907272804410
H            0.15728239694866       -4.43910725391466       14.86104139750284
H            1.49486092698481       -5.59916856719889       14.98680424954657
S            2.02223125392179       -3.69870614284103       13.58791233418175
H            2.87341639043185       -4.57220412481724       13.03769790788620
