72
 energy: -105.899000271639 gnorm: 0.230694733274 xtb: 6.7.1 (edcfbbe)
Fe           3.41400000000000       -2.89300000000000       15.23100000000000
N            2.04700000000000       -3.01600000000000       16.71100000000000
N            4.22800000000000       -4.73200000000000       15.76900000000000
N            5.01200000000000       -2.69300000000000       13.95500000000000
N            2.76500000000000       -1.00500000000000       14.82900000000000
C            0.98900000000000       -2.15800000000000       16.92500000000000
C            0.16600000000000       -2.71700000000000       17.97300000000000
C            0.72000000000000       -3.87400000000000       18.37300000000000
C            1.92300000000000       -4.09100000000000       17.59200000000000
C            3.78400000000000       -5.51900000000000       16.81300000000000
C            4.55100000000000       -6.76000000000000       16.79700000000000
C            5.43700000000000       -6.69700000000000       15.77500000000000
C            5.23000000000000       -5.41300000000000       15.11500000000000
C            5.80600000000000       -3.70900000000000       13.46200000000000
C            6.47800000000000       -3.23800000000000       12.26200000000000
C            6.09200000000000       -1.96300000000000       12.05100000000000
C            5.16700000000000       -1.59900000000000       13.11200000000000
C            3.40700000000000       -0.11500000000000       13.99500000000000
C            2.66900000000000        1.13500000000000       14.03900000000000
C            1.62900000000000        0.98100000000000       14.86000000000000
C            1.66000000000000       -0.38800000000000       15.37200000000000
C            0.77300000000000       -0.96000000000000       16.25100000000000
H           -0.16700000000000       -0.43900000000000       16.43300000000000
C            2.77800000000000       -5.17100000000000       17.69200000000000
H            2.64400000000000       -5.81800000000000       18.55800000000000
C            5.92900000000000       -4.95800000000000       14.01800000000000
H            6.63700000000000       -5.64500000000000       13.55400000000000
C            4.55000000000000       -0.37100000000000       13.26000000000000
H            5.00800000000000        0.47600000000000       12.74900000000000
C            0.17400000000000       -4.79400000000000       19.48699999999999
H           -0.93200000000000       -4.70000000000000       19.53600000000000
H            0.60500000000000       -4.49400000000000       20.46600000000000
H            0.43700000000000       -5.85000000000000       19.26400000000000
C           -1.12500000000000       -2.08900000000000       18.53800000000000
H           -2.00900000000000       -2.58400000000000       18.08200000000000
H           -1.15300000000000       -1.00600000000000       18.29400000000000
H           -1.16100000000000       -2.23100000000000       19.63900000000000
C            4.36500000000000       -7.90300000000000       17.82200000000000
H            3.37000000000000       -7.80700000000000       18.30800000000000
H            5.15400000000000       -7.84000000000000       18.60200000000000
H            4.42000000000000       -8.88400000000000       17.30400000000000
C            6.50300000000000       -7.70800000000000       15.27300000000000
H            7.20300000000000       -7.37000000000000       14.49600000000000
C            6.66500000000000       -8.97700000000000       15.69500000000000
H            6.00700000000000       -9.39600000000000       16.47100000000000
H            7.45700000000000       -9.61000000000000       15.26900000000000
C            7.45300000000000       -4.09600000000000       11.42700000000000
H            7.28300000000000       -5.17100000000000       11.64800000000000
H            8.50100000000000       -3.83500000000000       11.68900000000000
H            7.27600000000000       -3.91900000000000       10.34500000000000
C            6.50500000000000       -0.98300000000000       10.92600000000000
H            6.10600000000000        0.04100000000000       10.95600000000000
C            7.31900000000000       -1.27300000000000        9.89900000000000
H            7.75700000000000       -2.27700000000000        9.80000000000000
H            7.55800000000000       -0.51000000000000        9.14300000000000
C            3.03200000000000        2.41900000000000       13.26000000000000
H            3.37500000000000        2.14900000000000       12.23800000000000
H            3.85100000000000        2.95700000000000       13.78400000000000
H            2.13800000000000        3.07400000000000       13.17900000000000
C            0.56600000000000        2.04700000000000       15.18600000000000
H           -0.18000000000000        2.09000000000000       14.36400000000000
H            1.05000000000000        3.04200000000000       15.28500000000000
H            0.04600000000000        1.78200000000000       16.13100000000000
O            4.89600000000000       -2.31900000000000       16.72100000000000
H            5.39900000000000       -3.11100000000000       16.91100000000000
H            5.01900000000000       -1.51800000000000       17.08600000000000
C            0.68600000000000       -4.27400000000000       14.08400000000000
H            0.20900000000000       -5.08100000000000       13.48700000000000
H            0.04400000000000       -3.37000000000000       14.01300000000000
H            0.72700000000000       -4.60800000000000       15.14300000000000
S            2.34100000000000       -3.90900000000000       13.48400000000000
H            2.86900000000000       -5.05000000000000       13.90100000000000
72
 energy: -105.943316987830 gnorm: 0.093132191039 xtb: 6.7.1 (edcfbbe)
Fe           3.46200011007778       -2.88224462481682       15.25519533890804
N            2.03631632828938       -3.03696737452545       16.68587630960983
N            4.21921765299782       -4.74773387484533       15.75353909962982
N            4.98173707158687       -2.69455342328567       13.90824037120133
N            2.77924541199504       -1.01124865711170       14.83532966236793
C            0.99006348249025       -2.18123057934654       16.91232787417686
C            0.15748832579449       -2.71418212343933       17.97175240418547
C            0.72507279125140       -3.87576105690667       18.38423615652626
C            1.91948179972620       -4.08073552462007       17.58231732857024
C            3.79792391239504       -5.52479536536854       16.80187399601991
C            4.55967180183804       -6.76637976584393       16.80713036924365
C            5.44830424324814       -6.71088734316693       15.76605110589042
C            5.22760133054132       -5.42080182357321       15.11816916833051
C            5.79294654542933       -3.69441532545687       13.44005315610895
C            6.49101890176203       -3.23448319798039       12.25250492703366
C            6.11562437709524       -1.93829956879967       12.04172175480255
C            5.17244536912345       -1.60253875593870       13.10166271488228
C            3.41105877848096       -0.11421352744964       14.01750858916021
C            2.67849888713312        1.14241469889149       14.03624820836734
C            1.61534969147775        0.97729525841861       14.85511466588839
C            1.67510344056681       -0.39303582822677       15.35790543379731
C            0.78700047993829       -0.97516757083791       16.24569890823288
H           -0.13552777472626       -0.43919629644120       16.45240844681778
C            2.77974305671980       -5.16793558580823       17.68029861918116
H            2.62664430758452       -5.82261011052766       18.53297407523016
C            5.92331985803842       -4.94837066735067       14.01564533668538
H            6.63524972047646       -5.62805932426462       13.56278098186305
C            4.54692057117849       -0.37394081170253       13.26579909187948
H            4.97840799552819        0.46534990380953       12.73000940363153
C            0.18655903104147       -4.78609880832996       19.46964582368032
H           -0.90383372564731       -4.70040272262981       19.52804936796106
H            0.60212686814492       -4.50360931982310       20.44381939003358
H            0.43775617756254       -5.83128482471928       19.26736968688175
C           -1.10890171562978       -2.09439474764087       18.52543223391155
H           -1.99133611339134       -2.57600526512202       18.08683711510925
H           -1.15148163414026       -1.02600883065811       18.29925328038009
H           -1.15478221686127       -2.22589973841764       19.61144512379408
C            4.35997919719009       -7.88179691834420       17.81289435340888
H            3.38497593309863       -7.80077524572870       18.30128943088757
H            5.13994822159772       -7.84182562957783       18.58244978158928
H            4.40305975379232       -8.85589014606606       17.31920269510735
C            6.47684281527059       -7.69428261013978       15.29227196461770
H            7.16289583580537       -7.34279984212020       14.52201159995638
C            6.65391338853639       -8.95154757688928       15.70048203507169
H            6.02966419656298       -9.39924024293306       16.45966763369645
H            7.43317925113281       -9.57859764135757       15.27649259883950
C            7.44056692784890       -4.09211076960798       11.44470344263862
H            7.28702130587803       -5.15424461066703       11.65064111311912
H            8.47924001820667       -3.83544224135183       11.68651948041140
H            7.27548131329170       -3.93718985100664       10.37581141472853
C            6.50570558065005       -1.00438224258363       10.94222500109433
H            6.09491542325080        0.00318534086797       10.98412410490485
C            7.30633846459346       -1.27953214439393        9.91330861055441
H            7.75625996473806       -2.25182655152299        9.78659993685829
H            7.53719903605435       -0.53226754604260        9.16069449122831
C            3.03434166493980        2.39842684504204       13.26708458707832
H            3.37270452705530        2.14905358858976       12.25672205898911
H            3.83630476652547        2.94520730943013       13.77626446592080
H            2.16134880982275        3.05337973307226       13.18456838497193
C            0.57374547870954        2.02537582068992       15.18581462492906
H           -0.16818459082123        2.08501941466157       14.38049105627181
H            1.04095225693393        3.01090062058160       15.28875331157295
H            0.05569191641120        1.78508085335381       16.11767539212260
O            4.88971651351524       -2.31511835249422       16.73831977342603
H            5.41430489276259       -3.09225915639613       16.92884768253352
H            5.04929346769336       -1.47577560188317       17.12690438656050
C            0.66305651438197       -4.28554404748109       14.08952064964593
H            0.20984525620999       -5.07577180106335       13.48190052884186
H            0.05696096368615       -3.37843375657151       14.01455396523791
H            0.71749065012858       -4.60016416970909       15.13510684894977
S            2.32428390796768       -3.89795772131738       13.49957509779922
H            2.85892123746126       -5.05842060518381       13.87628197646184
72
 energy: -105.957996448867 gnorm: 0.025190176027 xtb: 6.7.1 (edcfbbe)
Fe           3.48427624443949       -2.88839569009648       15.25435332559311
N            2.04279944835944       -3.05260655889431       16.67105204309898
N            4.22535696178049       -4.74396268806981       15.75400100514712
N            4.95978362633267       -2.69044037820864       13.88449654980150
N            2.80766136987124       -1.01449902000172       14.85522962638417
C            1.00233775450389       -2.20257490523765       16.89773075984575
C            0.16014597870676       -2.71597090603371       17.96132979736170
C            0.73560135339401       -3.87943342711905       18.38282013256191
C            1.92035503127896       -4.07757697538991       17.56515318480197
C            3.80660166612593       -5.52318622476650       16.79112474116335
C            4.55889187465556       -6.76217510422591       16.81383579165427
C            5.45168286913047       -6.71003594142021       15.76226082663037
C            5.22319903337939       -5.41895076278365       15.12090052801480
C            5.77129185325876       -3.68350744716742       13.42615472216448
C            6.49330184512706       -3.23703166980803       12.25258892473004
C            6.12963780365068       -1.92608663365131       12.04031652885137
C            5.16979868218608       -1.60882428550125       13.09501430054589
C            3.42137610920025       -0.11746302760328       14.03985975801644
C            2.69185895644195        1.13966377958121       14.03995580021930
C            1.61314254992458        0.96339566112570       14.85480653930519
C            1.69975062761622       -0.40133029767736       15.35480141642801
C            0.81056379038539       -0.98985270241700       16.24460436397181
H           -0.09243284386909       -0.43734874862038       16.47884744223892
C            2.77388074796691       -5.17204693202108       17.66092384627762
H            2.59886012321381       -5.83694379908456       18.49757498635640
C            5.90963741026777       -4.93750770304681       14.01275152688550
H            6.63431394841872       -5.60535432819376       13.57195272878936
C            4.53956905327337       -0.38084640577860       13.26110573466055
H            4.93977193149792        0.45065720256384       12.69433500469912
C            0.20651238583310       -4.77894961378910       19.45129240366652
H           -0.87641214573318       -4.69447968989173       19.51104494550205
H            0.61366703023227       -4.50837698434687       20.42559221836191
H            0.45187980120077       -5.81877915256243       19.25800261428414
C           -1.08736662515657       -2.10045722852799       18.50678880092676
H           -1.97107803116643       -2.57419925886920       18.07777102883691
H           -1.13801654883380       -1.03839043026146       18.29151063586633
H           -1.13697464899845       -2.22852628560129       19.58607044081423
C            4.35466409683442       -7.85927892324298       17.80325107048825
H            3.39209175640573       -7.77450075604083       18.29683353431670
H            5.13372925086055       -7.83794602381143       18.56575389352482
H            4.38680603308854       -8.83022264058644       17.31887336579333
C            6.44468231589886       -7.66503574882810       15.31237657172748
H            7.11614180553911       -7.30006418478203       14.54317313064774
C            6.63705964428843       -8.92039415718827       15.70986935035063
H            6.04156334904843       -9.39963517378841       16.46172875722468
H            7.41285818804310       -9.53566843458706       15.28246110268753
C            7.42903971443214       -4.08765284370999       11.46413822809428
H            7.28628247544699       -5.14168074630171       11.67581884986652
H            8.46413426941669       -3.82825331235897       11.68943015550025
H            7.26770270546413       -3.95011583663168       10.39977969940511
C            6.50688060257381       -1.02674109735854       10.97364871676609
H            6.07691760953382       -0.03356625755733       11.02417363830345
C            7.29581811987360       -1.28684928679658        9.93289127168597
H            7.76104722141241       -2.23780515702310        9.77510253565859
H            7.49951210195766       -0.54840262285010        9.17533114065557
C            3.04089974270897        2.37416119273374       13.27711650748570
H            3.37626972450700        2.13412224790039       12.27218341590009
H            3.83558099786376        2.92809495930883       13.77613905668975
H            2.17626452545563        3.02750144403763       13.19582691587134
C            0.58150516617703        1.99378018064872       15.18495455223572
H           -0.16151895036754        2.06580763638007       14.39006254936790
H            1.04378061690053        2.97369061590534       15.29073857266211
H            0.06606778163484        1.76631353735547       16.11185598193158
O            4.85862325567554       -2.30061402940597       16.77280189661925
H            5.44051834192062       -3.04537080617784       16.95033582967791
H            5.08476959452611       -1.44532344670729       17.14545896729506
C            0.63625803672649       -4.29202906848715       14.09512505422959
H            0.20455626909319       -5.07161495156454       13.47714027936508
H            0.05219867485865       -3.38274628580105       14.01617354022989
H            0.69904377596506       -4.59912020219775       15.13130653600738
S            2.30159044979715       -3.88905982540801       13.49454976670458
H            2.84343371854185       -5.06738543167981       13.82764054057215
72
 energy: -105.963409504399 gnorm: 0.033800958139 xtb: 6.7.1 (edcfbbe)
Fe           3.50382031368210       -2.88262018804435       15.26691096542046
N            2.04532586011095       -3.06851204038279       16.65439443691977
N            4.21412540239126       -4.73888361715672       15.74645003021445
N            4.94767682039971       -2.68929038568945       13.88134424790831
N            2.82861391169340       -1.02101498137065       14.86424948777167
C            1.01372476734160       -2.21445884910705       16.88540811464485
C            0.16889805280109       -2.72152434236667       17.94697318162444
C            0.74179740351905       -3.88521792884852       18.36959927295911
C            1.91913438468682       -4.08514311326168       17.54827623262408
C            3.79867611351141       -5.51888167767362       16.78163078214835
C            4.54590975014892       -6.75165978904107       16.81361644273840
C            5.44111772102090       -6.69881625750572       15.76339235469743
C            5.21384016029891       -5.41191775492144       15.12055710957780
C            5.75845563871182       -3.68232199343554       13.42741887191185
C            6.49144254945351       -3.24354021891669       12.26414042671581
C            6.13208023170876       -1.93091632114110       12.04740555246282
C            5.16716452609920       -1.61209006358808       13.09467325844016
C            3.43349718880104       -0.12426119841053       14.04731175743248
C            2.70335066354402        1.12789976823439       14.04476729599161
C            1.62361845094510        0.94604764561696       14.85847861013080
C            1.72061213555194       -0.41141465959051       15.35955771908984
C            0.83224471726725       -0.99575905382196       16.24953925574274
H           -0.05436238912692       -0.42921898720417       16.50614230448719
C            2.76117494500643       -5.18204334146154       17.64537552791934
H            2.56598993046405       -5.86146309477741       18.46468074992394
C            5.90115108860210       -4.93203767202288       14.01575440334980
H            6.63656238285094       -5.59134091498406       13.58156895175177
C            4.53620756564092       -0.38605163063738       13.24949888036405
H            4.90589722144924        0.43829188328561       12.65084937167888
C            0.22257760534580       -4.78228649927585       19.43848929998136
H           -0.86017583217918       -4.69621879445719       19.50001851473603
H            0.63439367441282       -4.51250635089673       20.41161383064886
H            0.46968206204184       -5.82200202185200       19.24403718264998
C           -1.07275388413201       -2.10221831698427       18.48929644233262
H           -1.95775439839325       -2.57385045028809       18.05926590726690
H           -1.12061633086013       -1.03933516051972       18.27520763786265
H           -1.12031730631144       -2.23224259376689       19.56879905896288
C            4.34091629106937       -7.84257704269883       17.80292556575887
H            3.38657629865668       -7.74053384360570       18.31060478542671
H            5.13261300232259       -7.83534717567710       18.55432015280252
H            4.34970959081970       -8.81378395208783       17.31638448753240
C            6.43164583247498       -7.64268121753656       15.32054520527701
H            7.09198418005412       -7.26811723171498       14.54719289585893
C            6.63966857785653       -8.89711599552195       15.71760236287157
H            6.06014781722293       -9.39484559222112       16.47161238133998
H            7.41654848469045       -9.49900331703354       15.27702121243323
C            7.42689216440727       -4.09421866173133       11.48357120969983
H            7.29662488449784       -5.14653407718260       11.71570780513879
H            8.46173272610622       -3.81813046470681       11.69419141895500
H            7.25400056747234       -3.97519925424173       10.41759888649327
C            6.49756135713836       -1.03777739225958       10.98332424164283
H            6.05990058377003       -0.04905745418714       11.04454516277804
C            7.27864506317366       -1.28726646369995        9.93216284803892
H            7.77149737170940       -2.22493136837085        9.76616918204442
H            7.45782579731712       -0.54371989173062        9.17447804471860
C            3.05263225525648        2.35754191041559       13.28286371698769
H            3.38640662908063        2.11592060892873       12.27717822965854
H            3.84956384651017        2.91161743294917       13.77967813560514
H            2.18700439300130        3.01031246576769       13.20461284655419
C            0.58632231339211        1.96486052526532       15.18926557207282
H           -0.15909594493344        2.03555122793925       14.39603550278926
H            1.04698188275435        2.94567535505359       15.29649366446065
H            0.07304604308056        1.73355852543783       16.11705977071906
O            4.81936838534943       -2.27388895622387       16.85479696834550
H            5.49967269533773       -2.96822917312430       16.96817624324669
H            5.13294938618620       -1.39613603233775       17.14740069427210
C            0.61246954218380       -4.29234890505004       14.09698761685826
H            0.19046328903652       -5.06587238228845       13.46470338379228
H            0.03226436906829       -3.38074909093526       14.02162563359626
H            0.67282257431745       -4.60810243358057       15.13012317304864
S            2.28422997425926       -3.87369032370034       13.50458069943574
H            2.81762467685889       -5.08235939204419       13.76376682866261
72
 energy: -105.966656089519 gnorm: 0.019069591337 xtb: 6.7.1 (edcfbbe)
Fe           3.50738679784086       -2.88594516318494       15.27056465608184
N            2.05236615855273       -3.08058962833832       16.64087041827426
N            4.21079883248851       -4.72262439438656       15.74998977953052
N            4.94334522386351       -2.68568500412657       13.89214816710311
N            2.85257793441806       -1.03029833277000       14.87500420317262
C            1.02817403761961       -2.22155751907063       16.87741999478006
C            0.18055737591385       -2.72663004439480       17.93389219764737
C            0.74605322856257       -3.89157628685926       18.35352575454890
C            1.91745896340930       -4.09557023085694       17.53211723888856
C            3.78859901590403       -5.51193091694918       16.77518537051004
C            4.53316319583334       -6.73896922510526       16.81247893780731
C            5.43146356528101       -6.68279039261374       15.76880876983612
C            5.20923211620617       -5.39850791284640       15.12679439740461
C            5.75322061482452       -3.68065451153826       13.43813363614277
C            6.48899319025326       -3.24983461797028       12.27930165255237
C            6.13170246547868       -1.94005739351083       12.05687089284725
C            5.16465808425782       -1.61463165581109       13.09602073326913
C            3.44756119251054       -0.13287142356335       14.05134588754803
C            2.71564576222826        1.11364507170432       14.05020465820611
C            1.64086455256906        0.92874386161529       14.86581772375230
C            1.74503692171871       -0.42145514346979       15.37051209621449
C            0.85671727969546       -0.99719205216062       16.25962499240849
H           -0.01504432380215       -0.41945217913570       16.53371343351222
C            2.74349008209907       -5.19677643595608       17.62960959122979
H            2.52924189940263       -5.89080417152391       18.43054402779192
C            5.89807781297706       -4.92591201610531       14.02496704084683
H            6.63707289715703       -5.58044157074592       13.59133666929255
C            4.53262866784733       -0.39164095434114       13.23319732971261
H            4.87328699827940        0.42482647085063       12.60808635425138
C            0.23713278492466       -4.79028030549483       19.42672387961400
H           -0.84609273796646       -4.70492253231664       19.49611394261479
H            0.66044077174667       -4.51900879915319       20.39573670982506
H            0.48717661749691       -5.83000910106703       19.22789451461408
C           -1.05984919587457       -2.10117443968765       18.47244820418359
H           -1.94519810592229       -2.56995883850927       18.03719451701195
H           -1.10056625820711       -1.03688083687822       18.25727061638427
H           -1.10764687204630       -2.23335252423146       19.55265137142569
C            4.32683706235170       -7.83030908310180       17.80223943033030
H            3.38421172031586       -7.70698016987261       18.33189497246499
H            5.13588844686529       -7.83959443505839       18.53747159212589
H            4.30570195503837       -8.80037009361951       17.30868522281001
C            6.42503874661992       -7.62439866861056       15.32321803476747
H            7.07624744410769       -7.24480995313500       14.54479282952826
C            6.64393201995992       -8.87570092558613       15.72505445911448
H            6.07911658705650       -9.37784573737930       16.48881336549365
H            7.42806003558285       -9.46331498799193       15.27732752808670
C            7.42704383454187       -4.10236791855136       11.50164699317980
H            7.31597999440166       -5.15332522788646       11.76038559399929
H            8.46160315940981       -3.80464214251413       11.69231552659295
H            7.23439838812752       -4.00568289331773       10.43424932148595
C            6.49096605305594       -1.04334998735841       10.98953447197926
H            6.03610456549409       -0.06188100465825       11.05201345508138
C            7.26919013073093       -1.28291307267567        9.93404834526924
H            7.77608480159658       -2.21367124629734        9.75914083296666
H            7.41510083895025       -0.53422230177464        9.17166737067785
C            3.06703727865474        2.34233613425760       13.28615738101215
H            3.39748076188962        2.09654395299445       12.27866611884542
H            3.86985064613946        2.89194658353478       13.78134377939456
H            2.20152989253704        2.99734728976942       13.21147080820344
C            0.59158616985106        1.93568454978997       15.19696704087245
H           -0.15613901091925        1.99625120275278       14.40383784932172
H            1.04439283782314        2.92107448446296       15.30504153323494
H            0.08196997774362        1.69448771948018       16.12612282680189
O            4.82957684216794       -2.22760933425141       16.87667722756754
H            5.50516254859961       -2.89720726724219       17.01805988311474
H            5.15988417735573       -1.35860295688285       17.14716143035259
C            0.58532941376000       -4.28992885903442       14.09582845195861
H            0.16815356172222       -5.05850673652179       13.45255335685808
H            0.00111341813246       -3.37880296532002       14.02919801238465
H            0.64330929728444       -4.61940721232300       15.12683274371584
S            2.25757221598280       -3.85738451069343       13.50109813710734
H            2.78295663952591       -5.08607107488262       13.69636371246279
72
 energy: -105.967604019592 gnorm: 0.031169103095 xtb: 6.7.1 (edcfbbe)
Fe           3.50276769973816       -2.89010734822358       15.27309535577182
N            2.06014474271085       -3.08518867812047       16.63700196677459
N            4.20324110873200       -4.71210383683444       15.75152166269432
N            4.93999441684638       -2.68494890840478       13.90107724806707
N            2.86620012805933       -1.04047991544560       14.87824276944078
C            1.03872002124070       -2.22333581187929       16.87738034601523
C            0.18617737580417       -2.72903636059569       17.92809954934491
C            0.74203733071705       -3.89877237617503       18.34162045260592
C            1.91107135558991       -4.10613077995353       17.52088915493086
C            3.77683292225018       -5.51127707605760       16.76882775559473
C            4.52514659620358       -6.73478901355192       16.80908328425811
C            5.42890079339254       -6.67248203966154       15.77358937750061
C            5.20666271084851       -5.38857771851780       15.13400718426807
C            5.75399884879434       -3.67930708902064       13.44833466797103
C            6.48929432752984       -3.25327328907917       12.28869420902651
C            6.12870522582485       -1.94791047477905       12.05923106951637
C            5.16103347664190       -1.61875166691988       13.09398739790897
C            3.45483073998221       -0.14112238165068       14.04944293564885
C            2.72406541657654        1.10439849710398       14.05221527034086