87
 energy: -128.416259054268 gnorm: 0.173864424490 xtb: 6.7.1 (edcfbbe)
Fe           2.85900000000000       -3.37800000000000       36.03000000000000
N            1.06900000000000       -4.14700000000000       36.48800000000000
N            3.81500000000000       -4.96000000000000       37.02200000000000
N            4.75000000000000       -2.57900000000000       35.61200000000000
N            2.00100000000000       -1.93100000000000       35.12500000000000
C           -0.15800000000000       -3.63800000000000       36.07599999999999
C           -1.14100000000000       -4.64600000000000       36.21699999999999
C           -0.51100000000000       -5.73700000000000       36.77400000000000
C            0.86100000000000       -5.41500000000000       36.96800000000000
C            3.22000000000000       -6.03200000000000       37.52000000000000
C            4.20400000000000       -6.85100000000000       38.16500000000000
C            5.40200000000000       -6.22700000000000       37.99100000000000
C            5.12300000000000       -5.00100000000000       37.25400000000000
C            5.96300000000000       -3.03100000000000       36.02799999999999
C            7.00100000000000       -2.23200000000000       35.48500000000000
C            6.38500000000000       -1.29200000000000       34.70400000000000
C            4.97800000000000       -1.51900000000000       34.80000000000000
C            2.64300000000000       -0.91600000000000       34.44800000000000
C            1.65600000000000        0.03600000000000       33.89599999999999
C            0.42500000000000       -0.42100000000000       34.21900000000000
C            0.67200000000000       -1.65600000000000       35.01100000000000
C           -0.38200000000000       -2.40100000000000       35.50200000000000
H           -1.39700000000000       -2.01100000000000       35.43600000000000
C            1.82900000000000       -6.28800000000000       37.48399999999999
H            1.48300000000000       -7.23900000000000       37.88900000000000
C            6.12800000000000       -4.11300000000000       36.87100000000000
H            7.12700000000000       -4.28700000000000       37.27000000000000
C            4.01500000000000       -0.73400000000000       34.23700000000000
H            4.33100000000000        0.08100000000000       33.58600000000000
C           -1.13200000000000       -7.06200000000000       37.14500000000000
H           -2.21500000000000       -7.04500000000000       36.90000000000000
H           -1.01200000000000       -7.24100000000000       38.23500000000000
H           -0.64500000000000       -7.87900000000000       36.57000000000000
C           -2.58800000000000       -4.53000000000000       35.82399999999999
H           -2.70800000000000       -3.70300000000000       35.09200000000000
H           -3.20400000000000       -4.30900000000000       36.72200000000000
H           -2.92700000000000       -5.47800000000000       35.35499999999999
C            3.97400000000000       -8.18500000000000       38.87300000000000
H            3.01600000000000       -8.62800000000000       38.52700000000000
H            3.92000000000000       -8.02300000000000       39.97100000000000
H            4.80200000000000       -8.88500000000000       38.63300000000000
C            6.75100000000000       -6.51800000000000       38.46500000000000
H            7.61900000000000       -6.15300000000000       37.89700000000000
C            6.98200000000000       -7.20900000000000       39.55900000000000
H            6.14700000000000       -7.59600000000000       40.16200000000000
H            8.01300000000000       -7.40900000000000       39.88600000000000
C            8.48600000000000       -2.39100000000000       35.70600000000000
H            8.67000000000000       -3.25500000000000       36.38000000000000
H            8.89600000000000       -1.47200000000000       36.17700000000000
H            8.99200000000000       -2.57800000000000       34.73500000000000
C            6.99600000000000       -0.20700000000000       33.91100000000000
H            6.32900000000000        0.48400000000000       33.37700000000000
C            8.30100000000000        0.01800000000000       33.77900000000000
H            9.03300000000000       -0.63000000000000       34.28300000000000
H            8.66400000000000        0.85500000000000       33.16400000000000
C            1.94200000000000        1.25200000000000       33.05800000000000
H            2.11700000000000        0.94400000000000       32.00500000000000
H            2.85100000000000        1.76500000000000       33.43900000000000
H            1.07300000000000        1.94400000000000       33.09100000000000
C           -0.88700000000000        0.22900000000000       33.85200000000000
H           -0.83000000000000        0.61800000000000       32.81300000000000
H           -1.09300000000000        1.07500000000000       34.54200000000000
H           -1.70600000000000       -0.51900000000000       33.91299999999999
C            1.68800000000000        0.36000000000000       40.14999999999999
H            2.43700000000000        1.16000000000000       40.33400000000000
H            1.39100000000000       -0.08600000000000       41.12300000000000
H            0.80100000000000        0.80500000000000       39.65000000000000
N            3.40600000000000       -1.40300000000000       39.64000000000000
H            3.89500000000000       -1.28400000000000       40.50400000000000
C            2.28800000000000       -0.69400000000000       39.27199999999999
C            3.72200000000000       -2.25600000000000       38.67499999999999
H            4.57200000000000       -2.93600000000000       38.71000000000000
N            2.84400000000000       -2.13300000000000       37.69400000000000
C            1.93000000000000       -1.15900000000000       38.04700000000000
H            1.11200000000000       -0.89000000000000       37.39099999999999
C            3.92300000000000       -6.48300000000000       31.44600000000000
H            3.93200000000000       -5.88800000000000       30.50800000000000
H            3.35100000000000       -7.41900000000000       31.27300000000000
H            4.97000000000000       -6.72400000000000       31.72900000000000
N            1.97500000000000       -5.24600000000000       32.44000000000000
H            1.36000000000000       -5.43000000000000       31.67400000000000
C            3.27900000000000       -5.69300000000000       32.52900000000000
C            1.68700000000000       -4.54400000000000       33.52600000000000
H            0.71900000000000       -4.08300000000000       33.72100000000000
N            2.75700000000000       -4.50600000000000       34.30599999999999
C            3.76000000000000       -5.23500000000000       33.71100000000000
H            4.72400000000000       -5.35900000000000       34.18700000000000
87
 energy: -128.448541610172 gnorm: 0.068187011976 xtb: 6.7.1 (edcfbbe)
Fe           2.85846555675945       -3.35520721212182       36.02842910938129
N            1.08140104143475       -4.14619428500340       36.47536614720470
N            3.80003525037271       -4.92553718063983       37.00710308332247
N            4.73930712825945       -2.59051857063476       35.58907782159964
N            1.99838342352984       -1.90511767415891       35.09381700119325
C           -0.14026357200461       -3.65734271125639       36.07922177564357
C           -1.14451680835529       -4.65974956185477       36.24312047646567
C           -0.51902371404884       -5.74724277004873       36.78898927955591
C            0.86883572040278       -5.41297593685635       36.94531836113869
C            3.20862488499690       -6.01556482286634       37.52837933680012
C            4.20209848457746       -6.85195650171387       38.16670906081202
C            5.40449111482518       -6.21737283118279       38.00073201690673
C            5.12068551945747       -5.00002306497339       37.25009418347503
C            5.95170862007707       -3.02670376975067       36.02745884840201
C            7.00552831216392       -2.22387969723524       35.48343362236453
C            6.39643083966977       -1.27796211051055       34.69366509384055
C            4.97728712206734       -1.51895630435660       34.79546544944368
C            2.63542752294015       -0.90004562068923       34.42192161056380
C            1.65929470763803        0.03757555898152       33.88139721183175
C            0.43134095618986       -0.41623313974521       34.22763378215123
C            0.66771560179218       -1.63570238021795       35.00568790281173
C           -0.36116153657331       -2.40908726463921       35.50758932728649
H           -1.37675377283668       -2.04075308571453       35.42058227962580
C            1.83363254958106       -6.27017506324875       37.47426140805094
H            1.48769704780909       -7.21474649518518       37.87933484037494
C            6.11819724695315       -4.11394171493664       36.86921380131952
H            7.11519079477797       -4.29893848530179       37.24996943911076
C            3.99817807155494       -0.73228764146092       34.22833314982793
H            4.31340494571074        0.08706276941973       33.59724753081083
C           -1.13511400913099       -7.06274905501646       37.14601912348011
H           -2.20262861661074       -7.05635462613179       36.91082112592130
H           -1.01543534131587       -7.25269380857362       38.21725462971791
H           -0.65640473440707       -7.87475659524132       36.58763320503247
C           -2.58004106832388       -4.53370627078549       35.83358955394532
H           -2.70996813499774       -3.72423866686994       35.10822325460859
H           -3.20723500607420       -4.31635187800458       36.70517869868194
H           -2.93104642132068       -5.46139070453786       35.37111753720652
C            3.96744188411408       -8.17029546144541       38.85830848278911
H            3.02807420853517       -8.62305136359856       38.52967436528304
H            3.91363958650689       -8.02879373032383       39.94420268544484
H            4.78531291369397       -8.86466735477018       38.63971258559948
C            6.74140797902883       -6.53953093182933       38.46582507313973
H            7.58773865513517       -6.15932268908047       37.89557248866520
C            6.98748628419967       -7.23049283318670       39.56988661551684
H            6.17781951520059       -7.59913973822336       40.18326968528370
H            8.00148953371096       -7.41835682324135       39.90054982367388
C            8.47395541749413       -2.40440402653502       35.71698618768652
H            8.67071378318755       -3.25056708357155       36.37925214924645
H            8.89404510363913       -1.50161895413618       36.17575074663919
H            8.98619854245933       -2.59169212176844       34.76635312419454
C            7.00004347971975       -0.20902147524107       33.91147748945519
H            6.32030851953330        0.46209286458533       33.39009314995313
C            8.30262266100626        0.02758381136719       33.77289078065566
H            9.04443789915124       -0.58850864241181       34.25246128250561
H            8.66046696798631        0.84989779989296       33.16730766227933
C            1.95158790093953        1.24862550999457       33.05757622005847
H            2.12281258691553        0.95939822542464       32.01405568708513
H            2.84006931106216        1.76796697475038       33.42622887753540
H            1.10175876347923        1.93640558509716       33.09002159650815
C           -0.87874593640026        0.21391175055859       33.86243066182389
H           -0.83513317684937        0.60267462324431       32.83905130000928
H           -1.09861765809622        1.05372163428507       34.53207424801955
H           -1.70021260816302       -0.50469604785749       33.91779397494167
C            1.69212246757858        0.35990552019155       40.15052111984389
H            2.42048529333950        1.15650393800116       40.33854142198668
H            1.38952878262317       -0.06762545879587       41.11227061416675
H            0.81742538775642        0.79404498498782       39.66202667962022
N            3.40631369783514       -1.39069723511084       39.65468357776909
H            3.90128218651037       -1.26941569613596       40.52072703663243
C            2.28907407674478       -0.69097027441853       39.28151213665376
C            3.71034691130802       -2.25591085645740       38.67602174452306
H            4.55202175021121       -2.92621375563968       38.70263019267966
N            2.83777140900943       -2.15481658646386       37.69964682250660
C            1.94505410661268       -1.17538573572352       38.05502948821094
H            1.13523646708800       -0.90539653344093       37.40375373933853
C            3.92090672914363       -6.48529743381883       31.44285603762935
H            3.93698398081843       -5.90783867842553       30.51165056681262
H            3.36934936398979       -7.41451695586774       31.26554853931838
H            4.94890161676175       -6.72548692609755       31.72133201795459
N            1.98328390830868       -5.25415012102975       32.43144964489194
H            1.36205168125451       -5.43996835415031       31.66317952451600
C            3.28050822540415       -5.69422142472124       32.52350343082340
C            1.70490057774128       -4.53961082412639       33.53141494754026
H            0.74853525497854       -4.08514328500943       33.72561728277418
N            2.75784497995918       -4.49379286065988       34.32083273513909
C            3.74686802448152       -5.21925774692480       33.71267088463188
H            4.70371127580994       -5.34303802907831       34.18338279013384
87
 energy: -128.456492693266 gnorm: 0.019123113435 xtb: 6.7.1 (edcfbbe)
Fe           2.86604179898450       -3.35061536566500       36.02933926017801
N            1.09128175146513       -4.14952716325403       36.45660461220717
N            3.78938463143435       -4.89328207045068       37.00406479820378
N            4.72438863758882       -2.58932908075305       35.57377596615768
N            2.00179278561154       -1.88263856629326       35.07658119677335
C           -0.12252430674592       -3.67155785731020       36.07407413077438
C           -1.14526165430375       -4.66690092062355       36.26504558892877
C           -0.52149593713284       -5.75358380870961       36.80145225794072
C            0.87666648892407       -5.40962923708180       36.93062037782654
C            3.20066108182475       -5.99666614580633       37.53600604840202
C            4.19328707157229       -6.84109202973002       38.17274571621457
C            5.39814640538699       -6.20312932382733       38.01481078724585
C            5.11695632965268       -4.99590295959960       37.25242110786272
C            5.93452732290925       -3.02467019043976       36.02034839814193
C            7.00062876542330       -2.22032088825911       35.48341902883237
C            6.40151158866210       -1.26891594276287       34.68730113666236
C            4.97414087501767       -1.51783706820009       34.78636360522001
C            2.62978186883799       -0.88598036873137       34.39786423387589
C            1.66031087846652        0.04236776714508       33.86404091923038
C            0.43450322130205       -0.41070267389091       34.23420668089044
C            0.66790783562399       -1.61993668752695       34.99777466159820
C           -0.33943031580514       -2.42265215556903       35.50016735343334
H           -1.35833794078667       -2.07870924482395       35.38970172022029
C            1.83834562154983       -6.25413555249762       37.46816532616884
H            1.49100043827549       -7.19515890162094       37.87180218060146
C            6.10719750706539       -4.11446426653419       36.85972191045732
H            7.10829096075085       -4.31144938221803       37.21389150829816
C            3.98902391241569       -0.73015870166520       34.21613450289329
H            4.30560780116329        0.10026232745868       33.60574516441505
C           -1.13102157943988       -7.06609926123006       37.15495931391714
H           -2.19152621611216       -7.06363062302623       36.92212767288008
H           -1.01386987656129       -7.26727287689948       38.21808664964227
H           -0.65581084866614       -7.87507011225969       36.60210017186426
C           -2.57543843998924       -4.53556069106384       35.85215732559454
H           -2.70098318068167       -3.73642062495109       35.12641615800137
H           -3.21058510631130       -4.31803894541088       36.71031361484804
H           -2.92784054251862       -5.45843301209994       35.39577288990129
C            3.95277179346263       -8.15060910797046       38.84580996134437
H            3.02565791305781       -8.60736239698804       38.51242790433705
H            3.89282927850865       -8.02156984045367       39.92733184028496
H            4.77384438996124       -8.83516811791077       38.63738966502593
C            6.72254846157818       -6.55226150016411       38.47954299885210
H            7.55315142380702       -6.18252229768577       37.89118138396690
C            6.98523691504030       -7.24344219018308       39.58584004900177
H            6.19730151818917       -7.61214803787126       40.21259147918320
H            7.99395436458905       -7.44656363810014       39.89750980732977
C            8.45769603158718       -2.41945208512283       35.73085199829794
H            8.64659227005089       -3.25853056183790       36.39155279060228
H            8.88864839910062       -1.52573642185854       36.18298728213594
H            8.97604009100877       -2.61075501283540       34.79113737142099
C            6.99937911594477       -0.21165617691017       33.91192082954436
H            6.30411777307369        0.44115898490335       33.39882145598079
C            8.30004416471507        0.04055658626657       33.76272121524176
H            9.06279269083565       -0.54989143212404       34.22505247679961
H            8.64472883886323        0.86009640465350       33.15855431371556
C            1.95820045487807        1.25295187421442       33.04940890278746
H            2.13543417313060        0.97534607492645       32.01008212521167
H            2.83845153579326        1.76952200982646       33.41986435593279
H            1.11792917333057        1.94065858708201       33.08222682251386
C           -0.87747686658035        0.20428398867988       33.87591622212976
H           -0.84002852073232        0.58973566453428       32.85803084618124
H           -1.10618868671946        1.03869306381363       34.54000638013012
H           -1.69104872218459       -0.51107559374053       33.93510798321375
C            1.69412934887540        0.35916129367595       40.14598065948424
H            2.41213328286372        1.15559544541699       40.33558260428199
H            1.38903224809073       -0.05776717052858       41.10452981188217
H            0.82397089512174        0.78430731324566       39.65970201828738
N            3.41340525934327       -1.38400900948524       39.66543836095224
H            3.91341956314998       -1.25743193517626       40.53026455240032
C            2.29341520525594       -0.69333861693555       39.28634179826206
C            3.70663344314284       -2.26358727850234       38.68336382445946
H            4.54298943627406       -2.92936308332079       38.70747104930111
N            2.84046004615079       -2.17733211734327       37.70627044147115
C            1.95531379781584       -1.20037097893430       38.06390251419592
H            1.14632719112281       -0.92989768512215       37.41874782221834
C            3.92529271946683       -6.49090591493761       31.44345127618452
H            3.94209794464402       -5.92398829419867       30.51340918005432
H            3.37957463909830       -7.41619201677834       31.26823734424274
H            4.94462894858911       -6.73130191521831       31.72111537120216
N            1.99201928118499       -5.25745770285932       32.42547390806750
H            1.36445705684347       -5.44846117625762       31.66081738364788
C            3.28707127086120       -5.69264192980583       32.51952884642552
C            1.72302003088791       -4.52784784931561       33.52877149418995
H            0.77279361479446       -4.07709181705633       33.72353247235790
N            2.76937313541648       -4.46943378140107       34.31635871528159
C            3.74713282634166       -5.19895066679325       33.70770648531638
H            4.70244120552094       -5.32110933333021       34.17300962836339
87
 energy: -128.458779891658 gnorm: 0.012826022612 xtb: 6.7.1 (edcfbbe)
Fe           2.87470897422505       -3.35052900633906       36.02811877789603
N            1.09833855135479       -4.15437077493603       36.44199951412644
N            3.78508187033368       -4.87632050778583       37.00261917397494
N            4.71496298941399       -2.58442625627781       35.56550574180795
N            2.00627097699926       -1.87101408598860       35.06654297101995
C           -0.11264177133937       -3.67670870544733       36.06413688410732
C           -1.14311893703977       -4.66740456408860       36.27518629110885
C           -0.51975773144249       -5.75380327200968       36.80941216233368
C            0.88106289296033       -5.40862860421729       36.92440591186465
C            3.19599124867692       -5.98176313254355       37.53901216250966
C            4.18086619839451       -6.82414998082147       38.18161297269782
C            5.38788051125097       -6.19104565817085       38.02784330930116
C            5.11311395213839       -4.98972389299636       37.25734607430661
C            5.92257906532009       -3.02527336009799       36.01194695202771
C            6.99335314255480       -2.22274391624396       35.48106792096768
C            6.40175005239986       -1.26780921887820       34.68338212710069
C            4.97117810150109       -1.51340683992392       34.77998560303998
C            2.62840431525688       -0.87492017583838       34.38394543537899
C            1.65847397955456        0.04999176406531       33.85030937073760
C            0.43441724688307       -0.40617802355512       34.23059382741590
C            0.67055903059470       -1.61397689436644       34.98702432920965
C           -0.32772761151548       -2.43342088831215       35.48278766794383
H           -1.35035008521749       -2.10770604361369       35.35218662238491
C            1.83906268251973       -6.24753490914379       37.46599014134404
H            1.49104955538063       -7.18674419547948       37.87147382219234
C            6.10108961022597       -4.11526196251621       36.84878287557996
H            7.10797270642124       -4.32378903178251       37.17954539139667
C            3.98923130125312       -0.72195608868136       34.20924092326992
H            4.30757157998049        0.11401481286629       33.60661151994566
C           -1.12397458803649       -7.06757076545621       37.16854030830667
H           -2.18556328960167       -7.07016426490844       36.93760044842922
H           -1.00547933204454       -7.27270606824329       38.23141327975559
H           -0.64705366553648       -7.87622847722092       36.61557429883021
C           -2.57496518887382       -4.53539682511876       35.87292791843191
H           -2.70120942205311       -3.74137939566049       35.14228440031842
H           -3.20835032735930       -4.31258244266299       36.73110008529056
H           -2.93012765411393       -5.46222240346612       35.42521291693161
C            3.93291446238331       -8.13513485210163       38.84162441046639
H            3.01349932331534       -8.59362027009705       38.48856823379695
H            3.85532630976600       -8.01467041937758       39.92345560331615
H            4.76217210111364       -8.81304993204887       38.64103682877030
C            6.70595522567738       -6.56627072735605       38.48881282692955
H            7.53237285189769       -6.20492164830865       37.88992990788835
C            6.97737437297159       -7.26662659098089       39.58784633643741
H            6.20049779938231       -7.61205538638425       40.24591959043954
H            7.98944222297442       -7.47891614245470       39.88558776891325
C            8.44525302802099       -2.43329777893227       35.74184298222646
H            8.61832758449833       -3.27062304796655       36.41020788781513
H            8.88312645627020       -1.54218245337850       36.19252336969064
H            8.97051221138670       -2.63596334831749       34.80804649735933
C            6.99536540389502       -0.21132269922697       33.90798360137638
H            6.28820611558261        0.43079171010476       33.39773694107900
C            8.29215109341887        0.05797620544412       33.74854814324091
H            9.07647553970555       -0.51458484604148       34.20325639089677
H            8.61757949796947        0.88233575849358       33.13772735441834
C            1.96074041226793        1.26260091988908       33.03921565543953
H            2.14874237150461        0.99085458665231       31.99971963750175
H            2.83949852830825        1.77727990308711       33.41850347646442
H            1.12194557870456        1.95247765749205       33.06748024349604
C           -0.88412881242988        0.20087564151376       33.88632331660322
H           -0.85799036793096        0.58845347454148       32.86919773901272
H           -1.11633889211813        1.03009965267523       34.55571300364966
H           -1.68997336156438       -0.52326035749815       33.95287612343309
C            1.69540369782829        0.35590415678121       40.13937900969059
H            2.40969011478059        1.15693005053867       40.32531298115176
H            1.38764714729092       -0.05296462227572       41.10127864923579
H            0.82477241221511        0.77381598417875       39.64648843323965
N            3.42424024309292       -1.38506606005246       39.67390217239011
H            3.92879917153232       -1.24829542904709       40.53477521126794
C            2.29946359851321       -0.70256715639494       39.29020239648867
C            3.71428037053770       -2.27515841477333       38.69764437204386
H            4.55213744118358       -2.93861664184839       38.72389103172988
N            2.84460039075631       -2.20323916997811       37.72232048420866
C            1.95969630486640       -1.22604796889817       38.07466599168426
H            1.14611246421675       -0.96016461160313       37.43351876377904
C            3.93491334113922       -6.49920160956871       31.44721031461400
H            3.95223912738924       -5.94117478103405       30.51136628441594
H            3.38666924865605       -7.42492313555826       31.27995121579497
H            4.95391115138910       -6.74089093269208       31.72612476560038
N            2.00425787757621       -5.25558135406752       32.42244636334672
H            1.37247271772046       -5.45360378050010       31.66305185856034
C            3.30027306385638       -5.68869333335483       32.51714461243728
C            1.74033212593042       -4.51328418971223       33.52070478478337
H            0.79156924583358       -4.05932350019467       33.71370382187811
N            2.78738907456318       -4.44908526793012       34.30538423754410
C            3.76370326835261       -5.17881048517295       33.69805685958344
H            4.72272841238828       -5.29434870040330       34.15752138058525
87
 energy: -128.460246405305 gnorm: 0.009712234103 xtb: 6.7.1 (edcfbbe)
Fe           2.88516622366941       -3.35260711224123       36.02506887200546
N            1.10491283484213       -4.16091444406349       36.42480682142121
N            3.78290838753910       -4.86708809027595       36.99340708947730
N            4.70479706374365       -2.57689242188988       35.56314442073590
N            2.00983917012718       -1.85690229905796       35.06139412754621
C           -0.10532624261786       -3.67997111392297       36.04964834861104
C           -1.14115126846734       -4.66581393237576       36.28071421404950
C           -0.51847375517500       -5.75072712729637       36.81679384332627
C            0.88350441151615       -5.40843883044435       36.91851040600996
C            3.19127962746264       -5.96818351131787       37.53905328964215
C            4.16599774005999       -6.80519472629897       38.19194882761962
C            5.37616281837076       -6.17873474566824       38.04135646146495
C            5.10973113760907       -4.98636031472535       37.25801117968687
C            5.91116907074245       -3.02672070137012       36.00252707403055
C            6.98440609020767       -2.22549870739943       35.47614608781732
C            6.39793009431325       -1.26680647443997       34.68143049771528
C            4.96514800630310       -1.50557376981725       34.77794223486245
C            2.62624835400119       -0.86003999955853       34.37526697686477
C            1.65378930400312        0.06136738456836       33.83893481858814
C            0.43170252195016       -0.40108422706788       34.22203401442111
C            0.67257330020403       -1.60825698219629       34.97544287607730
C           -0.31936917312041       -2.44464076441828       35.45788081434009
H           -1.34494645331406       -2.13705327177121       35.30668950477080
C            1.83740040043158       -6.24338201141533       37.46523766450365
H            1.48966824414292       -7.18010685217533       37.87557681236093
C            6.09658831484840       -4.12004389230161       36.83228820246472
H            7.10733328037913       -4.33994832571019       37.14235056452376
C            3.98942854781705       -0.70903512770150       34.20650443412333
H            4.30939690760157        0.12761735063372       33.60494904768376
C           -1.11555240347175       -7.06519948882023       37.18828729085480
H           -2.17925766965023       -7.07626241262381       36.96116703343294