78
 energy: -116.058038190558 gnorm: 0.000186883144 xtb: 6.7.1 (edcfbbe)
Fe         -11.52948103926789        2.36943929610469        1.39141933796002
N          -12.16936552448094        0.75575057329608        2.37038273520092
N           -9.88435421927480        2.41984843959288        2.51717431665746
N          -10.87114612859170        3.96392945142207        0.35089390802123
N          -13.15807449011098        2.29069476054523        0.21091077854025
C          -13.32906625732977        0.07834007487480        2.16954398968802
C          -13.44255278535034       -1.03012367434065        3.09338935265485
C          -12.31990762747298       -1.00445614694541        3.85881346445917
C          -11.53761475413514        0.12049499534502        3.39239592195410
C           -9.55476170741209        1.55989120091817        3.51747606480621
C           -8.29855608041954        1.92797616610834        4.12016955257181
C           -7.87165908639534        3.05049737467494        3.46247884033528
C           -8.87956546767331        3.33061802217579        2.45651136079234
C           -9.74188087271407        4.68490573305072        0.59836699728949
C           -9.63004901970144        5.79127664290281       -0.31543786807804
C          -10.73002359143051        5.73096481072212       -1.13130592420560
C          -11.48950271089863        4.57761971769707       -0.69260150789326
C          -13.47395727374415        3.13502718870292       -0.80924851678213
C          -14.75165533844790        2.78330800408931       -1.38653164847674
C          -15.20573931003471        1.71074511694653       -0.68330462928170
C          -14.19804018346233        1.41963231903161        0.31100023089391
C          -14.28600674584101        0.38272468029978        1.21984276978579
H          -15.16770359465963       -0.23843250339174        1.18248566443493
C          -10.32076702447744        0.48400291151898        3.93287723423728
H           -9.94016154797709       -0.11474603311734        4.74648649197705
C           -8.81421247823177        4.39898165471705        1.58432634424067
H           -7.97225423759836        5.06741284954365        1.67850187690581
C          -12.70087331303387        4.19649368199166       -1.24230514300361
H          -13.08741963043418        4.78891013190643       -2.05735360842894
C          -11.90715251010102       -1.91586387460969        4.96351820794947
H          -12.65788622891578       -2.68393802231359        5.13232835343753
H          -11.77054021402021       -1.36005072155102        5.89172982985991
H          -10.96397491570585       -2.40586816212724        4.72143307493960
C          -14.59307042813214       -1.97654157973880        3.13450032124533
H          -14.69352630749464       -2.49831957402347        2.18257272884933
H          -15.52358632956289       -1.44168847724148        3.32646465707813
H          -14.45639092271436       -2.71811266624953        3.91774701543446
C           -7.60479474944154        1.16224769349169        5.19238200272886
H           -7.73109135905749        0.09124367633313        5.04236899694162
H           -8.00435253824043        1.41549488188617        6.17615667021148
H           -6.54120319711805        1.39161291647531        5.18524729200278
C           -6.66166850953647        3.81816791395667        3.65556483374181
H           -6.23953733931728        4.26035510736863        2.76059103301442
C           -6.05220061922430        4.01930601246653        4.81961065886876
H           -6.44921758861149        3.64489097357679        5.74700924520975
H           -5.14180969986424        4.59155399985246        4.88731884354974
C           -8.48554400259055        6.74131833547901       -0.37664461861855
H           -7.54578011275385        6.22585014444986       -0.18440985492816
H           -8.59518494722080        7.53097281990239        0.36847651168339
H           -8.43472412713231        7.20214071203617       -1.36115913432761
C          -11.10036656230381        6.58881274255709       -2.23495685398029
H          -11.62092850244705        6.10231171462692       -3.05215056639680
C          -10.86210213317623        7.89416419136145       -2.31155430476158
H          -10.39227925555051        8.43857805718632       -1.51121220892823
H          -11.15438671649428        8.47035069065271       -3.17379439195562
C          -15.38551075522495        3.50307245777278       -2.52731090735570
H          -14.74274976488797        3.47046778512952       -3.40756816515673
H          -15.55670510210622        4.54953830237353       -2.27336234852342
H          -16.34098003759686        3.05313083133422       -2.78532753190765
C          -16.47033554408435        0.94006688524902       -0.84880441720396
H          -17.06864326396176        1.34718287288111       -1.66021988685678
H          -17.06242205381362        0.97574605979088        0.06586116916548
H          -16.25613668870349       -0.10553895985952       -1.07162560534121
O          -10.49565933912995        1.07751842038304       -0.20051282785965
H          -11.26230613046470        0.82189791361247       -0.72518453754032
H          -10.03019226914164        1.76190156781183       -0.69384977024598
C          -14.56113065906074        6.40766519007835        3.75190761320887
H          -14.04041151898110        7.14497671442208        4.36274027388863
H          -15.47926689610297        6.12539000523983        4.26709992706824
H          -14.82114062166163        6.86400902979638        2.80199475676915
N          -13.21366785789545        4.44703671112521        4.53435627726749
H          -13.37600550805594        4.59806106474298        5.51642938328967
C          -13.70295526535524        5.21968843927408        3.51391649816049
C          -12.47681705132020        3.45700921051605        3.98201025052252
H          -11.97084906537220        2.69888024874578        4.54387529139970
N          -12.47039616432565        3.55583936037429        2.67466580746097
C          -13.22902040830762        4.64710214269488        2.36859862404858
H          -13.38204617711839        4.94664080033475        1.35281339564662
