78
 energy: -115.823274651911 gnorm: 0.521522722277 xtb: 6.7.1 (edcfbbe)
Fe         -11.49000000000000        2.37700000000000        1.31400000000000
N          -12.22200000000000        0.76100000000000        2.32500000000000
N           -9.87000000000000        2.49500000000000        2.56600000000000
N          -10.87700000000000        4.10800000000000        0.34400000000000
N          -13.19000000000000        2.29500000000000        0.20800000000000
C          -13.33600000000000        0.03000000000000        2.07700000000000
C          -13.27100000000000       -1.19100000000000        2.96500000000000
C          -12.13900000000000       -1.11800000000000        3.67500000000000
C          -11.43300000000000        0.19800000000000        3.26700000000000
C           -9.49800000000000        1.54000000000000        3.45300000000000
C           -8.33500000000000        1.92800000000000        4.12100000000000
C           -8.04000000000000        3.12800000000000        3.61500000000000
C           -9.00400000000000        3.53200000000000        2.57900000000000
C           -9.74500000000000        4.77400000000000        0.63100000000000
C           -9.62900000000000        5.71300000000000       -0.37600000000000
C          -10.62400000000000        5.64400000000000       -1.25900000000000
C          -11.51100000000000        4.58200000000000       -0.75700000000000
C          -13.54500000000000        3.26300000000000       -0.67900000000000
C          -14.84000000000000        3.02200000000000       -1.20200000000000
C          -15.35200000000000        1.93400000000000       -0.61500000000000
C          -14.21400000000000        1.40700000000000        0.32100000000000
C          -14.21000000000000        0.30300000000000        1.25700000000000
H          -15.07600000000000       -0.35800000000000        1.23200000000000
C          -10.21100000000000        0.39200000000000        3.92900000000000
H           -9.84600000000000       -0.25700000000000        4.71600000000000
C           -8.87400000000000        4.47300000000000        1.62200000000000
H           -7.95700000000000        5.06200000000000        1.65000000000000
C          -12.85000000000000        4.23100000000000       -1.24900000000000
H          -13.27400000000000        4.77400000000000       -2.09200000000000
C          -11.70300000000000       -2.18600000000000        4.69600000000000
H          -12.46500000000000       -2.99400000000000        4.73600000000000
H          -11.61200000000000       -1.72700000000000        5.70400000000000
H          -10.72900000000000       -2.62400000000000        4.38900000000000
C          -14.42400000000000       -2.15400000000000        2.82100000000000
H          -14.46800000000000       -2.52700000000000        1.77500000000000
H          -15.37800000000000       -1.63600000000000        3.05900000000000
H          -14.28000000000000       -3.01700000000000        3.50500000000000
C           -7.67300000000000        1.12300000000000        5.26700000000000
H           -7.55500000000000        0.06300000000000        4.95600000000000
H           -8.31400000000000        1.16300000000000        6.17300000000000
H           -6.67100000000000        1.54600000000000        5.49200000000000
C           -6.84100000000000        4.07900000000000        3.78800000000000
H           -6.46300000000000        4.68900000000000        2.95500000000000
C           -6.20200000000000        4.16400000000000        5.08900000000000
H           -6.56900000000000        3.56000000000000        5.93200000000000
H           -5.34300000000000        4.83300000000000        5.24700000000000
C           -8.37600000000000        6.61500000000000       -0.48500000000000
H           -7.46800000000000        6.01700000000000       -0.25700000000000
H           -8.45000000000000        7.45000000000000        0.24400000000000
H           -8.29200000000000        7.01800000000000       -1.51700000000000
C          -10.85300000000000        6.34800000000000       -2.58800000000000
H          -11.22500000000000        5.79800000000000       -3.46500000000000
C          -10.61000000000000        7.60400000000000       -2.69600000000000
H          -10.23700000000000        8.17700000000000       -1.83400000000000
H          -10.77200000000000        8.12400000000000       -3.65200000000000
C          -15.55600000000000        3.79200000000000       -2.33900000000000
H          -14.95800000000000        3.71700000000000       -3.27200000000000
H          -15.65700000000000        4.86300000000000       -2.06100000000000
H          -16.55900000000000        3.35000000000000       -2.51800000000000
C          -16.70900000000000        1.16800000000000       -0.57500000000000
H          -17.44700000000000        1.68700000000000       -1.22300000000000
H          -17.09700000000000        1.14500000000000        0.46600000000000
H          -16.56600000000000        0.13200000000000       -0.95000000000000
O          -10.70500000000000        1.41500000000000        0.25100000000000
H          -11.02000000000000        0.52600000000000        0.41700000000000
H          -10.10600000000000        1.65500000000000       -0.36100000000000
C          -14.86200000000000        6.23500000000000        3.78900000000000
H          -14.36600000000000        7.20200000000000        4.02000000000000
H          -15.48100000000000        5.93100000000000        4.66000000000000
H          -15.50500000000000        6.36500000000000        2.89300000000000
N          -12.86700000000000        4.81200000000000        4.43500000000000
H          -12.79000000000000        5.19100000000000        5.35700000000000
C          -13.81600000000000        5.18600000000000        3.51700000000000
C          -12.07900000000000        3.87500000000000        3.90300000000000
H          -11.25000000000000        3.39700000000000        4.42300000000000
N          -12.48400000000000        3.64400000000000        2.66000000000000
C          -13.56400000000000        4.45500000000000        2.39500000000000
H          -14.05500000000000        4.43700000000000        1.43000000000000
78
 energy: -115.967244787908 gnorm: 0.228911303096 xtb: 6.7.1 (edcfbbe)
Fe         -11.53875943804967        2.42136504911773        1.36262009956150
N          -12.17764875025410        0.75532418836823        2.33713456161398
N           -9.88709595132388        2.47142855721003        2.55752459801895
N          -10.90584145122691        4.08008191471880        0.34546177051724
N          -13.19571402088258        2.29154486513122        0.21175192359136
C          -13.29766762934268        0.02519679857380        2.09812872594039
C          -13.28148225376207       -1.18564968234940        2.95920536137546
C          -12.15223776486340       -1.12859521790825        3.68328591308526
C          -11.44072437638830        0.14855793566942        3.28460419815996
C           -9.51017393925117        1.54486498018315        3.47208649961893
C           -8.31553646130306        1.94483367112875        4.13795288893497
C           -7.99352894135807        3.15956237893048        3.61272282945103
C           -8.98373050769903        3.49075787907517        2.57826967692544
C           -9.76062934745327        4.76109590016733        0.61487868106870
C           -9.60725416371684        5.73142513403352       -0.39913567492443
C          -10.63550656835854        5.63803112704557       -1.28323585935426
C          -11.50477690165309        4.58787508165489       -0.75800109712979
C          -13.54548328442292        3.24575940415704       -0.69543056512858
C          -14.86932843256087        3.00027488621878       -1.20798247758912
C          -15.35407085956395        1.89982583928178       -0.58707372325208
C          -14.23317275180170        1.43019134109327        0.31858241353638
C          -14.24428531440662        0.32700200040014        1.21639004367429
H          -15.09504929061535       -0.34229105650437        1.20369422473617
C          -10.22650377240940        0.40530941039622        3.90151705910153
H           -9.85373989395030       -0.23860301673799        4.68931999310998
C           -8.87210502398321        4.47010731506395        1.62788913690453
H           -7.96745364151736        5.06970967454870        1.65625591974429
C          -12.80774052956902        4.24247194797198       -1.24401806672663
H          -13.24338062640215        4.78448777278229       -2.07714207631597
C          -11.70416134903170       -2.17438961487325        4.68841560219999
H          -12.45212523288425       -2.97922835201445        4.73478141398692
H          -11.61025261742734       -1.73269817803576        5.69096200102086
H          -10.74040399372650       -2.61593574785982        4.39456092773963
C          -14.41684649817033       -2.15638052581957        2.82630300177002
H          -14.46793717221253       -2.52564953864348        1.79047210404204
H          -15.36472175413359       -1.64778703313265        3.05907917932593
H          -14.28637154065781       -3.01193888642920        3.49960443127383
C           -7.67273473058642        1.13289512142978        5.25499707419013
H           -7.55778273872908        0.07980773685663        4.95713487716603
H           -8.30261309816768        1.16626544087824        6.15801517195822
H           -6.68194183177669        1.53834053646845        5.48850176715484
C           -6.82918397358438        4.06698347622337        3.83845331462157
H           -6.47307879727610        4.66855788443496        2.99218990358393
C           -6.21435313059857        4.16305300748141        5.05888285406550
H           -6.56614101314760        3.57850699199792        5.90830324369109
H           -5.36203769380347        4.82133630464313        5.23256366235000
C           -8.37752224424223        6.61668124752483       -0.48983130937916
H           -7.47855935963597        6.02698193884737       -0.26139972943792
H           -8.44747325974163        7.44218057129794        0.23287417378850
H           -8.28953264721008        7.01754309325118       -1.50558221481897
C          -10.85572147843748        6.33649466499960       -2.57458745946202
H          -11.22446815826354        5.78548193686235       -3.44127070392718
C          -10.60605943187796        7.62102908840471       -2.69710744291152
H          -10.24237806930506        8.18847385774645       -1.84730547478232
H          -10.76615410390005        8.13241988780207       -3.64270924488555
C          -15.55254578332631        3.78491261975822       -2.32568374033068
H          -14.96686971930841        3.71629925451686       -3.25623104188827
H          -15.65768981151373        4.84832805903461       -2.06371921779896
H          -16.54540912382187        3.35796368104568       -2.51371322863535
C          -16.69560368723518        1.17604942670044       -0.57970234812410
H          -17.43536985730271        1.68176320315085       -1.21635930376764
H          -17.08696567423195        1.14586549897041        0.44820327527004
H          -16.56662859654876        0.14678651193553       -0.94347316233549
O          -10.70819914445768        1.39871064269954        0.25481850997274
H          -11.01065711225742        0.49980636650261        0.40240926658050
H          -10.07689668754995        1.64734123268302       -0.39476965185605
C          -14.85821774354067        6.23451083971012        3.79083453367398
H          -14.37442989107803        7.19455236555825        4.01901332781720
H          -15.47695038286030        5.93772852741154        4.64954935533009
H          -15.49581946249284        6.36173868895132        2.90719768987226
N          -12.87614573097868        4.82002543486799        4.44075636359450
H          -12.79371402383873        5.19752558941496        5.36619619289790
C          -13.81961375459428        5.19421986115513        3.51877954637517
C          -12.08880651620813        3.87875452472692        3.89678265541802
H          -11.26517929935897        3.40299012454879        4.41047505200779
N          -12.48735371931432        3.64306615906270        2.66551943138602
C          -13.55801809113223        4.45271407823597        2.40424184441099
H          -14.04673838043129        4.43537631959416        1.44431654755551
78
 energy: -116.019477338019 gnorm: 0.083046048051 xtb: 6.7.1 (edcfbbe)
Fe         -11.57448022136516        2.45391954314762        1.40575168460405
N          -12.15458446475673        0.75563021701365        2.34614143545109
N           -9.90256780002733        2.46405378313700        2.55625338282159
N          -10.93362034940343        4.05504433766463        0.35788828017307
N          -13.20481994989232        2.30781845967315        0.22534132415220
C          -13.27745020258812        0.03123579715120        2.10025947235610
C          -13.29643501755496       -1.16757245328384        2.93335398706542
C          -12.16689462305625       -1.13634467268161        3.68105904157729
C          -11.46004472490104        0.09467137131792        3.30205465121651
C           -9.52540998716080        1.55830680261706        3.49404927296350
C           -8.30830924917381        1.96377281565002        4.15239001812962
C           -7.95930064400190        3.17686114735586        3.59979281547566
C           -8.96198738726298        3.45291945211384        2.56766588926129
C           -9.77702857445273        4.74069219283032        0.60085391881725
C           -9.58958630375557        5.73641183889091       -0.41615925751129
C          -10.64408413819520        5.62731463234408       -1.29515898153135
C          -11.49954865957076        4.58658493301097       -0.75420044659315
C          -13.54659993964950        3.23287518055429       -0.71472429515149
C          -14.88754737075026        2.97704072191247       -1.21609611564961
C          -15.34033614101349        1.87092182202459       -0.55495164859120
C          -14.24905534249484        1.45515331908576        0.33411855957653
C          -14.25995559649343        0.35569985029297        1.19329740290520
H          -15.10186879575182       -0.31935721292463        1.18281962019755
C          -10.24472569827404        0.42476417143161        3.87225337223099
H           -9.85881733746375       -0.21589791202158        4.65581168414393
C           -8.87601750255771        4.46664701894422        1.62886968354737
H           -7.98751763156983        5.08316436470565        1.66366009031185
C          -12.76548698870122        4.24610033714983       -1.23332371349871
H          -13.20247118938455        4.79342946712408       -2.05885570739147
C          -11.71013430795805       -2.15988105503180        4.67753491143390
H          -12.44244172382827       -2.96621819355471        4.73334068314352
H          -11.60823519302786       -1.73120540882834        5.67617243426299
H          -10.75135899490243       -2.60014081633073        4.39501140545474
C          -14.41157258209500       -2.15450890365700        2.82825542605621
H          -14.46940286688226       -2.52839067816333        1.80384552530703
H          -15.35695481999770       -1.66089210617224        3.06172511004507
H          -14.28430171137260       -3.00186249599098        3.49761348699590
C           -7.67286158477650        1.14993852425791        5.24073277836573
H           -7.56538196247908        0.10231071324331        4.94877275773730
H           -8.29089722822590        1.17418425371092        6.14386133627180
H           -6.68631520647802        1.53360634537294        5.48385865287096
C           -6.82743901069095        4.04781349552791        3.87176113055566
H           -6.48695423425533        4.64789155979928        3.02438001324225
C           -6.22749931390703        4.15835331212246        5.03601661493124
H           -6.56388673545496        3.59732297712890        5.89640139155886
H           -5.38101301393159        4.80925883858896        5.21548318112521
C           -8.38342442220381        6.61213612563217       -0.49666934353289
H           -7.48639712863982        6.03607396586904       -0.26667084588880
H           -8.44805453561420        7.43334861123557        0.22017663866233
H           -8.28679756456339        7.02085423436199       -1.49857881795786
C          -10.85701056316171        6.33149237044783       -2.54965568136530
H          -11.22883125770313        5.77455673905518       -3.40454426088466
C          -10.60149135365897        7.62836370251325       -2.69483369624193
H          -10.24970922184376        8.20337862488653       -1.85873722770115
H          -10.75859025582795        8.13285956904611       -3.63350310819609
C          -15.55142212473771        3.76866617024275       -2.30894528872615
H          -14.97186176209117        3.70995271923544       -3.23531225378711
H          -15.65411007209576        4.82622677686178       -2.05466682600782
H          -16.54069855416026        3.36291484482312       -2.50947570712182
C          -16.67174704869373        1.18307802550788       -0.57925751034994
H          -17.40573366944835        1.68482378250957       -1.21159246873731
H          -17.07882455392979        1.14469021445959        0.43420051121493
H          -16.56510359414391        0.15739694170260       -0.93778360707611
O          -10.69695639500673        1.37328182017583        0.24418820303742
H          -10.98182544274562        0.46342512178132        0.36309690172029
H          -10.05708408191106        1.62053987113506       -0.42507164739510
C          -14.85433476652461        6.23479508047044        3.79235804175246
H          -14.38200715335043        7.19071845446074        4.01955778642383
H          -15.47382932980895        5.94395613966492        4.64146196403253
H          -15.48808297243245        6.35828643305302        2.91832347084691
N          -12.88590650378735        4.82838119110121        4.44797784951967
H          -12.79823453433985        5.20489443291864        5.37609220046639
C          -13.82179701964540        5.20158309943728        3.51987169180453
C          -12.10086386287848        3.88059708964624        3.89283007160526
H          -11.28225233197117        3.40881372296956        4.40046651043267
N          -12.48754550914567        3.63607992907314        2.66659200822188
C          -13.55156807479334        4.44820383068191        2.41314385729700
H          -14.03970201765444        4.43418867678480        1.45897832351384
78
 energy: -116.033671844042 gnorm: 0.052347383944 xtb: 6.7.1 (edcfbbe)
Fe         -11.58211183679764        2.45271744209674        1.41820860424384
N          -12.15044181363693        0.75737397937754        2.35468275116079
N           -9.91214304233421        2.46685738332906        2.55415076032309
N          -10.93878102122491        4.03433336473368        0.37149509043007
N          -13.20988869262672        2.33521500376851        0.24034596086933
C          -13.27591116380212        0.04024750382912        2.10038633737777
C          -13.31061303435070       -1.15592116472939        2.91317005529408
C          -12.18188925345967       -1.13932245689452        3.67361502394689
C          -11.47344798413379        0.06646843760365        3.31036659440352
C           -9.54532454339682        1.57237434968757        3.50939449301235
C           -8.31950471108565        1.97648151618776        4.15974381269070
C           -7.95349259058855        3.17435866157592        3.58347589007298
C           -8.95126263961967        3.43182202121253        2.55206673292368
C           -9.77994792761767        4.71872801098949        0.59641436930569
C           -9.57882797433075        5.72512492438634       -0.41878303398827
C          -10.64430949052339        5.61763181832109       -1.28615485687161
C          -11.49117294455032        4.57603647245553       -0.74410586723919
C          -13.54730871828156        3.23043444518094       -0.72642996640885
C          -14.88937146805730        2.96153204199530       -1.22206590961026
C          -15.33073904504644        1.86410477323980       -0.53813129265478
C          -14.25853687410815        1.48450132613401        0.35483815559673
C          -14.27347168029646        0.38245688686216        1.18798677919567
H          -15.11829796636518       -0.28775428212282        1.15932269032552
C          -10.26029398194414        0.43832458778715        3.85919859223015
H           -9.85775617999349       -0.20266803751884        4.63006161998822
C           -8.87766966106971        4.46037273018631        1.62628065434286
H           -8.01124114791203        5.10548188126514        1.67974480495409
C          -12.74076390698138        4.24209528631286       -1.22970965077770
H          -13.15609629507352        4.80313875739576       -2.05406091415812
C          -11.71996793072952       -2.15000924285008        4.66790879218935
H          -12.44076654088230       -2.96198069977922        4.73459355597438
H          -11.61034784538017       -1.71419655759045        5.66029577961690
H          -10.75823567756565       -2.57709932393030        4.38378331236218
C          -14.41309248384971       -2.15495584345997        2.82819245421165
H          -14.47853878341447       -2.54275439234595        1.81179832218767
H          -15.36231137584112       -1.67770513446981        3.06908358584558
H          -14.26824672912743       -2.99091094130153        3.50508910811716
C           -7.67189055536294        1.16735608423503        5.23051268531563
H           -7.57933201731044        0.12411258057415        4.92730653552109
H           -8.27721371028578        1.19016169919874        6.13922852043718
H           -6.67983111183713        1.53653685638457        5.46749305239364
C           -6.82999458022829        4.03091386177386        3.87029929248174
H           -6.49125942909075        4.63361788964351        3.03213748848676
C           -6.22507383444066        4.15928064977675        5.04628015318928
H           -6.55883802228071        3.62004151930299        5.91777948274052
H           -5.38252533844167        4.81130435949771        5.20664751551156
C           -8.38463768002178        6.60565493613855       -0.50388397616943
H           -7.48191068246117        6.04193453046326       -0.27472627200025
H           -8.45319029073192        7.42682970548102        0.21041148587361
H           -8.28757462532011        7.02441121028068       -1.50132418918827
C          -10.86379316085475        6.33423675633915       -2.52223635758739
H          -11.24963151838147        5.76429928205549       -3.36072254731210
C          -10.60205846848248        7.63140377511910       -2.68835546209231
H          -10.25610076953359        8.22750972818278       -1.86482786271830
H          -10.75019848503408        8.12786805212114       -3.63061760498503
C          -15.55508314801561        3.74935642127366       -2.29778341338031
H          -14.97429952648396        3.69630387248483       -3.22007396624719
H          -15.64775545906596        4.80179412015927       -2.02962488112781
H          -16.54811725779275        3.35934323423462       -2.50293170952501
C          -16.65444530009335        1.18266312347466       -0.57727917466189
H          -17.36450576468264        1.69997294891522       -1.21865470631205
H          -17.07694981804480        1.14223040600338        0.42765753991685
H          -16.55683524114520        0.15824060631074       -0.93696427368398
O          -10.67271589405360        1.33408451486653        0.21363446316510
H          -10.94091358899288        0.41404194020558        0.30216316487225
H          -10.03524105018210        1.57672882830238       -0.46745328576645
C          -14.85331766217540        6.23843326732381        3.79337480123536
H          -14.38783266510559        7.19546082826084        4.02154285409506
H          -15.47503828115109        5.94992543408152        4.63909065028777
H          -15.48558424658625        6.35767903296647        2.92104642909554
N          -12.89429644783918        4.83429529469978        4.45794799687493
H          -12.80563404626834        5.21223273589642        5.38654295198813
C          -13.82253278686954        5.20695555834912        3.52320050760836
C          -12.11272960791583        3.88009773551640        3.90166297135084
H          -11.29769285148924        3.40947995883310        4.40731851392398
N          -12.48913530404532        3.62793577775369        2.67337961550409
C          -13.54942060701430        4.44583135533625        2.42234846175567
H          -14.03774420888831        4.43450399926235        1.47119935764887
78
 energy: -116.041162239957 gnorm: 0.044558213519 xtb: 6.7.1 (edcfbbe)
Fe         -11.57725157663015        2.44440788360347        1.41978698588281
N          -12.15302247144402        0.76150496841596        2.35775007194298
N           -9.91406410715539        2.47325559558589        2.54848686983900
N          -10.92808324365508        4.01543056640414        0.38032022811973
N          -13.20733051562306        2.35957045623410        0.25144512560726
C          -13.27980368801412        0.04886628455387        2.10170611895759
C          -13.32368694178545       -1.14775125899405        2.90053737016558
C          -12.19428548262345       -1.14042808274339        3.66553965073876
C          -11.48193727039982        0.05641723528245        3.31180887710464
C           -9.56161989705056        1.58502249624752        3.51816454123152
C           -8.33718824575089        1.98845573591615        4.16794963043347
C           -7.95733517767586        3.17099642204434        3.57666506434770
C           -8.94388645081712        3.42247634554711        2.53979858992905
C           -9.77340987869068        4.70111332856314        0.59746659764358
C           -9.57086556483754        5.71367361573594       -0.41334643984182
C          -10.64198996820779        5.61269415164987       -1.26817986568643
C          -11.48222644412644        4.56401894015798       -0.73187886040788
C          -13.54644128135051        3.23054047801863       -0.73366983165828
C          -14.88391101777033        2.95028378930278       -1.22637266276398
C          -15.32423183362380        1.86755107701311       -0.52632555005841
C          -14.25863201015875        1.50754422488365        0.37479670749063
C          -14.28333560835237        0.40249537671099        1.19335879987209
H          -15.13713242684554       -0.25591884013761        1.14585660748717
C          -10.27235711179074        0.44862782090545        3.85285946622583
H           -9.85640458928921       -0.19176535028870        4.61586048480903
C           -8.87536053922251        4.46055537341859        1.62817895659225
H           -8.02981244882806        5.13073195224968        1.70000012410414
C          -12.72689879373483        4.23570570720245       -1.22964584028530
H          -13.11404459766690        4.80944881945118       -2.05875370533357
C          -11.72807874360599       -2.14423758496598        4.66113804347894
H          -12.43904637251409       -2.96282626999376        4.74036690621989
H          -11.61422482815930       -1.69436452590239        5.64705041353384
H          -10.76204691939777       -2.55834595311222        4.37173139164507
C          -14.41761490443932       -2.15662620032927        2.83075897121101
H          -14.49176013513109       -2.56070968843569        1.82089808871866
H          -15.37326649497016       -1.69599151565017        3.07991581464071
H          -14.24693943627762       -2.98117728212428        3.51756072725653
C           -7.67301490444271        1.18010198126229        5.22498401424552
H           -7.59365037050622        0.13937315857621        4.91000160815267
H           -8.25812356297793        1.20416191464645        6.14645719816425
H           -6.67373780625196        1.54532418850402        5.43914413643213
C           -6.83385234080495        4.02308653191863        3.87154969332672
H           -6.47567369467409        4.62024498287387        3.04377087302115
C           -6.23250412240141        4.15644359049765        5.04886151756852
H           -6.56734009002137        3.63434002091427        5.92742804845021
H           -5.39149582457214        4.81309515543194        5.18386390981877
C           -8.38228481462690        6.60009190996366       -0.50743772751256
H           -7.47159517852282        6.04672999846875       -0.28288489900568
H           -8.45698807539416        7.42398642236456        0.20394019231036
H           -8.29587518691858        7.02048194924979       -1.50658975660774
C          -10.87401973855200        6.33916864249764       -2.49614755215608
H          -11.27859344662978        5.75792573027591       -3.31876986790746
C          -10.60727413371717        7.63144194894013       -2.67965351302214
H          -10.25315530009302        8.24840919685448       -1.87202122081264
H          -10.75508857424733        8.11986090411246       -3.62705155982881
C          -15.55660784655250        3.73561803963011       -2.29343164189086
H          -14.98052100821300        3.68805699135955       -3.21774907534499
H          -15.64233092996212        4.78443876945410       -2.00892582092413
H          -16.55366300478561        3.35353191334850       -2.49482135552864
C          -16.64479734504041        1.18346518679009       -0.57932738738719
H          -17.33421561454567        1.71218232348642       -1.23265453590117
H          -17.08226950722619        1.14054080996026        0.41865696705149
H          -16.54519499854415        0.16058726403771       -0.94195060351222
O          -10.64019794522037        1.28667415259307        0.17243349808016
H          -10.89342737554207        0.35840980253082        0.22451037649861
H          -10.01262075558596        1.52015936537321       -0.52119749936805
C          -14.85492391969676        6.24431342201194        3.79421573086492