78
 energy: -116.058038567945 gnorm: 0.000082066816 xtb: 6.7.1 (edcfbbe)
Fe         -11.58517480156824        2.38179888144901        1.22849720008663
N          -12.21348932453607        0.75949467334452        2.20077220063263
N           -9.92486685784794        2.41989822377018        2.33224354411908
N          -10.93976760155055        3.98628869580725        0.19510784228298
N          -13.22919633553756        2.31550972208253        0.06888603341450
C          -13.37660978071870        0.08534221260181        2.00929804710056
C          -13.48002947425310       -1.03030885753321        2.92567244227882
C          -12.34759816953144       -1.01248635265376        3.67674675560931
C          -11.56949731773905        0.11492741303016        3.20919376524931
C           -9.58281998849141        1.55023125051230        3.31991200552239
C           -8.31783167060587        1.91090435607447        3.90851850840902
C           -7.89830610012926        3.03886553057682        3.25540437330757
C           -8.91967838258754        3.32990705170264        2.26628779305114
C           -9.80650600059565        4.70383221084567        0.43424921181664
C           -9.70645191688418        5.81951327220589       -0.46953211090772
C          -10.81771052024724        5.76843070644669       -1.27058920225741
C          -11.57199425733837        4.61113474895522       -0.83335154328654
C          -13.55810834018158        3.16994694411880       -0.93869311211497
C          -14.84312008331305        2.82383444626510       -1.50303402977655
C          -15.28815647814761        1.74428698120043       -0.80474107728862
C          -14.26789723258376        1.44356842470956        0.17378694973265
C          -14.34502521310750        0.39852578425244        1.07423588897759
H          -15.22748909812059       -0.22184120369469        1.04232582993970
C          -10.34485866730925        0.47188352870211        3.73627401956513
H           -9.95420928958722       -0.13447002682275        4.53942625610227
C           -8.86525405924192        4.40686929686809        1.40396221389280
H           -8.02124880734774        5.07342590414364        1.49295722960048
C          -12.79071465630180        4.23593716552290       -1.37076388172076
H          -13.18786475582395        4.83683681985269       -2.17443267606371
C          -11.92236630417361       -1.93309280914834        4.76902278110431
H          -12.67254441964596       -2.70080645715926        4.94190684841362
H          -11.77233122131788       -1.38457635398533        5.69950141865041
H          -10.98355823647839       -2.42329561041715        4.51089149937935
C          -14.63184874009079       -1.97476703770044        2.97446253557228
H          -14.74531124214215       -2.48958096982931        2.02020981437715
H          -15.55874892252011       -1.43938507292679        3.18183594112951
H          -14.48694852519330       -2.72213449881122        3.75069172008035
C           -7.61064981294953        1.13428560817494        4.96400102619363
H           -7.74020560340482        0.06489373357183        4.80551099508850
H           -7.99674638726787        1.37857113764528        5.95538524017898
H           -6.54698542462662        1.36259480655482        4.94484039781517
C           -6.68442369050516        3.80280008573510        3.43871301923282
H           -6.27384118145748        4.25232590130362        2.54202016929354
C           -6.05871021383865        3.99242458934939        4.59604861467082
H           -6.44375855171040        3.61049452219417        5.52542860496658
H           -5.14653601759564        4.56265134129634        4.65642674022876
C           -8.56196681053176        6.76917334998037       -0.53683099170039
H           -7.61991374904931        6.25040153421968       -0.36574668234128
H           -8.65900482887930        7.54955370632500        0.21971256585061
H           -8.52596934783820        7.24215470220813       -1.51620326164504
C          -11.20233967079606        6.63773905893377       -2.36032587246880
H          -11.73393118180976        6.15981320144929       -3.17548552118363
C          -10.96478081826259        7.94377946730132       -2.42659201645946
H          -10.48468078227986        8.47999650898981       -1.62681123822875
H          -11.26856155783019        8.52886659991230       -3.27881707286039
C          -15.49153670088007        3.55465681455841       -2.62849606284819
H          -14.86006258892354        3.53081887786378       -3.51716307985361
H          -15.65960214001670        4.59854801923215       -2.36215823091986
H          -16.45017185052687        3.10702890791822       -2.87868607253050
C          -16.55476353757055        0.97510025640962       -0.96153302899630
H          -17.16364753270746        1.39026473621836       -1.76091108036392
H          -17.13485615966086        1.00142585678766       -0.03889969484426
H          -16.34339339141801       -0.06815665738645       -1.19766752809742
O          -10.57176548942049        1.10658470698719       -0.38970154893394
H          -11.34364676363793        0.86648272901118       -0.91394254271012
H          -10.10265537356368        1.79440421986207       -0.87461218088548
C          -14.58823659015521        6.39372647298883        3.66895453019584
H          -14.05804109317127        7.12955098835251        4.27341811749316
H          -15.49533810808271        6.10591705381390        4.20034320688981
H          -14.86788459239322        6.85415584102962        2.72662664552341
N          -13.22458949081160        4.42970548478208        4.41435326395334
H          -13.37211619869702        4.57205079370925        5.40005537552902
C          -13.73122794355543        5.20971712089373        3.40811219689675
C          -12.49408328663758        3.44610468112496        3.84244018303398
H          -11.97796888829467        2.68442993414352        4.39010140491651
N          -12.50793159998029        3.55596144765872        2.53603061205658
C          -13.27358661875942        4.64797103570853        2.25085573740325
H          -13.44275563770141        4.95558182882829        1.24006202448564
