78
 energy: -115.970413840247 gnorm: 0.298760804580 xtb: 6.7.1 (edcfbbe)
Fe         -11.61500000000000        2.43100000000000        1.22700000000000
N          -12.16700000000000        0.71400000000000        2.09000000000000
N           -9.85000000000000        2.47800000000000        2.31900000000000
N          -10.95900000000000        3.99900000000000        0.24100000000000
N          -13.32900000000000        2.31700000000000        0.02300000000000
C          -13.37200000000000       -0.01000000000000        1.88100000000000
C          -13.31000000000000       -1.18400000000000        2.71000000000000
C          -12.20300000000000       -1.20400000000000        3.43000000000000
C          -11.47000000000000        0.01700000000000        3.07300000000000
C           -9.54700000000000        1.57200000000000        3.29200000000000
C           -8.38400000000000        1.98900000000000        3.95900000000000
C           -8.02200000000000        3.15900000000000        3.37100000000000
C           -8.94500000000000        3.47300000000000        2.34900000000000
C           -9.76900000000000        4.77800000000000        0.44800000000000
C           -9.66000000000000        5.74600000000000       -0.62900000000000
C          -10.70400000000000        5.68100000000000       -1.45900000000000
C          -11.53800000000000        4.57800000000000       -0.93100000000000
C          -13.60100000000000        3.22400000000000       -0.92500000000000
C          -14.92100000000000        3.02700000000000       -1.35000000000000
C          -15.41300000000000        1.91100000000000       -0.59800000000000
C          -14.37300000000000        1.47300000000000        0.19900000000000
C          -14.32300000000000        0.39900000000000        1.04300000000000
H          -15.21200000000000       -0.22900000000000        1.02800000000000
C          -10.24400000000000        0.38300000000000        3.61900000000000
H           -9.79000000000000       -0.29000000000000        4.34700000000000
C           -8.94300000000000        4.49100000000000        1.46900000000000
H           -8.13300000000000        5.20500000000000        1.60800000000000
C          -12.78600000000000        4.23300000000000       -1.43900000000000
H          -13.15400000000000        4.79100000000000       -2.30000000000000
C          -11.73700000000000       -2.25300000000000        4.46500000000000
H          -12.49800000000000       -3.05800000000000        4.54600000000000
H          -11.61500000000000       -1.77100000000000        5.45900000000000
H          -10.77400000000000       -2.70000000000000        4.13900000000000
C          -14.41900000000000       -2.24100000000000        2.61300000000000
H          -14.70900000000000       -2.37800000000000        1.54900000000000
H          -15.30800000000000       -1.90600000000000        3.18900000000000
H          -14.05000000000000       -3.21000000000000        3.01300000000000
C           -7.69000000000000        1.22100000000000        5.11600000000000
H           -7.86500000000000        0.13100000000000        4.99500000000000
H           -8.11300000000000        1.54800000000000        6.09000000000000
H           -6.59600000000000        1.41500000000000        5.09300000000000
C           -6.87400000000000        4.08700000000000        3.72800000000000
H           -6.46100000000000        4.76300000000000        2.96400000000000
C           -6.34000000000000        4.12200000000000        4.93000000000000
H           -6.71800000000000        3.46600000000000        5.72800000000000
H           -5.50900000000000        4.80800000000000        5.15200000000000
C           -8.45000000000000        6.66900000000000       -0.73000000000000
H           -7.55900000000000        6.16100000000000       -0.30200000000000
H           -8.64100000000000        7.60300000000000       -0.15900000000000
H           -8.25000000000000        6.91000000000000       -1.79600000000000
C          -11.02100000000000        6.40900000000000       -2.69900000000000
H          -11.51100000000000        5.89200000000000       -3.53700000000000
C          -10.71900000000000        7.73200000000000       -2.84100000000000
H          -10.22900000000000        8.28400000000000       -2.02500000000000
H          -10.96200000000000        8.26300000000000       -3.77300000000000
C          -15.70900000000000        3.88800000000000       -2.31600000000000
H          -15.29600000000000        3.76900000000000       -3.34100000000000
H          -15.63100000000000        4.95500000000000       -2.01700000000000
H          -16.77400000000000        3.57200000000000       -2.31800000000000
C          -16.77200000000000        1.25100000000000       -0.68400000000000
H          -17.24600000000000        1.50300000000000       -1.65700000000000
H          -17.42100000000000        1.61900000000000        0.13900000000000
H          -16.65900000000000        0.14800000000000       -0.61400000000000
O          -10.74100000000000        1.02700000000000       -0.11700000000000
H          -11.08900000000000        0.17100000000000        0.13200000000000
H          -10.16900000000000        1.19000000000000       -0.77800000000000
C          -14.86300000000000        6.23900000000000        3.78800000000000
H          -14.42200000000000        7.20200000000000        4.12400000000000
H          -15.49700000000000        5.83000000000000        4.60400000000000
H          -15.48100000000000        6.42200000000000        2.88300000000000
N          -12.83800000000000        4.85500000000000        4.36200000000000
H          -12.72100000000000        5.20200000000000        5.29200000000000
C          -13.77900000000000        5.28300000000000        3.46900000000000
C          -12.11400000000000        3.89500000000000        3.76000000000000
H          -11.32600000000000        3.33100000000000        4.25800000000000
N          -12.49600000000000        3.75300000000000        2.52400000000000
C          -13.54800000000000        4.61100000000000        2.31700000000000
H          -14.04100000000000        4.66400000000000        1.35400000000000
78
 energy: -116.027201258890 gnorm: 0.132854442359 xtb: 6.7.1 (edcfbbe)
Fe         -11.60510582507463        2.43932613466808        1.21723712930769
N          -12.17469092405707        0.73323373242343        2.13026815002835
N           -9.87903966509976        2.46112521392158        2.32963223942496
N          -10.95833359893989        4.00760143976115        0.20024837275436
N          -13.29431387749551        2.32840027302277        0.03708851723615
C          -13.34374966304295       -0.00102341857623        1.89409348787086
C          -13.32109168157976       -1.19631362178171        2.70250892898598
C          -12.19308786289652       -1.20316591342172        3.43573517091410
C          -11.46925507872149        0.01819759290488        3.07132633421981
C           -9.54908621756658        1.56141500960175        3.29398828736026
C           -8.36643644354582        1.98704397372440        3.97183575714929
C           -7.99844470544752        3.17234368542437        3.38672150108639
C           -8.95159105734876        3.45159667965183        2.35424897181059
C           -9.79394439700122        4.76110340080131        0.42411186027343
C           -9.65247815723632        5.75212938468119       -0.61953482012473
C          -10.71116075884663        5.66405651047085       -1.46203972766820
C          -11.54230325581076        4.57353102393363       -0.92929983046304
C          -13.60793433927395        3.22792412816353       -0.91542535522805
C          -14.94914972583017        3.01710609620074       -1.34650692902490
C          -15.42196726363289        1.92184069414071       -0.62479147456273
C          -14.35859897565100        1.49910630807251        0.20257692124287
C          -14.32780866638280        0.40054573228133        1.04595863613774
H          -15.21514245228691       -0.22800793441962        1.02593708845466
C          -10.25064444608572        0.38737454545037        3.60799940213276
H           -9.80520835253260       -0.27588646974640        4.34022631495493
C           -8.94097934819371        4.49934245950226        1.46283856698299
H           -8.12751983747396        5.20916808952044        1.59806813998841
C          -12.78164530465969        4.23020658905778       -1.42939213893144
H          -13.15100732164669        4.78620857452863       -2.28401268961269
C          -11.73952471608243       -2.23540428193462        4.44942654153862
H          -12.48291760550699       -3.03533040601936        4.54070332828220
H          -11.61372750677820       -1.77495464828962        5.43611624142853
H          -10.78773557236340       -2.68514377860430        4.14459187472381
C          -14.41305741561334       -2.23736395788889        2.61534143334764
H          -14.70522518978430       -2.37945101751049        1.56922759225473
H          -15.29482299931293       -1.91531274486287        3.18116737481382
H          -14.06278903692876       -3.19574920230064        3.01041707987638
C           -7.69385886046165        1.22858610358365        5.10031741254641
H           -7.86113374625762        0.15184227505900        4.99347238078182
H           -8.10380744893228        1.54218573153713        6.06908116634118
H           -6.61518409438331        1.41200230883510        5.09072110011057
C           -6.87674002563528        4.07156261320832        3.73064941120951
H           -6.48920744102101        4.73963084636307        2.96129395721786
C           -6.33431903859247        4.12133453467428        4.93768003074485
H           -6.70347850269038        3.49280071202465        5.73665642593898
H           -5.51654832990301        4.79829122573114        5.15900137141684
C           -8.45518517500105        6.66236829762702       -0.72620124913808
H           -7.56947487226311        6.17212318285477       -0.30878554962911
H           -8.63226371873867        7.59035301619380       -0.16909455817024
H           -8.25677997288757        6.90956177686720       -1.77529630263369
C          -11.01330329896682        6.41499089445366       -2.68168994226625
H          -11.50388213468087        5.89415775858691       -3.50402509200314
C          -10.71704643082641        7.71232089496006       -2.83590828271864
H          -10.24445850043390        8.27590504251775       -2.04041525207117
H          -10.95606414211670        8.24492649468760       -3.75202563798351
C          -15.70974410041511        3.87577513321196       -2.31296863221084
H          -15.30477524970382        3.77178567801282       -3.32809144635287
H          -15.63776656639667        4.93219241530147       -2.02433283812351
H          -16.76278998987965        3.58249710831043       -2.32395290763256
C          -16.76786241527926        1.26211547785118       -0.69544660565536
H          -17.25254882148308        1.49619847381859       -1.64749991485401
H          -17.41274068415427        1.60998548981092        0.12229178259750
H          -16.66512082256626        0.17320754262984       -0.61639183887805
O          -10.73921200223093        1.02460000784436       -0.11555756480570
H          -11.07579967308849        0.15846957242744        0.11318762880736
H          -10.13764235349952        1.17634110240536       -0.81989548892400
C          -14.85890584511202        6.24850128368039        3.79139101796890
H          -14.43615577170450        7.20273434121787        4.12528417392469
H          -15.49347547737786        5.84707478104332        4.59142432326659
H          -15.47203913438924        6.42252108385416        2.90298523738019
N          -12.84982688705840        4.85013782565581        4.36777039535472
H          -12.73110997811211        5.20096997929135        5.30150393861445
C          -13.78173653959764        5.28473160694757        3.46516728267132
C          -12.11152680324094        3.89679620489107        3.76021887803455
H          -11.32860305478227        3.34452667746553        4.25147140717641
N          -12.50184010938727        3.72799976594247        2.52529043859459
C          -13.54163490705831        4.59535305357821        2.31629675262749
H          -14.03088783395854        4.65272180848968        1.36178431175737
78
 energy: -116.044306244935 gnorm: 0.036537957269 xtb: 6.7.1 (edcfbbe)
Fe         -11.60320244049121        2.44071396446921        1.21450420477907
N          -12.18189382667082        0.73638016907454        2.15139846029563
N           -9.90721967395731        2.45277298511403        2.33162506654917
N          -10.95562249750010        4.01436607615828        0.17437400213485
N          -13.27021330612145        2.35101210328105        0.06382291917685
C          -13.32437698549790        0.01943819977062        1.90845863744540
C          -13.33055593655101       -1.19829246618252        2.69154886892321
C          -12.18887993276669       -1.19630784260780        3.43315724295040
C          -11.47859714242372        0.02511842805966        3.07505350185592
C           -9.55667078473139        1.55899278397516        3.29333994877065
C           -8.35953153968033        1.98819116773450        3.97454102247761
C           -7.99143319640184        3.18394538852791        3.39413477650295
C           -8.96497242656157        3.43529102621963        2.34942786804951
C           -9.81298723336848        4.73148045516874        0.40503955753665
C           -9.64485707703820        5.74988909798590       -0.60585959721916
C          -10.71461133664620        5.64376393084182       -1.45499349595996
C          -11.53480562732646        4.55962642183277       -0.92557363709009
C          -13.61336225251614        3.23743881327085       -0.90146878277238
C          -14.96885472204610        3.00720981030424       -1.33919950195774
C          -15.42031943519817        1.92830553012890       -0.64097760030770
C          -14.33972922878902        1.52254333226215        0.21766580062654
C          -14.33472298627089        0.40943409485671        1.05312956259022
H          -15.21525148434893       -0.22150916926034        1.02398689543094
C          -10.26143604098645        0.39966098732941        3.60656503189723
H           -9.82146236133648       -0.25985875877008        4.34053989197966
C           -8.93900598619026        4.49896093184215        1.45571356384454
H           -8.12729983699268        5.20528533115942        1.58460517343142
C          -12.77832724488625        4.22463529479943       -1.41960519917943
H          -13.15136548951871        4.78568117288340       -2.26497139607531
C          -11.73974365684818       -2.21308241359951        4.43036281055358
H          -12.47497884107882       -3.00902567387073        4.52519418943137
H          -11.61040870541513       -1.76411311433718        5.41403492187438
H          -10.79171608784483       -2.66365887431073        4.13948826744534
C          -14.40636117804614       -2.22962489149600        2.61583540782682
H          -14.70423157659705       -2.38139559375533        1.58114558365904
H          -15.28447573218507       -1.91618881023524        3.17828750833232
H          -14.06569036648572       -3.18059271376449        3.01393236010778
C           -7.69869637056503        1.23710727969227        5.07968943105502
H           -7.86297579753009        0.16699115800620        4.98052410930742
H           -8.09800658162652        1.54128366503393        6.04906481208117
H           -6.62714444183775        1.41618644171141        5.08041679400790
C           -6.89273625930746        4.05620951763938        3.73463090929883
H           -6.52143881608593        4.70988000033180        2.95465267190098
C           -6.33425284691339        4.12225568581610        4.94173161598485
H           -6.69127591892477        3.51997712402610        5.75349235132492
H           -5.51927951108921        4.79053446238760        5.15474585135613
C           -8.46275558824669        6.65453555933916       -0.71936235077972
H           -7.57634575201992        6.17563093503264       -0.31305357615607
H           -8.62913920128876        7.58095730917436       -0.17037186035639
H           -8.27383837660540        6.90603279938884       -1.76079709769410
C          -11.00760087800965        6.41202604203765       -2.65525760604411
H          -11.50315300221188        5.88226105526048       -3.46169030564066
C          -10.71632147782466        7.69607308698102       -2.82407283847104
H          -10.25279052486065        8.27617203989764       -2.04728935359346
H          -10.94637754499906        8.22282671102474       -3.73575818313070
C          -15.70882143405351        3.86307767710251       -2.31073271050088
H          -15.30357213160126        3.76570122858795       -3.31779880139292
H          -15.63849690988044        4.91294694941485       -2.02637466744444
H          -16.75774046016497        3.58627254711192       -2.33263287197264
C          -16.75831670759921        1.26998137575112       -0.70301597278368
H          -17.25395749510599        1.49591175448719       -1.64196851508333
H          -17.39845693434362        1.60897980211677        0.11282566055770
H          -16.66205679661802        0.18937216858811       -0.62020445574016
O          -10.71822453033290        1.02354416399065       -0.12198783405045
H          -11.04282286013319        0.14064159749304        0.06546008564017
H          -10.11665773948149        1.15149608550103       -0.85535086291480
C          -14.85485999194068        6.25764496516890        3.79171297314395
H          -14.43960994183618        7.20535421327206        4.12531886014414
H          -15.48928809604008        5.86255616822197        4.58416784571970
H          -15.46574926682308        6.42894459925891        2.91330826030497
N          -12.86362436108253        4.84264669252985        4.37250656805531
H          -12.74597633700748        5.19541703264024        5.30846778871663
C          -13.78619738518224        5.28210325011439        3.46010981980757
C          -12.11253528212011        3.89512187827117        3.76559914413341
H          -11.32820227283279        3.35645397202860        4.25201704340567
N          -12.49806735931146        3.71231654291183        2.52773214721119
C          -13.53694535347469        4.57436686531213        2.31846154978892
H          -14.02451728577145        4.63472042248281        1.36881973488556
78
 energy: -116.048077285570 gnorm: 0.022520479457 xtb: 6.7.1 (edcfbbe)
Fe         -11.60158836486283        2.43121007715662        1.21070258264422
N          -12.19953641717898        0.75019959570533        2.17063096943751
N           -9.92301851027681        2.45307316242655        2.33151237040545
N          -10.94604397129080        4.00145017313025        0.16630928955623
N          -13.26909793098693        2.37046361082676        0.08558436777631
C          -13.32802766376345        0.03579896165707        1.91749472802689
C          -13.33858989698900       -1.18840850018566        2.68991885118704
C          -12.19478251233058       -1.18477580333457        3.43116654010201
C          -11.49118147524042        0.03478582580612        3.08313684838627
C           -9.57090686248774        1.56203144365305        3.29639065236929
C           -8.37181120357724        1.98986310722636        3.97551632797905
C           -8.00475362130110        3.18497739795447        3.39879798428835
C           -8.97720984024325        3.43019661811949        2.34711189379217
C           -9.81198469622290        4.71250459626243        0.40195973003176
C           -9.64005443892221        5.74047942960846       -0.59705309989600
C          -10.71448117337535        5.63582951294719       -1.44313885173728
C          -11.53177177978600        4.55459569433667       -0.92056754360174
C          -13.61665576869335        3.25229867777772       -0.88632333283652
C          -14.97210589740516        3.01113103413650       -1.33251667793199
C          -15.41752476650792        1.93109150435381       -0.63810993969036
C          -14.33375596674247        1.53541209931995        0.23415765249345
C          -14.34337033039891        0.42056153319863        1.05994548080767
H          -15.22052263128395       -0.21060469641292        1.02512975566958
C          -10.27388911442833        0.40828602909509        3.61502872775267
H           -9.84112825959730       -0.24758185218311        4.35590504307584
C           -8.93472118098106        4.49130756951703        1.45404690366964
H           -8.12123158982913        5.19344531483591        1.57399897496802
C          -12.78376402525106        4.23077111374487       -1.40825679185602
H          -13.15847075408151        4.79788727811086       -2.24766092815064
C          -11.73463984751651       -2.19787503265015        4.42048580174500
H          -12.46733548962459       -2.99570095242509        4.51481861258352
H          -11.60279021306373       -1.74511990325819        5.40258873270190
H          -10.78354141271030       -2.63982491924020        4.12487211867165
C          -14.40866749649384       -2.22225926929015        2.61871367955844
H          -14.70955360349669       -2.38612448137536        1.58579104237563
H          -15.28801147502081       -1.90950827600299        3.18124780054846
H          -14.06413198007452       -3.16907267703765        3.02570029331980
C           -7.70082129507877        1.23651827560615        5.06836728967155
H           -7.86362807332913        0.16653593901696        4.96255870739975
H           -8.09353584275002        1.53667181793629        6.04226623837823
H           -6.62954195336379        1.42260811741360        5.06170922397374
C           -6.90286327152237        4.04882967851846        3.73627711399674
H           -6.53959306731637        4.69219561676610        2.94425991826407
C           -6.33183476349689        4.12917338174101        4.93835944137255
H           -6.68970902204446        3.55591016873822        5.77446423144114
H           -5.51032163440622        4.79535028940967        5.13437765894730
C           -8.46527095331027        6.64840675325407       -0.71152328052900
H           -7.57069700695636        6.17308109977623       -0.31670975019184
H           -8.62911421405312        7.57341221610751       -0.15825117530874
H           -8.29186684272009        6.90579606559206       -1.75471697510789
C          -11.00860784521831        6.40358081066052       -2.63547235740016
H          -11.51476721055724        5.86611592050136       -3.42963580584439
C          -10.71032156725145        7.68519301178433       -2.81701368694687
H          -10.25376106269060        8.27860035702327       -2.04481101140145
H          -10.94215555425906        8.20183662267839       -3.73294466673215
C          -15.70534000507785        3.85771693330945       -2.31591082214752
H          -15.28921934981260        3.75400543529137       -3.31760476917909
H          -15.63707871545971        4.90762848956641       -2.03308468224095
H          -16.75577084596934        3.58256350831432       -2.34831539160446
C          -16.75221360654208        1.27008554868716       -0.70433666641340
H          -17.25196640677940        1.49954854391444       -1.64155301596781
H          -17.38896427915604        1.60812036742272        0.11431090293397
H          -16.65476919102614        0.18985775843390       -0.62558709712244
O          -10.66968277511289        1.01762430593933       -0.14228339843389
H          -11.00055174566339        0.12231642918230       -0.01204357088060
H          -10.09551131851652        1.14392635304295       -0.90146920620236
C          -14.84893769376774        6.26050820347633        3.78539471057062
H          -14.42467784420701        7.20544004915269        4.11799441707332
H          -15.48896599600767        5.87748394399245        4.57978373422254
H          -15.45931979827188        6.43937002175937        2.90764317023551
N          -12.87602513053923        4.82942006854632        4.37684132370373
H          -12.76422145493678        5.18317267234419        5.31327558938595
C          -13.79129081209516        5.26927744921974        3.45706367427023
C          -12.11691721460499        3.88457780812792        3.77618867092830
H          -11.32324557203396        3.36035900806470        4.26387840048209
N          -12.49649447888633        3.69319081693213        2.53637419935119
C          -13.53602475631428        4.55148958594818        2.32185770977524
H          -14.02174766685751        4.60870555929600        1.37098441305369
78
 energy: -116.050426592962 gnorm: 0.025534300665 xtb: 6.7.1 (edcfbbe)
Fe         -11.60335675193474        2.42454754044172        1.21540539016470
N          -12.20850433978639        0.75673240436450        2.16956597763443
N           -9.93768179303475        2.45358998988992        2.32949647833778
N          -10.94232452523449        3.99010987046027        0.17049100458737
N          -13.26344534267652        2.37996997292366        0.09948299623942
C          -13.33436343817072        0.04941053663447        1.92130701819322
C          -13.34732054518299       -1.17689207504314        2.68814998861997
C          -12.20296427933619       -1.17251510545394        3.42705521324643
C          -11.50385187841064        0.04390696231560        3.08613623880253
C           -9.58865024384058        1.56637465228784        3.30097250115297
C           -8.39084373593347        1.99308260042948        3.97846548498418
C           -8.02382225843350        3.18457531946421        3.40389174023227
C           -8.99022375133826        3.42591116365086        2.34430338374048
C           -9.80576871988122        4.69323313679042        0.40146107848262
C           -9.63635636396828        5.73019599383698       -0.58670861097650
C          -10.71605053183977        5.63276780750216       -1.42731363025585
C          -11.52845969944822        4.54994685965869       -0.91420897726243
C          -13.61453622956818        3.26315910249954       -0.87343413247875
C          -14.96900225542134        3.01566925084980       -1.32529112561882
C          -15.41146778067684        1.93376984837867       -0.63203724556918
C          -14.32625280921848        1.54416634610232        0.24862005127784
C          -14.35474257087617        0.43200647741431        1.06650666752102
H          -15.23221405514295       -0.19462039422182        1.03141228517139
C          -10.29117911660639        0.41896156737473        3.62821375625855
H           -9.86855957574453       -0.23163219661799        4.37933324226092
C           -8.92619478487857        4.47984723937897        1.45149553309315
H           -8.11098590304954        5.17827615399478        1.56161782499254
C          -12.78822509617329        4.23773813991403       -1.39626290986757
H          -13.16709456446064        4.81869428504998       -2.22395704895005
C          -11.72765618064412       -2.18275589072610        4.41222671099627
H          -12.45197482856896       -2.98785976748667        4.51087897974589
H          -11.59157980222619       -1.72530925036218        5.39258434527942
H          -10.77275916726255       -2.61176505723370        4.10674173891118
C          -14.41538855828041       -2.21332264960735        2.62497868659760
H          -14.71642582588553       -2.39293939357481        1.59332076045375
H          -15.29717623824497       -1.89716318428378        3.18444200721811
H          -14.06630924209414       -3.15466670482424        3.04495207300616
C           -7.70390944148136        1.23590412289036        5.05972832860816
H           -7.85898748464369        0.16510125123228        4.94327056907735
H           -8.08699920877424        1.52581603458601        6.04122705706062
H           -6.63375713378722        1.43545188351322        5.03948897535217
C           -6.91637814112334        4.04586501782190        3.73667050508122
H           -6.54875624228029        4.66735783684701        2.92830294505596
C           -6.33798610456758        4.14638137421169        4.93287349695859
H           -6.68160967361328        3.59045803219635        5.78884576566861
H           -5.50049018759960        4.80300875428357        5.10389020056533
C           -8.46711083036088        6.64236644149322       -0.70285897542447
H           -7.56273560646070        6.16838653850289       -0.32495142161667
H           -8.62786088217405        7.56232185827756       -0.13797685017413
H           -8.31125722941642        6.91121125703122       -1.74738906950453
C          -11.01553778961282        6.39811943833841       -2.61375649376713
H          -11.52911501041057        5.85312483393497       -3.39803286866053
C          -10.71084046096326        7.67753198200280       -2.80814152092595
H          -10.24039670934501        8.27704644474409       -2.04843694411895
H          -10.93992735340437        8.17954703247174       -3.73330808878673
C          -15.69565192475789        3.85205184269890       -2.32291248650947
H          -15.26681715728366        3.73795808130894       -3.31886412229160
H          -15.63305663465702        4.90456491315954       -2.04726012990322
H          -16.74652975438257        3.57430081075452       -2.36732353573716
C          -16.74406236452898        1.26994383069191       -0.70294615849768
H          -17.24641189246958        1.50816774677012       -1.63829102236432
H          -17.37887142699920        1.60224593121942        0.12039458264403
H          -16.64551816717420        0.18869344678024       -0.63550789658747
O          -10.59144782113378        1.00329289907372       -0.14358433260387
H          -10.96775549055880        0.10412971738575       -0.11815005163349
H          -10.10039518746326        1.13627793453932       -0.96996645719823
C          -14.84379969442682        6.26323060591011        3.77757398142991