78
 energy: -116.058080978449 gnorm: 0.000066311601 xtb: 6.7.1 (edcfbbe)
Fe          -5.68403471412570        5.96754548643768       -8.61306140303489
N           -5.63161845351974        7.68323722761681       -7.60159226693789
N           -5.14469084569998        4.96508161125420       -6.97648858189133
N           -5.68297466503039        4.25149675282334       -9.66981251631446
N           -6.17292547231964        6.97738822207159      -10.28568023922129
C           -5.87755731238199        8.93054089329609       -8.08058916075852
C           -5.74190581779790        9.91921734475444       -7.03223044149326
C           -5.41172109823894        9.23514579660312       -5.90540890422361
C           -5.34799611829337        7.83890214428230       -6.28224250832611
C           -4.93528485401723        5.48371651909061       -5.73821104859998
C           -4.56395244326343        4.45099823487408       -4.80340169192950
C           -4.54524687577172        3.27977474904575       -5.51158392740714
C           -4.92470104577037        3.62960038108803       -6.86848589385081
C           -5.40065915386441        3.00504657043186       -9.19653678793096
C           -5.53287278471323        2.01984051057972      -10.23734023554255
C           -5.91240920694132        2.69978212560360      -11.36538970290600
C           -6.01008469108641        4.09299619236647      -10.97910956750006
C           -6.42978621492031        6.45175405186932      -11.51481341482370
C           -6.79381980978138        7.49260419949188      -12.44895669161276
C           -6.75706905574832        8.66156368744781      -11.75302957608230
C           -6.37136862270307        8.31872820938304      -10.40363337674921
C           -6.22590914237833        9.23972610241542       -9.38260165478459
H           -6.40194783120292       10.27792616092713       -9.61983353560480
C           -5.03212743150788        6.82287328364237       -5.40419413480616
H           -4.82383787339302        7.09788602752457       -4.38155041431184
C           -5.02814336193830        2.71175257495185       -7.89557111059478
H           -4.80315508765192        1.68110515942115       -7.66752790156656
C           -6.35046071154252        5.11298473069099      -11.84848862624563
H           -6.57396436073719        4.84467355351314      -12.86946273660713
C           -5.14782570772324        9.74838709653181       -4.53158554444350
H           -5.25713140479973       10.82953022949352       -4.49411038987046
H           -4.13523438747968        9.49487625065150       -4.21770738131556
H           -5.84361023414770        9.30785991597238       -3.81699500852815
C           -5.93709519131549       11.38412022659352       -7.22700018431869
H           -6.94851223908750       11.59588384573936       -7.57562429559469
H           -5.23697105179734       11.76794155130711       -7.96927391003039
H           -5.77706973727322       11.92233977255715       -6.29609034746979
C           -4.32440990444067        4.65738279639863       -3.34866860336337
H           -5.02250959635525        5.38832420306260       -2.94329468991289
H           -3.31174550462153        5.02222790367332       -3.16987872995416
H           -4.45116739214091        3.71909783911059       -2.81229796212562
C           -4.25109608770091        1.93921495928301       -5.05574285433932
H           -4.80562031499313        1.14503547342107       -5.54280284514267
C           -3.36800706669769        1.62117802149865       -4.11468506612011
H           -2.75409614663184        2.36135316118491       -3.63228583084615
H           -3.20874747166915        0.59888135497358       -3.81381568056468
C           -5.35453584458410        0.55266685177522      -10.05739638652686
H           -5.74853193856554        0.23131440198630       -9.09433808188429
H           -4.29839932277998        0.28047995575528      -10.09664375437194
H           -5.87770173919199        0.01386025806534      -10.84475285037153
C           -6.19767073280409        2.18922712248973      -12.68803699311609
H           -6.97563412233789        2.71115617040656      -13.23335663716249
C           -5.58415896620752        1.16211040562058      -13.26688712276296
H           -4.77300882926731        0.63765949424908      -12.79266894839006
H           -5.85765870623009        0.82557604100131      -14.25319218685709
C           -7.13081129252986        7.25708753069719      -13.88138264660838
H           -7.99300072377021        6.59539216258893      -13.96832762982395
H           -6.29378413186949        6.79017871267349      -14.40118610564117
H           -7.36563485326813        8.19282486137355      -14.38277619790830
C           -7.04118130894800       10.04840231206154      -12.21952266035484
H           -7.30559730953724       10.05532750836582      -13.27404266357979
H           -6.16773241658390       10.68600056555412      -12.08080822066819
H           -7.86781600604430       10.48226434456354      -11.65604256115241
C          -10.66198162988611        3.91091830699794       -7.17669134956346
H          -11.42859667504578        3.85132498233806       -7.94913746694454
H          -11.12703966517070        4.28009658501120       -6.26265898968434
H          -10.27578152191862        2.91348685295811       -6.99201256442750
N           -9.74659771346975        6.12313236780100       -7.91144191235015
H          -10.62704903689381        6.61068613515847       -7.88533452738304
C           -9.55325685555743        4.80237720024525       -7.60156315977350
C           -8.54687811731336        6.64331576133154       -8.25555821288727
H           -8.39494831841141        7.66189553411472       -8.54768999052635
N           -7.60655163022745        5.73282588565097       -8.18231009455525
C           -8.21710040502859        4.58253530922491       -7.77655762762508
H           -7.65876460177901        3.67989868384383       -7.63945881972352
O           -3.50119213796133        6.20956951249989       -9.27245273833074
H           -3.33984886296893        5.34336057796347       -9.66208029857465
H           -3.62148008866504        6.82952450063389      -10.00000322484411
