78
 energy: -115.969979358007 gnorm: 0.266326067816 xtb: 6.7.1 (edcfbbe)
Fe          27.71900000000000       91.40800000000000       52.50700000000000
N           28.68200000000000       92.97700000000000       51.87600000000000
N           28.79600000000000       91.41999999999999       54.21699999999999
N           26.79300000000000       89.75300000000000       53.02799999999999
N           26.61300000000000       91.50800000000000       50.82700000000000
C           28.44700000000000       93.77700000000000       50.77099999999999
C           29.28500000000000       94.96399999999998       50.73100000000000
C           29.99700000000000       94.99599999999998       51.95100000000000
C           29.61000000000000       93.75100000000000       52.63300000000000
C           29.80700000000000       92.22700000000000       54.58900000000000
C           30.48500000000000       91.85500000000000       55.80900000000000
C           29.83200000000000       90.66499999999999       56.19400000000000
C           28.84700000000000       90.42099999999999       55.11500000000000
C           26.93100000000000       89.05200000000001       54.26700000000000
C           25.92000000000000       88.01300000000001       54.48900000000000
C           25.07400000000000       88.12500000000000       53.32599999999999
C           25.61000000000000       89.22599999999998       52.52399999999999
C           25.67500000000000       90.61700000000000       50.43600000000000
C           25.14100000000000       90.81999999999999       49.10899999999999
C           25.88400000000000       91.94600000000000       48.62900000000000
C           26.74500000000000       92.28000000000000       49.72600000000000
C           27.61100000000000       93.39599999999999       49.67000000000000
H           27.64400000000000       93.98899999999999       48.75600000000000
C           30.17100000000000       93.39599999999999       53.89400000000000
H           30.91400000000000       94.05800000000001       54.33900000000000
C           27.96500000000000       89.32499999999999       55.15000000000000
H           28.11100000000000       88.61199999999999       55.96100000000000
C           25.13500000000000       89.57199999999999       51.22900000000000
H           24.30399999999999       88.99800000000000       50.81999999999999
C           30.97900000000000       96.03600000000000       52.39000000000000
H           30.94500000000000       96.89700000000001       51.68900000000000
H           32.00500000000000       95.60899999999999       52.38699999999999
H           30.71900000000000       96.39100000000001       53.41000000000000
C           29.25700000000000       95.99699999999999       49.62100000000000
H           28.23699999999999       96.04400000000000       49.18300000000000
H           29.97800000000000       95.71199999999999       48.82500000000000
H           29.51900000000000       96.99599999999998       50.03100000000000
C           31.58800000000000       92.59999999999999       56.50399999999999
H           31.47900000000000       93.68899999999999       56.31100000000000
H           32.57200000000000       92.26200000000000       56.11599999999999
H           31.53000000000000       92.42099999999999       57.59900000000000
C           30.11300000000000       89.78800000000000       57.31999999999999
H           29.32000000000000       89.16299999999998       57.75699999999999
C           31.32800000000000       89.72699999999999       57.83799999999999
H           32.14300000000000       90.33900000000000       57.42400000000000
H           31.53900000000000       89.06300000000000       58.68900000000000
C           25.83500000000000       87.13800000000001       55.67299999999999
H           26.06400000000000       87.72699999999999       56.58700000000000
H           26.57200000000000       86.31199999999998       55.58299999999999
H           24.80800000000000       86.72299999999998       55.76000000000000
C           23.89000000000000       87.30100000000000       52.95300000000000
H           23.09400000000000       87.77300000000000       52.35800000000000
C           23.70500000000000       86.03900000000000       53.27500000000000
H           24.45700000000000       85.49799999999999       53.86900000000000
H           22.79600000000000       85.50800000000000       52.95500000000000
C           24.12500000000000       89.97100000000000       48.39800000000000
H           23.13300000000000       90.09600000000000       48.88200000000000
H           24.42200000000000       88.90200000000000       48.45600000000000
H           24.04900000000000       90.28700000000001       47.33600000000000
C           25.78200000000000       92.62700000000000       47.27500000000000
H           24.80600000000000       92.37600000000000       46.80599999999999
H           26.60100000000000       92.27200000000001       46.61400000000000
H           25.84800000000000       93.72900000000000       47.40299999999999
O           26.39699999999999       92.61900000000000       53.41400000000000
H           25.79700000000000       92.91500000000001       52.72899999999999
H           26.36499999999999       92.84300000000000       54.27400000000000
C           30.43500000000000       87.65700000000000       49.28000000000000
H           30.73100000000000       86.68699999999998       49.73400000000000
H           31.28500000000000       88.04900000000001       48.68100000000000
H           29.55300000000000       87.49299999999999       48.62499999999999
N           30.94500000000000       89.01600000000001       51.30800000000000
H           31.88500000000000       88.68600000000001       51.38700000000000
C           30.08900000000000       88.62700000000000       50.35900000000000
C           30.35800000000000       89.89700000000001       52.11699999999999
H           30.83400000000000       90.35199999999999       52.98500000000000
N           29.10600000000000       90.11100000000000       51.67300000000000
C           28.90700000000000       89.33000000000000       50.58000000000000
H           27.96300000000000       89.32899999999999       50.04999999999999
78
 energy: -116.027713603267 gnorm: 0.110954976212 xtb: 6.7.1 (edcfbbe)
Fe          27.75079218832381       91.38823215727135       52.49018624901825
N           28.68055052399585       93.02109314581774       51.89715795064926
N           28.82062906505237       91.39769799635818       54.21065410038968
N           26.73799186539097       89.77507958613319       53.07914948242668
N           26.61345643902223       91.48586397620399       50.81141938537040
C           28.46904879391122       93.75909581180917       50.75599287606368
C           29.27312046603108       94.96189608439367       50.74273809409651
C           29.98242945180774       94.97843467256745       51.92804449851476
C           29.61250147598179       93.75785025233796       52.63057525700819
C           29.80631051158102       92.25036401866670       54.58284217882007
C           30.46488779205454       91.84408208501848       55.80091276271064
C           29.83273276814610       90.66034691250492       56.17443017720801
C           28.82708474123804       90.41393562475581       55.13852081402189
C           26.93298580164264       89.05684755101412       54.26115221453135
C           25.91982710710991       88.03349529738630       54.44620614789955
C           25.08236010493032       88.12960294165555       53.32649278899049
C           25.61994216314140       89.20907751004623       52.51093654259817
C           25.65404989541148       90.59788833402251       50.44687382663636
C           25.16271901027768       90.83002845394648       49.10789266616985
C           25.87986100367456       91.93199746556530       48.64182967329580
C           26.75467199659533       92.29547894582987       49.72728789675023
C           27.62608193641963       93.38899089573313       49.69015882754074
H           27.64723868076441       93.98408215996926       48.78434093517713
C           30.15565665309035       93.40181951377667       53.86963375557453
H           30.90064006249711       94.05494620837722       54.30898650050862
C           27.95950271424831       89.32119754467492       55.15567529818028
H           28.09964732762417       88.61554122584633       55.96561810435296
C           25.14031822511648       89.56571880713543       51.24376193394605
H           24.31335897087278       88.99968795147801       50.83508769713581
C           30.96245379748538       96.01681781191193       52.38261808489184
H           30.94562623240298       96.87719001290630       51.70316806928410
H           31.98514538222966       95.61595942056384       52.39096471752486
H           30.72544906535817       96.37813162526720       53.39216075589526
C           29.25512860784249       95.98498520392778       49.63865631881165
H           28.25631714589072       96.04678754598989       49.19207531700047
H           29.96574435200822       95.71838306045801       48.84446916371833
H           29.51808796541720       96.97724275281982       50.02219583613537
C           31.56548940075571       92.59214695046593       56.49345374805746
H           31.47994006839807       93.67109901433558       56.31568719633108
H           32.55053483945512       92.27136250567719       56.12447820527314
H           31.52787208033513       92.42265375298847       57.57620912973866
C           30.11725289606181       89.79837732465030       57.30705213545597
H           29.32265378887379       89.18144087382559       57.72923094308397
C           31.33186712587208       89.72705151561003       57.84361841679218
H           32.14790938246527       90.31002958077485       57.43840312878547
H           31.54239998457124       89.07386197688653       58.68313474093215
C           25.83223808586535       87.15467031554644       55.64705360545531
H           26.05960604150332       87.71705318426993       56.56385973695882
H           26.55389005570142       86.32685566887562       55.58320238746524
H           24.82655276928359       86.73043952369932       55.75376289290337
C           23.90732561257958       87.32032145281498       52.96714208177008
H           23.12930644292614       87.79456736439604       52.36480428118988
C           23.71361313626322       86.04519937909922       53.28651692823929
H           24.44781804047283       85.49093117174378       53.85846019784202
H           22.81960918552446       85.51535591821282       52.96750720379116
C           24.13959776830817       89.98868512656581       48.40570965794417
H           23.15092328836480       90.09591001056718       48.87360800380173
H           24.41650098940226       88.92696108133718       48.45035239181861
H           24.05265487208337       90.28181061515524       47.35428469700661
C           25.78049422330129       92.61282473601430       47.30021720939273
H           24.82416788228769       92.37752946040229       46.81865926815419
H           26.58677522448065       92.28058856770826       46.63204112840448
H           25.84735323258210       93.70318097378383       47.40288080943879
O           26.38398052397616       92.61190323031887       53.39598683293063
H           25.77158657343926       92.93557418305322       52.73544078359462
H           26.34719843174931       92.86263523149456       54.30178881306083
C           30.43423917487376       87.65299994691972       49.27819506544448
H           30.72906121112744       86.69318946004272       49.71974461583053
H           31.27160645869624       88.03438100841257       48.68115357191700
H           29.56992390509421       87.49333722231580       48.62979219939508
N           30.94967606355093       89.00895659662267       51.30642377261560
H           31.89444454684570       88.67640178444529       51.39079929181256
C           30.08201249406466       88.62521805647195       50.34473002690750
C           30.35068419553565       89.90399554834161       52.10668448032369
H           30.81634200465330       90.35419568372130       52.96626353497734
N           29.11860501786194       90.12099242766548       51.67032038810125
C           28.92378088093746       89.33225705434704       50.58436459605508
H           27.98416181528727       89.32818395627955       50.06211500215922
78
 energy: -116.044506608491 gnorm: 0.029223913762 xtb: 6.7.1 (edcfbbe)
Fe          27.76804395241836       91.37301360153039       52.48478090246442
N           28.69847456599074       93.03968178857600       51.90135242266110
N           28.83699469870072       91.37821152387960       54.20271791144938
N           26.72094300882775       89.76792505138118       53.10415881384530
N           26.62421959706153       91.45676360130419       50.79700957026953
C           28.47997358816050       93.74416388024295       50.75224777288491
C           29.26985112822821       94.95640533810700       50.74640085617158
C           29.97282716406621       94.96762002068029       51.90857688327318
C           29.60760125902978       93.76181708819678       52.62307643234465
C           29.80634698775318       92.26179414617145       54.56900587430642
C           30.44796359974517       91.83843257581110       55.78906505462515
C           29.83461112774603       90.66116696062139       56.15526502462806
C           28.81862436231000       90.40541623143015       55.14859245289477
C           26.92365405737603       89.07877991677105       54.26202305596969
C           25.92451829477179       88.04775084229865       54.41823753521971
C           25.10202097566733       88.12859615278748       53.32676353737903
C           25.62812209894819       89.21298556636287       52.51278099983426
C           25.64931330326430       90.57424893154632       50.45246638056521
C           25.17861396565457       90.83738019823016       49.10870982605218
C           25.87760903720363       91.91596175194351       48.65590605798136
C           26.77371318681980       92.29281672702474       49.72955710484975
C           27.63802079551036       93.37586494334954       49.71377928601250
H           27.64808354493022       93.97923619505829       48.81729864297220
C           30.13843322464962       93.40234379660700       53.84553401038968
H           30.88745331854550       94.05088796545020       54.27678242778266
C           27.94928697377151       89.32614214111339       55.16328973781391
H           28.07767176536189       88.62264464377157       55.97251827301775
C           25.14816757803181       89.56456182388554       51.26205792369402
H           24.32529882615798       88.99595154053407       50.85652149567579
C           30.94862826871461       96.00181741323428       52.37746299865637
H           30.94061984892194       96.85980007221853       51.70869164131939
H           31.96429402907557       95.60439716524394       52.39331843532749
H           30.71432242014481       96.35486469623302       53.38165978081768
C           29.25474226979848       95.97470687970993       49.65173669422211
H           28.26585969933683       96.04552928909906       49.20484882336074
H           29.96077731862368       95.71217420383161       48.86247670887769
H           29.52352837241548       96.95907549633831       50.02745522997746
C           31.54271010587830       92.58648266731126       56.48263331643322
H           31.46220051990593       93.65740158287785       56.30824361016185
H           32.52562015931552       92.27114191716109       56.12245795633919
H           31.51008035156777       92.41617446501874       57.55725702881112
C           30.12618817907473       89.81126595173824       57.29047976747752
H           29.32309407898835       89.20475827199544       57.69335855272997
C           31.33496783356361       89.72235153261701       57.84508656156154
H           32.16356658598706       90.27837026403351       57.45226772054107
H           31.53443638663942       89.08187047803617       58.68521023163491
C           25.82966767789966       87.16617455495516       55.62532714796232
H           26.05412932642329       87.72472338441699       56.53491975728625
H           26.54380147294944       86.34109098830730       55.56717828192230
H           24.83301475505459       86.74372224216336       55.72935233868871
C           23.93739750815071       87.33415903404739       52.97429074852807
H           23.17306244573241       87.82414002428288       52.37870668490752
C           23.73186955875132       86.05597110822724       53.29204313109168
H           24.44795163447577       85.48623516863809       53.85385012937218
H           22.84001626765006       85.53490286593751       52.98380665783016
C           24.15108968987696       90.00599540500450       48.40971446921273
H           23.17018537386017       90.10920951885845       48.87691340618716
H           24.42210629122917       88.95026123154214       48.44860894416157
H           24.06039423127094       90.29120257442293       47.36540933341179
C           25.77957957383134       92.59782349495084       47.32631616661167
H           24.83347690645960       92.36883011741759       46.84061231761665
H           26.58260024643595       92.27704939280707       46.65959899907033
H           25.84897597980563       93.67996365154433       47.42548399336715
O           26.34961352538826       92.60515850337377       53.39516425988062
H           25.72877702002707       92.98033245709497       52.76653140942594
H           26.31914455039061       92.89486845026023       54.30904253481421
C           30.43236528840913       87.64813927880172       49.27554820779766
H           30.72641518480561       86.69505997373599       49.71138343859858
H           31.26296090753049       88.02170592912942       48.67873397660143
H           29.57874926352966       87.49023538725002       48.62854539634027
N           30.95580161948396       89.00327773413066       51.30496081417617
H           31.90131908731978       88.66672311882159       51.39701640338822
C           30.07564801051804       88.62501208438350       50.33306801314970
C           30.34517055888283       89.91549612367915       52.09197562955216
H           30.80513974143160       90.36496331252810       52.94500146057646
N           29.12466732242630       90.13746291654978       51.66776134906941
C           28.93729168672763       89.33971479707176       50.58325521020607
H           28.00152487861712       89.33064788430039       50.06475806391713
78
 energy: -116.048568718531 gnorm: 0.024012521863 xtb: 6.7.1 (edcfbbe)
Fe          27.76526877807159       91.37501137951560       52.48897424017260
N           28.69826327548443       93.04418724725039       51.90098069432311
N           28.83707049792171       91.37035155542711       54.19485929825358
N           26.71498605442009       89.77996967366754       53.12007666427573
N           26.63833279423066       91.43451758043972       50.79422419614178
C           28.48526799144897       93.73621866969319       50.74896236937343
C           29.27000904965838       94.95321780650734       50.74081224247780
C           29.97402172728892       94.96452975696207       51.90091444895457
C           29.60959397028749       93.75845024640060       52.61293461110167
C           29.80427661216165       92.25934657199002       54.55576654592601
C           30.44316251314426       91.83879365959997       55.77572391081005
C           29.84230459086379       90.65988844368145       56.14183641104287
C           28.81961521329467       90.40180067628049       55.14564822501899
C           26.92790173549021       89.08483497880223       54.26543066697324
C           25.93552690508741       88.04864081123860       54.41911590897909
C           25.11822302111011       88.12474386199597       53.32664351225031
C           25.64137650329369       89.21106229101333       52.51365738399559
C           25.65903936462993       90.55639831400781       50.45347929713352
C           25.18511655475148       90.83003054984768       49.11326853520374
C           25.88382938710890       91.90537481157152       48.66521279522433
C           26.78854502709952       92.27656447509146       49.73401118120369
C           27.64408782527697       93.36174599445201       49.71870880712853
H           27.64215859716241       93.97571316737996       48.82988478402495
C           30.13735540598806       93.39654044390159       53.83363068497292
H           30.88835519423390       94.04603546714647       54.25883390604526
C           27.94768204948670       89.32859253444136       55.17170301082233
H           28.05650991694612       88.63393964704044       55.99175769152405
C           25.15972997200850       89.55291072103664       51.26504722196317
H           24.33318639036013       88.98206147091570       50.86946463672733
C           30.94549813628499       95.99251682053162       52.37889766127294
H           30.94103120918842       96.85288679317706       51.71430503653219
H           31.95696529252502       95.58673548826340       52.39846765440949
H           30.69955403306178       96.33211451412258       53.38391141464757
C           29.25674014059555       95.97110775506883       49.65126746690039
H           28.26680081467951       96.04935862541056       49.20852057004455
H           29.96146007417331       95.70234835772125       48.86377876980039
H           29.53554348211403       96.95031096060400       50.03315402480873
C           31.52658113542554       92.58958819683168       56.47406153376848
H           31.43613513123548       93.65891184111662       56.29923580213737
H           32.50939827071372       92.27611685729522       56.11519632736529
H           31.48526122652650       92.41006391856479       57.54642689841042
C           30.13494817755310       89.81613274203895       57.27824563971685
H           29.31751598658430       89.22272404138459       57.66907507520462
C           31.33517049048436       89.71252749245052       57.84786732130716
H           32.18724525407597       90.24160276261688       57.46025478262420
H           31.51320064569590       89.07705550446428       58.69748385364531
C           25.82956593384808       87.16655887711516       55.61950991614209
H           26.05076303349578       87.73025998364632       56.52443622446206
H           26.53982930508030       86.34070999816097       55.55600767404363
H           24.82814838784567       86.75384767741599       55.70680059507162
C           23.95513989024006       87.33978560239754       52.97944881062148
H           23.20283268274006       87.84554409689487       52.38422071815632
C           23.74247900938101       86.06545176334996       53.30086779451036
H           24.46297686118503       85.48108981012217       53.84470720114570
H           22.84648605920859       85.55109405310033       52.99739636078466
C           24.15276516489518       90.01306689522760       48.41114677537876
H           23.17747214741726       90.12346365848060       48.88572850512293
H           24.42305478199051       88.95782399187122       48.44384650514454
H           24.06375782527062       90.30839014654937       47.36965628807575
C           25.78401620898746       92.59050874880305       47.34325031592135
H           24.83838852244352       92.35782884209569       46.85927411327658
H           26.59127492422547       92.27195513610442       46.68176773163455
H           25.85123567295879       93.67069680367644       47.45443342888345
O           26.29088051098530       92.59439348668491       53.40751437700497
H           25.69315281499602       93.04396170557281       52.79514373909533
H           26.29150452262757       92.93895673753326       54.30892100233804
C           30.42843825954139       87.64349740034713       49.27437170654982
H           30.72026884869172       86.69102151183056       49.71318378111116
H           31.26004798936513       88.01020422541741       48.67391392796032
H           29.57568345915607       87.48359920416790       48.62483720401912
N           30.96016289341883       89.00621422258831       51.30059003361779
H           31.90239588011980       88.66311133099015       51.40054676248719
C           30.07438370383476       88.62802131441903       50.32732429702816
C           30.34871244271712       89.93073693466125       52.07669306214679
H           30.81046798370588       90.38740675132537       52.92511521496375
N           29.12858722665583       90.15755811570153       51.65633165130133
C           28.94268328330512       89.35120611356673       50.57368993798224
H           28.00859735043793       89.33945938122055       50.05361062937758
78
 energy: -116.050769508895 gnorm: 0.041159267272 xtb: 6.7.1 (edcfbbe)
Fe          27.75858320986699       91.37353559283690       52.49227241654884
N           28.68708330286983       93.04815931169591       51.90280599773176
N           28.82926295745119       91.36519115804964       54.18530283344107
N           26.72511200638798       89.78252686398908       53.12414676575684
N           26.65317598065650       91.41276106648468       50.79740225587304
C           28.48308874660487       93.73265987879660       50.74885997118966
C           29.27009483662311       94.94817877362264       50.73323670478421
C           29.97584225955868       94.96041084901933       51.89437441211575
C           29.60421448618751       93.75748252339780       52.60691051441237
C           29.79651393933386       92.25610803239731       54.54204100646692
C           30.44148763020772       91.83949874664138       55.75776650807415
C           29.85122631767179       90.65849104986678       56.12718358656277
C           28.82038749293936       90.40061575342206       55.14014692071806
C           26.93233229096880       89.09305527706321       54.27164896618779
C           25.95135138052190       88.04625520552962       54.42201772727292
C           25.14086238055059       88.11719805247363       53.32177283440494
C           25.65986568922638       89.20957280652108       52.51583286078569
C           25.67101939545921       90.54001245675670       50.45640219761902
C           25.19223519725275       90.81813634842524       49.12043476667918
C           25.89342360748840       91.89424816845910       48.67607181239381
C           26.80026020979660       92.25842156768189       49.74349875741445
C           27.64370766602569       93.35034480326057       49.72207779656836
H           27.63534215859220       93.96878966950349       48.83722139593084
C           30.13466879710128       93.39209559715208       53.82614936747143
H           30.89371489593814       94.03854201517042       54.24144449211425
C           27.94228033149930       89.33576438809752       55.18570007790851
H           28.03335719938182       88.64815852890059       56.01390253191987
C           25.17218150041483       89.53981785573676       51.26796269126772
H           24.34687449007982       88.95992388834166       50.88181591832362
C           30.94478979993683       95.98006518950500       52.38318125507923
H           30.94934651070541       96.84556635536713       51.72522210224331
H           31.95313125557234       95.56664867589070       52.40989106501991
H           30.68605957969175       96.30860977508557       53.38890422718321
C           29.26157565385456       95.96626608165650       49.64654914134157
H           28.26953541333065       96.05898733702358       49.20966021904481
H           29.95996365192893       95.68985469439478       48.85579444225714
H           29.55576897362856       96.94026909974124       50.03312281025006
C           31.51239761352277       92.59373646947651       56.46392762793786
H           31.40894191149894       93.66326667858803       56.29548488294244
H           32.49856837636783       92.28997723696537       56.10788496762484
H           31.46198516505734       92.40091878380255       57.53403799708317
C           30.14390024669740       89.82023010058509       57.26515377521768
H           29.30880881233709       89.24636416929754       57.64896741391346
C           31.33405223887522       89.69689698753618       57.84823909640053
H           32.20941780677307       90.20492853368729       57.47782457581238
H           31.48431840903802       89.06498945046836       58.70853535333658
C           25.83018029163534       87.16389033998608       55.61416627670672
H           26.04559155102235       87.72649294922877       56.52013126895486
H           26.53352074337150       86.33314766718448       55.55109415139604
H           24.82215160178128       86.76235028654726       55.68242550541473
C           23.97689811953462       87.33971332226118       52.97789378967514
H           23.22828673100568       87.86719247560011       52.39791707360513
C           23.75937636878350       86.06884762875436       53.30096628081738
H           24.47813430892107       85.47702863148949       53.84073242953809
H           22.84880811076351       85.56622731665607       53.01907940636978
C           24.15164967128882       90.01869056754063       48.41476788836962
H           23.18085862814525       90.13676584200130       48.89605690120823
H           24.41446529784076       88.96139212701468       48.43560877182629
H           24.06309586971968       90.32855566753493       47.37663436238511
C           25.79213976192695       92.58509141169412       47.36064668311263
H           24.84869221281139       92.34689691333469       46.87468704874176
H           26.60551204139508       92.27463953617949       46.70295695493451
H           25.85097911682008       93.66445613802154       47.48368452304199
O           26.19761204215192       92.56323563300694       53.42798230725385
H           25.66745010209093       93.13737777036897       52.82755570155205
H           26.26859514346457       93.01992907352722       54.29637879641075
C           30.42352345659667       87.63704481447945       49.27262418129887