78
 energy: -116.058078079668 gnorm: 0.000039999014 xtb: 6.7.1 (edcfbbe)
Fe         -11.61884950518325        2.31801146621691        1.13868896869318
N          -12.22195912866541        0.64601698337976        2.08477040565752
N           -9.93305860343602        2.31852210512992        2.24538099951626
N          -10.98496555781068        3.93832621878391        0.16620502317994
N          -13.26210190131817        2.26844835117503        0.01490862109826
C          -13.39291665543104       -0.01938205860841        1.89797761552342
C          -13.48931760018702       -1.14701782960074        2.79645273391475
C          -12.34732028497384       -1.14680235928531        3.53631579057131
C          -11.57026385641211       -0.01596003632983        3.08199017994387
C           -9.58740556441285        1.42975482669260        3.22032286817698
C           -8.33321670004448        1.79380892078427        3.82410387506681
C           -7.92513465622181        2.94482006057661        3.20082566098456
C           -8.94039028562296        3.24640608323462        2.21210853949077
C           -9.84320158745118        4.63979924083153        0.40264686748940
C           -9.74105810305159        5.76983061953439       -0.48709020600364
C          -10.85958202995795        5.73920534218851       -1.27558830617759
C          -11.61777398753868        4.57860459178486       -0.84707930321879
C          -13.59627857873338        3.13642210227158       -0.97400482161559
C          -14.87647610003134        2.78729958640029       -1.55300822378830
C          -15.30810205831290        1.68596426877970       -0.88444568893776
C          -14.28472849589199        1.37768937264077        0.09215405234778
C          -14.36138805937525        0.31349665554220        0.96944090599549
H          -15.24218330516010       -0.30846567659125        0.92492085949234
C          -10.34186467457461        0.33401829502298        3.60850886564105
H           -9.95082523018923       -0.28226882154392        4.40364179810308
C           -8.89652662840769        4.33588414806940        1.36421235735744
H           -8.05617395981818        5.00601911801185        1.46039140161715
C          -12.83967097457299        4.21721803153386       -1.38349079596399
H          -13.23730560870582        4.82823654205635       -2.17950823388068
C          -11.91701442576544       -2.08645279057976        4.61054027143026
H          -12.66458499492108       -2.85955172461374        4.76967720375903
H          -11.76868523203940       -1.55475328153007        5.55101364865853
H          -10.97631819378556       -2.56955502297422        4.34462403698908
C          -14.64442588827902       -2.08724103430678        2.84399472485775
H          -14.77609509477204       -2.58144892451560        1.88113813548330
H          -15.56478592431982       -1.55120611675987        3.07650366852022
H          -14.49170814257559       -2.85111459133298        3.60253688877469
C           -7.62145230981231        1.00378246337643        4.86683595734521
H           -7.74412384340535       -0.06435357859211        4.69303911092624
H           -8.00865994545418        1.22999778784898        5.86196773239779
H           -6.55913254898882        1.23891363946565        4.85152344457567
C           -6.72455191649235        3.72181406315848        3.41407761777106
H           -6.31774900427892        4.20568013201178        2.53370806872413
C           -6.10809764858283        3.88649384434608        4.58005766546728
H           -6.49120409800595        3.47071038535451        5.49559698761413
H           -5.20630685230571        4.47021665067789        4.66248540703533
C           -8.58806557243896        6.70960728747228       -0.55122658343375
H           -7.64828167890056        6.17612807449535       -0.41637513924981
H           -8.66018605252084        7.46885400629474        0.22941536220888
H           -8.56802978638312        7.20992882934369       -1.51718580664899
C          -11.24819607709765        6.62721951176108       -2.34895042272641
H          -11.78160928574502        6.16257574091607       -3.17011170142463
C          -11.01011732801279        7.93408338254558       -2.39289316480190
H          -10.52694142464307        8.45574001870567       -1.58513318317599
H          -11.31579653025615        8.53477387506356       -3.23354521146551
C          -15.52757328452673        3.53463071892963       -2.66571192331723
H          -14.89317691335840        3.52822204647028       -3.55219042432684
H          -15.70114189739443        4.57296029400689       -2.38176737349184
H          -16.48338538084384        3.08647791705989       -2.92588752670497
C          -16.56154911948099        0.90044523171474       -1.06564892471713
H          -16.33177065389755       -0.13174186374257       -1.33098048799228
H          -17.17493096656639        1.32773627372462       -1.85506025954295
H          -17.14497658199974        0.89101627510927       -0.14460781861417
O          -10.50419554314812        0.92951936417541       -0.30804080876202
H          -10.85760804135220        0.08196101050413       -0.01657878860682
H           -9.61237147564296        1.00221096154414        0.04903517978649
C          -14.59195572291578        6.22751244279942        3.77495528138526
H          -14.05037141535617        6.94387511879651        4.39258840446347
H          -15.48623591739617        5.91852331856170        4.31603628803233
H          -14.89352912403367        6.71919745492636        2.85549151121626
N          -13.21280881628444        4.23990973188996        4.42207775949747
H          -13.34382737733411        4.34439070913153        5.41479133508455
C          -13.73775159379915        5.05608936482823        3.45458879535279
C          -12.49027690651995        3.28075858209704        3.80103195078017
H          -11.96411841769843        2.50091255170584        4.31148185730366
N          -12.52602069459481        3.43964092850807        2.50038792112694
C          -13.29861346395792        4.53989068187382        2.26916666492335
H          -13.48465121061907        4.88411210907441        1.27277385724989
