78
 energy: -115.982140520635 gnorm: 0.272417834571 xtb: 6.7.1 (edcfbbe)
Fe         -11.61000000000000        2.31800000000000        1.18000000000000
N          -12.18600000000000        0.58500000000000        2.09300000000000
N           -9.91500000000000        2.33200000000000        2.26700000000000
N          -10.97500000000000        3.94100000000000        0.14700000000000
N          -13.27800000000000        2.22600000000000        0.00500000000000
C          -13.37800000000000       -0.07900000000000        1.82100000000000
C          -13.36700000000000       -1.26300000000000        2.66500000000000
C          -12.21200000000000       -1.27900000000000        3.35000000000000
C          -11.47700000000000       -0.08700000000000        3.07900000000000
C           -9.55700000000000        1.42200000000000        3.29100000000000
C           -8.36600000000000        1.85100000000000        3.93200000000000
C           -8.02800000000000        3.00400000000000        3.35400000000000
C           -8.95500000000000        3.33200000000000        2.30900000000000
C           -9.79300000000000        4.63300000000000        0.42000000000000
C           -9.67000000000000        5.62300000000000       -0.60600000000000
C          -10.72700000000000        5.56400000000000       -1.43000000000000
C          -11.57100000000000        4.48100000000000       -0.96600000000000
C          -13.57200000000000        3.15700000000000       -0.97600000000000
C          -14.92300000000000        2.93600000000000       -1.41600000000000
C          -15.42600000000000        1.82200000000000       -0.65000000000000
C          -14.35600000000000        1.38200000000000        0.15600000000000
C          -14.36500000000000        0.31500000000000        0.99100000000000
H          -15.27000000000000       -0.29200000000000        0.99200000000000
C          -10.23700000000000        0.27300000000000        3.59300000000000
H           -9.76700000000000       -0.41600000000000        4.29400000000000
C           -8.90500000000000        4.42500000000000        1.45000000000000
H           -8.11500000000000        5.16100000000000        1.60200000000000
C          -12.76700000000000        4.14400000000000       -1.46400000000000
H          -13.12600000000000        4.70300000000000       -2.32800000000000
C          -11.75300000000000       -2.33200000000000        4.40100000000000
H          -12.54100000000000       -3.10700000000000        4.51800000000000
H          -11.58700000000000       -1.83600000000000        5.38100000000000
H          -10.81600000000000       -2.82000000000000        4.05800000000000
C          -14.46900000000000       -2.31700000000000        2.62800000000000
H          -14.90600000000000       -2.36000000000000        1.60800000000000
H          -15.26800000000000       -2.05000000000000        3.35200000000000
H          -14.04500000000000       -3.31200000000000        2.88100000000000
C           -7.69400000000000        1.09000000000000        5.09400000000000
H           -7.74400000000000       -0.00300000000000        4.90000000000000
H           -8.22500000000000        1.31200000000000        6.04400000000000
H           -6.62800000000000        1.39300000000000        5.17500000000000
C           -6.83900000000000        3.88400000000000        3.66200000000000
H           -6.38000000000000        4.48300000000000        2.86200000000000
C           -6.31900000000000        3.96800000000000        4.86600000000000
H           -6.74300000000000        3.38900000000000        5.69900000000000
H           -5.45300000000000        4.61900000000000        5.05600000000000
C           -8.43500000000000        6.53600000000000       -0.68000000000000
H           -7.52300000000000        5.94600000000000       -0.44600000000000
H           -8.53100000000000        7.35900000000000        0.06100000000000
H           -8.34000000000000        6.95600000000000       -1.70400000000000
C          -11.01900000000000        6.34400000000000       -2.67800000000000
H          -11.48700000000000        5.82300000000000       -3.52600000000000
C          -10.75300000000000        7.64300000000000       -2.84900000000000
H          -10.28500000000000        8.22800000000000       -2.04300000000000
H          -10.99900000000000        8.14300000000000       -3.79700000000000
C          -15.68900000000000        3.76600000000000       -2.41100000000000
H          -15.26300000000000        3.61500000000000       -3.42600000000000
H          -15.61000000000000        4.84100000000000       -2.14300000000000
H          -16.75500000000000        3.45400000000000       -2.41800000000000
C          -16.79900000000000        1.17500000000000       -0.79200000000000
H          -16.79400000000000        0.48100000000000       -1.66000000000000
H          -17.56800000000000        1.95900000000000       -0.96200000000000
H          -17.04000000000000        0.60000000000000        0.12800000000000
O          -10.62500000000000        1.13600000000000       -0.11400000000000
H          -10.78900000000000        0.23700000000000        0.17200000000000
H          -10.13400000000000        1.38400000000000       -0.81300000000000
C          -14.94200000000000        6.00100000000000        3.84100000000000
H          -14.51100000000000        6.98000000000000        4.14100000000000
H          -15.51200000000000        5.58100000000000        4.69700000000000
H          -15.61800000000000        6.15600000000000        2.97300000000000
N          -12.87500000000000        4.72300000000000        4.34600000000000
H          -12.77100000000000        5.10000000000000        5.26600000000000
C          -13.85200000000000        5.07600000000000        3.46600000000000
C          -12.10100000000000        3.81000000000000        3.78100000000000
H          -11.25700000000000        3.33700000000000        4.28200000000000
N          -12.50700000000000        3.57500000000000        2.55300000000000
C          -13.62400000000000        4.35300000000000        2.33100000000000
H          -14.15300000000000        4.32000000000000        1.38700000000000
78
 energy: -116.031800028265 gnorm: 0.105430909162 xtb: 6.7.1 (edcfbbe)
Fe         -11.60931193572251        2.33081221919556        1.19140930816499
N          -12.18615485181508        0.60881661981086        2.10053390664482
N           -9.92158960693916        2.34007662071736        2.28959034071812
N          -10.96646369326505        3.93107580485732        0.15473459604495
N          -13.26803816040001        2.23816228546684        0.01262885230283
C          -13.35444088447217       -0.07747107285104        1.84945205722552
C          -13.36764841707422       -1.28045354736483        2.66321527928742
C          -12.21611152416311       -1.29120918797774        3.37571489084247
C          -11.48283376295743       -0.09748347512941        3.04735834002130
C           -9.56097447066215        1.42703678319692        3.27428641030360
C           -8.36172282039219        1.85223110980625        3.93705966494728
C           -8.00342984701372        3.02567010404644        3.35106858099905
C           -8.96373897261880        3.32230181733985        2.31346631485361
C           -9.80789192863619        4.63025517733887        0.40883032711101
C           -9.65260898100414        5.64275598273339       -0.60606190004892
C          -10.71513812692691        5.56941583881086       -1.44881672664507
C          -11.54905235744644        4.48516870439838       -0.95112553944440
C          -13.59350187766306        3.14245799432054       -0.96213299507443
C          -14.94399508484136        2.91863641235814       -1.40563186491037
C          -15.42396256025659        1.83342201225466       -0.67816793769336
C          -14.34898622722802        1.41121172541511        0.16079279874910
C          -14.35986060815720        0.31906844993964        1.00374768611471
H          -15.25764174124148       -0.29263428669894        0.99269107941063
C          -10.25179495582920        0.27039697334467        3.57229841693415
H           -9.79565517143960       -0.40430713579982        4.29111889943773
C           -8.92188895072618        4.40987305996112        1.44911433890172
H           -8.12705968837724        5.13606685117246        1.59215646576416
C          -12.77233175775399        4.13848060015493       -1.45946045504479
H          -13.13267837662634        4.69966494745901       -2.31557353077349
C          -11.76109453968621       -2.32393160118589        4.39216700169175
H          -12.52757087199475       -3.09394821274361        4.51768602811912
H          -11.58824009932581       -1.84403835730138        5.36087014337131
H          -10.83285357216463       -2.80550553215215        4.06419966670222
C          -14.46116471822006       -2.31363078341200        2.62700994928833
H          -14.89960503754321       -2.36480378780159        1.62551191810913
H          -15.25450387469939       -2.05821810238970        3.33984344477118
H          -14.05947993902735       -3.29911630183012        2.88056374356196
C           -7.70193615166082        1.09600957055331        5.07308142282020
H           -7.74680022526986        0.01589723823430        4.89834646210730
H           -8.21344336596655        1.30868103449043        6.02063068559437
H           -6.65001660983828        1.38234600048080        5.16642036708770
C           -6.84218065579754        3.87997141586106        3.66219200806636
H           -6.40456934587981        4.46758539646581        2.85785235185390
C           -6.31386807305068        3.97182474174608        4.87304067961118
H           -6.73068701212580        3.42118431932055        5.70596431735946
H           -5.45880960101865        4.60956728552277        5.06510286226223
C           -8.43975529754360        6.53583870694862       -0.68317680785710
H           -7.53807499410385        5.95862132882200       -0.45174626380206
H           -8.52657960128448        7.35100491773263        0.04436093059300
H           -8.34087490723842        6.95492710604090       -1.68831234294030
C          -11.00862325366247        6.34236050272782       -2.66864225474765
H          -11.48336965926504        5.81224186492680       -3.49485919432886
C          -10.74746346516586        7.63502832120160       -2.84191898946860
H          -10.29680141455150        8.22804574645244       -2.05515889384070
H          -10.99007234567955        8.13582150152515       -3.77399747351511
C          -15.68569185904879        3.75307874735972       -2.40296237480286
H          -15.27144849580230        3.61762965461844       -3.41047018654566
H          -15.61449927826305        4.81853925182405       -2.14918221962406
H          -16.74013195511719        3.46364260458802       -2.42393804818584
C          -16.77988055278683        1.18613362107245       -0.79663295821006
H          -16.79599808798896        0.49249694686797       -1.64706918331425
H          -17.55461080287135        1.94318549515881       -0.95893098467315
H          -17.03210210748301        0.62057499081698        0.10777570535121
O          -10.63431703528635        1.11802128776884       -0.11894262424946
H          -10.77152680437858        0.20965524872661        0.15030036572074
H          -10.10472059628109        1.36812111037111       -0.85437144718801
C          -14.94418901487648        6.00977689243117        3.84019418524396
H          -14.52792608610434        6.97835478872769        4.14029208764655
H          -15.51454411068084        5.59941261072062        4.68220069351794
H          -15.61334546073690        6.15814973638525        2.98972671624414
N          -12.88235576250999        4.72405633175829        4.35484470790642
H          -12.77563684603997        5.10420008524877        5.27862292114222
C          -13.85857299204666        5.07522037584750        3.46794273933113
C          -12.09918557650840        3.80634533295647        3.77327862097035
H          -11.26144904771548        3.34043397790181        4.26336561340784
N          -12.51316008948046        3.55881243120170        2.55327960822760
C          -13.61553124924954        4.34581058393342        2.33990466324559
H          -14.13923021532969        4.31808418520031        1.40244203122298
78
 energy: -116.044640511977 gnorm: 0.026021422352 xtb: 6.7.1 (edcfbbe)
Fe         -11.60938349914641        2.33653992169939        1.19704270341366
N          -12.19199477298571        0.62704348420109        2.10507772387898
N           -9.92696360400501        2.34184206463850        2.30304221830672
N          -10.96440597933714        3.92497256095301        0.16512388083027
N          -13.26907182319935        2.26171119986031        0.03357194038542
C          -13.34088234217601       -0.06833277530583        1.86779106272846
C          -13.36684093763024       -1.28435932033373        2.65603405775026
C          -12.21706178117203       -1.29429564998181        3.38605317585081
C          -11.49460049076981       -0.09305276617839        3.02888028271271
C           -9.57308038976552        1.43783005247296        3.26370667541265
C           -8.36695497683202        1.85448624343532        3.93717058992840
C           -7.99347466532721        3.04020662633384        3.35224749355614
C           -8.97609346134841        3.31239520701170        2.31759766597862
C           -9.82143894176786        4.62354115242324        0.40323777928851
C           -9.64285526070212        5.65185942081709       -0.59896484912719
C          -10.71032717346760        5.56514685271663       -1.45214001472907
C          -11.53549238563357        4.48107586769718       -0.93685329379748
C          -13.60628525375538        3.14410448850829       -0.94192876373632
C          -14.95596574970195        2.90811428902561       -1.39589815620798
C          -15.41854815881324        1.84085261560701       -0.69331166749316
C          -14.34125145413534        1.43493062154308        0.17740902824773
C          -14.35683913126419        0.32759325423509        1.01473699222237
H          -15.24512678395953       -0.29004642448973        0.99068710115994
C          -10.27273361685118        0.27895385096335        3.56468509697186
H           -9.82797212512256       -0.38726830344728        4.29284749910886
C           -8.93611262911893        4.39212813317909        1.44794006019293
H           -8.13171922139941        5.10419495295810        1.57753268134245
C          -12.77444268817351        4.13599097292110       -1.44795058558707
H          -13.13695768747644        4.70087381118665       -2.29542904935044
C          -11.76445444875799       -2.30949450961615        4.38085062265077
H          -12.51966395173388       -3.07895462144776        4.51034792032304
H          -11.58646915183039       -1.84310463229075        5.34802374361267
H          -10.83911579345220       -2.78755982991229        4.06147712384058
C          -14.45364569613578       -2.30593664731012        2.62561469577827
H          -14.89450658784911       -2.36650714168998        1.63418865611381
H          -15.24406305102490       -2.05584272188944        3.33364530821217
H          -14.06456973036423       -3.28728269666327        2.88436934454950
C           -7.71079828742791        1.10067548008893        5.04710496412947
H           -7.76094108259002        0.02732781759320        4.87816664782834
H           -8.20739836782297        1.31032892662024        5.99673261339223
H           -6.66476140265382        1.37946824802842        5.14044414434293
C           -6.85459998187773        3.87442750232866        3.66566527408911
H           -6.43441692656468        4.45100814386000        2.85157659525904
C           -6.31322501907986        3.97988223245863        4.87673723231286
H           -6.72252045944001        3.45843580016744        5.72129912648021
H           -5.45843824198655        4.60561145990732        5.06216224023648
C           -8.44624632124875        6.53461826322277       -0.68300232674007
H           -7.54486154936095        5.96917867507502       -0.45584554629918
H           -8.52198444764406        7.35172943359534        0.03355150691567
H           -8.35032839150806        6.95415547802654       -1.67991626609888
C          -11.00330888322670        6.33219243690967       -2.64888722491397
H          -11.48299643921204        5.79042056689291       -3.45728932667542
C          -10.74091989973101        7.62286959835097       -2.82810902087434
H          -10.30088991656356        8.22776886486473       -2.05613991934281
H          -10.98009248172878        8.12360968831252       -3.75184753850493
C          -15.68140768157560        3.74102565961192       -2.39935778458100
H          -15.26603032821078        3.60954635400136       -3.39873052126552
H          -15.61072263060318        4.79942149932932       -2.14741245051487
H          -16.73142434655924        3.46441080879902       -2.43022646473552
C          -16.76151546456336        1.19340871333031       -0.79805215624406
H          -16.78745962118067        0.49931273149141       -1.63949560336261
H          -17.53670164337411        1.94002580152010       -0.95897904090559
H          -17.01166983273220        0.63897886476030        0.10318710556336
O          -10.64570278146073        1.09172345806307       -0.15246792851496
H          -10.72372768112877        0.16775325712034        0.09924471778411
H          -10.07419803141796        1.33313123450401       -0.88175901557288
C          -14.94649527696330        6.01766610198516        3.83744341276872
H          -14.53658147975110        6.98061892737439        4.13606690922752
H          -15.52143398861435        5.61766081910255        4.67209573160705
H          -15.61071535557282        6.16286876000017        2.99436666505004
N          -12.88849929950040        4.71858171850997        4.36354700137610
H          -12.77905662811724        5.09939625923585        5.28934842529536
C          -13.86469940392691        5.07024347298840        3.47127824696362
C          -12.09893033467246        3.79920913243004        3.76844384496035
H          -11.26145624147231        3.34033269637817        4.24871755521688
N          -12.51258882159318        3.54970264987388        2.55037351270951
C          -13.61131832382634        4.33461153574890        2.34908467009118
H          -14.13257130732945        4.31531132370693        1.41542324722665
78
 energy: -116.048362581963 gnorm: 0.026893410350 xtb: 6.7.1 (edcfbbe)
Fe         -11.61112038378588        2.33199004629865        1.19146260266762
N          -12.20243004418818        0.63925558316571        2.11002313633613
N           -9.93551156264013        2.34324383941287        2.30510111638297
N          -10.96179077429900        3.91941267112299        0.17184106137737
N          -13.27637155313472        2.28059757588277        0.05281552966898
C          -13.34452178216234       -0.05783669002082        1.87566693616087
C          -13.37005022413757       -1.27730598886149        2.65412290274860
C          -12.22065777239715       -1.28734402512006        3.38622626068970
C          -11.50430115161952       -0.08288847571684        3.02660088499725
C           -9.58566028843751        1.44310220184410        3.26102884172305
C           -8.38007940844262        1.85685162771394        3.93694594168917
C           -8.00205545886329        3.04558585038091        3.35738253169336
C           -8.98429188188937        3.30898045445119        2.31864312658970
C           -9.82141643120173        4.61732959404657        0.40520474869881
C           -9.63871873092432        5.65062875812127       -0.58872861457016
C          -10.70948263891179        5.55994897331423       -1.44033841339407
C          -11.53327808118434        4.47904142195919       -0.92443078311859
C          -13.61158438843153        3.15861261832939       -0.92414638849643
C          -14.95797563251856        2.91315414003550       -1.38992177342380
C          -15.41697261805037        1.84361985795857       -0.69083767986468
C          -14.34103898744389        1.44775608892325        0.19457142967797
C          -14.36241489754948        0.33650933562238        1.02278215667461
H          -15.24389665653275       -0.28719361980736        0.98847878456028
C          -10.28763904067437        0.28667173406872        3.56778449318562
H           -9.85573171914656       -0.37197547444135        4.30807114171435
C           -8.93509329047794        4.38130849802526        1.44627237321450
H           -8.12006199993913        5.08061187635759        1.56440438576566
C          -12.77841420161552        4.14450927189647       -1.43230167723817
H          -13.14284658086445        4.71383315272240       -2.27441482016189
C          -11.76124762462794       -2.30018837106551        4.37437412490278
H          -12.51260023638250       -3.07373439427074        4.50510054937894
H          -11.58108792648896       -1.83667673625251        5.34316372088714
H          -10.83339525167292       -2.77253677438616        4.05283684302861
C          -14.45347639466401       -2.29933480699928        2.62575921888355
H          -14.89421232341186       -2.36861741310611        1.63479392705070
H          -15.24450248806331       -2.04632659401387        3.33196698213339
H          -14.06509961336582       -3.27915509004666        2.89267898301769
C           -7.71601254290269        1.09645565814521        5.02943718282383
H           -7.77607455864648        0.02478468921271        4.85392987066408
H           -8.19813147913040        1.30491707928289        5.98692472883620
H           -6.66809373859046        1.37258245968756        5.10777595612591
C           -6.86549514071702        3.87537667744636        3.66911788042438
H           -6.45186151525806        4.44221910734676        2.84440868438166
C           -6.31386328960781        3.99499999237588        4.87590420728212
H           -6.72317836256469        3.50097834465245        5.73892275253910
H           -5.45210894962396        4.61528283393938        5.04752807421458
C           -8.44789214531939        6.53638089688490       -0.68079127337051
H           -7.54068439779551        5.97788791896222       -0.45862677478151
H           -8.51882220031121        7.35886718708788        0.03103267192128
H           -8.36214316239013        6.95430898290670       -1.67998254446667
C          -11.00321606604533        6.32325008485606       -2.63142653827258
H          -11.49122212293326        5.77463536519057       -3.42934994795250
C          -10.73498000691399        7.61204400917641       -2.81583339864143
H          -10.29868902236742        8.22375514551604       -2.04704939496002
H          -10.97220595925566        8.11096885127406       -3.73989950613864
C          -15.67533439219495        3.73733000090758       -2.40387381746727
H          -15.24997778898014        3.59926930814553       -3.39700555203645
H          -15.60548114678649        4.79494592577770       -2.15303639446889
H          -16.72539035528447        3.46126115979784       -2.44315773751134
C          -16.75357301160392        1.19229178533293       -0.79539269453472
H          -16.77776136678880        0.49446073863525       -1.63310580193719
H          -17.52812548097897        1.93827316859523       -0.96136023520319
H          -16.99917629844122        0.64613047811949        0.11048655893595
O          -10.67498103815188        1.06075889220113       -0.21463415900887
H          -10.65198719590126        0.12826301774263        0.05758458286838
H          -10.03211657394847        1.29890396810226       -0.89802827333984
C          -14.94609521437854        6.02013511053641        3.83248472492706
H          -14.53329986041695        6.98274588668122        4.12758971642671
H          -15.53168653434009        5.63233204185885        4.66556280337411
H          -15.60554497478613        6.16656957412260        2.98554896118198
N          -12.89309943326317        4.70664131253850        4.36984232127196
H          -12.78295720768709        5.08547273072164        5.29668975339717
C          -13.86828081443546        5.06142246980591        3.47526483998340
C          -12.10036812889391        3.78954478010513        3.76910585987215
H          -11.25766661042256        3.33583798208095        4.24402077209882
N          -12.51275903904012        3.54051448494783        2.55045627494110
C          -13.61094883012727        4.32565828645582        2.35395069189382
H          -14.13268400263344        4.31310089529835        1.42099958847437
78
 energy: -116.049922541396 gnorm: 0.052972252473 xtb: 6.7.1 (edcfbbe)
Fe         -11.61779856450912        2.32841120115323        1.18720810354529
N          -12.21266730927788        0.64931667580076        2.10882447397883
N           -9.94004512506706        2.33725125080157        2.29405424310883
N          -10.95794302682524        3.91103344316826        0.17770568002839
N          -13.28309547082640        2.30104336288800        0.07635883231455
C          -13.35238970281996       -0.04711011189062        1.87844740036749
C          -13.37554787244896       -1.26707009241269        2.65231424919273
C          -12.22628168256870       -1.27708639184120        3.38301268631929
C          -11.51419315960272       -0.07073709869032        3.02508850776036
C           -9.59808851998744        1.44509408637667        3.25764236672936
C           -8.39743605104775        1.85928313003153        3.93710217298289
C           -8.01632109757597        3.04784758793769        3.36271717347918
C           -8.99016970872580        3.30415204430723        2.31526213825309
C           -9.81589681291738        4.60881298599910        0.40666903274702
C           -9.63609047155716        5.64689538414789       -0.57715287794264
C          -10.71224906207989        5.55601703882881       -1.42239918164781
C          -11.53388554148217        4.47698176742456       -0.91066982110822
C          -13.61484801686079        3.17671871849607       -0.90377233316184
C          -14.95706903399882        2.92167208299392       -1.38171099282029
C          -15.41416436937432        1.84862606650082       -0.68294112661659
C          -14.34026734719106        1.46072588573923        0.21282105037481
C          -14.37155585953356        0.34680223379245        1.02894720857364
H          -15.24775550317698       -0.28086707216904        0.98598990709082
C          -10.30384697926237        0.29522109813612        3.57578107234585
H           -9.88875696898199       -0.35399445281783        4.33179337275424
C           -8.92695985407943        4.36944402563096        1.44114490655128
H           -8.10255003083158        5.05670151664480        1.54959582057856
C          -12.78483940468987        4.15796896918668       -1.41200018006096
H          -13.15299153535753        4.73511427980638       -2.24642656864960
C          -11.75554059519165       -2.28968406647486        4.36708994762260
H          -12.50110595457914       -3.07027973523856        4.49882642519740
H          -11.57438615402010       -1.82714896456079        5.33763833999568
H          -10.82398208429714       -2.75300021285108        4.03929638802815
C          -14.45713301818206       -2.29119746377832        2.62724518694898
H          -14.89348445362447       -2.37310277342734        1.63412920713739
H          -15.25205568364355       -2.03126575061467        3.32804646952622
H          -14.06740615207853       -3.26824276321988        2.90743501907688
C           -7.71984919840399        1.09136453943665        5.01360034790015
H           -7.78968413445949        0.02087921669971        4.82860864213167
H           -8.18129527207461        1.29498042389244        5.98302256707298
H           -6.66898064303108        1.36703511292392        5.07028505157116
C           -6.87954240109360        3.87845161655154        3.67243248130528
H           -6.46496889442272        4.42885081745251        2.83542103245787
C           -6.32122134683435        4.01774886581191        4.87351035452299
H           -6.71804196858155        3.53952210112195        5.75267698531011
H           -5.45105840028234        4.63403743891179        5.02717570185095
C           -8.45025205727553        6.53911620012452       -0.67858430957610
H           -7.53500970807081        5.98911987553130       -0.46219214432492
H           -8.51906159343216        7.36717690720426        0.02910082778172
H           -8.37782066429362        6.95369995680170       -1.68214556510930
C          -11.00949272158607        6.31740828486659       -2.61118188501133
H          -11.50260397473955        5.76185674651801       -3.40085658357428
C          -10.73223663389161        7.60339437175897       -2.80090967299628
H          -10.28854028145325        8.21682348192190       -2.03660906063069
H          -10.96411466254452        8.09949683221485       -3.72826316216929
C          -15.66558595956079        3.73322020192577       -2.41078494201478
H          -15.22624543997683        3.58396366894870       -3.39663386806319
H          -15.59925302314135        4.79294165170296       -2.16739792680614
H          -16.71575398332642        3.45495723006225       -2.46163336107222
C          -16.74562471656584        1.19093496776650       -0.79072515191379
H          -16.76392179928868        0.48518238415038       -1.62242495574070
H          -17.52187359663603        1.93419237284118       -0.96747061774753
H          -16.98983067183393        0.65377386243339        0.12088814883594
O          -10.72775940195126        1.01578002898878       -0.30568020354039
H          -10.56307894745013        0.09058447015819        0.01230088157393
H           -9.95851056484530        1.24399694825604       -0.89432826147889
C          -14.94605758184205        6.02224851783231        3.82645933272990