78
 energy: -116.058025226950 gnorm: 0.000113581039 xtb: 6.7.1 (edcfbbe)
Fe           5.73065754057511       -5.88367974423164       -8.46740582944071
N            5.72297598241990       -7.63473136584721       -7.51843618619281
N            5.11242976231727       -4.96355698115568       -6.80791130479268
N            5.68709797177059       -4.12958154968541       -9.45983302368056
N            6.29853413622621       -6.80945013680114      -10.16073344906664
C            6.07008061130260       -8.84554194883380       -8.02544546641298
C            5.94090324112903       -9.87906009433076       -7.02022751728872
C            5.50398537264049       -9.26041349129841       -5.89193357850654
C            5.37774711423143       -7.85686169403731       -6.22288981440743
C            4.85593858293251       -5.54079170889987       -5.60374598478036
C            4.43766786779714       -4.55546368615516       -4.63904999318288
C            4.44656731271909       -3.35163839967239       -5.29128689886643
C            4.88104394296510       -3.63553787354405       -6.64648363935377
C            5.38772760284114       -2.90759973904095       -8.93680492341063
C            5.49282538214149       -1.88149601972290       -9.94057553625364
C            5.86693737426733       -2.51131527303671      -11.09923008530619
C            5.99634679235668       -3.91561101329435      -10.76613070935992
C            6.51923213784867       -6.23657049263610      -11.37585272458380
C            6.95443883474211       -7.22611372888669      -12.33562374311345
C            7.00324117112329       -8.41012728205234      -11.66722385029282
C            6.59008411832437       -8.12933097215901      -10.31097094444979
C            6.48720439162738       -9.08718260016501       -9.32068855011859
H            6.74335114530293      -10.10251666131996       -9.58169162075749
C            4.97173745678650       -6.89176111430486       -5.32359920133824
H            4.71760977691576       -7.21794343595722       -4.32646984544190
C            5.00357285505771       -2.67254527626992       -7.62844310256992
H            4.76881634956305       -1.65429763003482       -7.35894138778829
C            6.36549980320788       -4.89454743055797      -11.67165832360718
H            6.56689612254505       -4.58615186902730      -12.68603998080106
C            5.19459325070374       -9.84055866903447       -4.55434234254444
H            5.35441110518371      -10.91595531982351       -4.55278710272071
H            4.15590279028485       -9.64782031378000       -4.28595886853327
H            5.82974456666831       -9.39871334636603       -3.78571758252861
C            6.23991848882965      -11.32046704823987       -7.25259938552938
H            7.27598856654417      -11.45209656558117       -7.56562744474578
H            5.59673332361845      -11.72311224476144       -8.03534249062451
H            6.07953779653794      -11.90001321670773       -6.34678396889957
C            4.13401083137991       -4.83030008451976       -3.20741622699219
H            4.81144149362572       -5.58228288723117       -2.80502793511990
H            3.11397854440217       -5.19978105672005       -3.09141562874402
H            4.23762737285574       -3.91882867565784       -2.62202967068108
C            4.12998172780550       -2.03471174924099       -4.78443417690149
H            4.70447219834087       -1.21890109501118       -5.20835424867804
C            3.20635049872472       -1.76231577342712       -3.86832714259432
H            2.57326048494537       -2.52469152333134       -3.44936769331456
H            3.03226876700764       -0.75571193127899       -3.52566912396135
C            5.29384018932492       -0.42555406587748       -9.70218624901058
H            5.69239068961079       -0.13695599523589       -8.73078603836610
H            4.23335784637692       -0.16844670221129       -9.72133685689825
H            5.80123088124471        0.15170422148283      -10.47248637158099
C            6.12500492982927       -1.94660886369238      -12.40530211197003
H            6.90025289639235       -2.43667640131285      -12.98324088462196
C            5.49016130332089       -0.90584225552366      -12.93473292839626
H            4.68043492190485       -0.41013609404063      -12.42840064515048
H            5.74428215184654       -0.52845025672653      -13.91137434605236
C            7.27355436812781       -6.93153437788273      -13.76136288803552
H            8.09993055921797       -6.22351904916039      -13.83160521510853
H            6.41142895847715       -6.49478603802611      -14.26617237904230
H            7.55565610933693       -7.83887218492898      -14.28966353025556
C            7.38875652446181       -9.76047134947516      -12.16567285155001
H            8.23696213713968      -10.14856320960101      -11.60142985371421
H            7.66549230200692       -9.72117336955303      -13.21638591775445
H            6.56068030395133      -10.46104173176925      -12.05484957534596
C           11.16199727369732       -4.62703383338148       -8.44304380414742
H           11.87227142768580       -5.44180995959459       -8.30252192503607
H           11.49065589801579       -3.78065099314026       -7.84014741939241
H           11.17096179687775       -4.33417250758945       -9.48817695347500
N            9.47629851928782       -5.45682576054973       -6.78728814272836
H           10.11493075294815       -5.51042397188660       -6.01080958528752
C            9.79185730487597       -5.04901461396153       -8.05685295321227
C            8.16060411496760       -5.76842552489375       -6.77183080233084
H            7.63583921400325       -6.11869914783512       -5.90674492744994
N            7.62465053738940       -5.58290468664840       -7.95390352951893
C            8.62685948463834       -5.13580987906031       -8.76361441630390
H            8.44456383768924       -4.90782256853311       -9.79298185606957
O            3.57325524172523       -6.17843132473114       -9.19031133964665
H            3.36770225884474       -5.28602853544883       -9.48925822142939
H            3.73576270364900       -6.71033825553347       -9.97699723287781
