87
 energy: -124.286318691727 gnorm: 0.368305413213 xtb: 6.7.1 (edcfbbe)
Fe          11.14000000000000       24.00400000000000        1.93800000000000
N           11.60400000000000       25.93300000000000        2.15700000000000
N           12.38300000000000       23.86400000000000        0.41600000000000
N           10.67600000000000       22.08300000000000        1.73500000000000
N            9.91300000000000       24.11700000000000        3.48100000000000
C           11.15900000000000       26.79200000000000        3.13200000000000
C           11.70800000000000       28.12200000000000        2.93300000000000
C           12.44900000000000       28.06300000000000        1.79700000000000
C           12.40600000000000       26.69900000000000        1.34500000000000
C           13.10300000000000       24.85800000000000       -0.15800000000000
C           13.94000000000000       24.32700000000000       -1.23700000000000
C           13.68300000000000       23.00500000000000       -1.33100000000000
C           12.72900000000000       22.72000000000000       -0.27500000000000
C           11.23200000000000       21.15700000000000        0.89700000000000
C           10.69500000000000       19.85000000000000        1.12500000000000
C            9.81900000000000       19.93600000000000        2.13000000000000
C            9.77900000000000       21.33000000000000        2.50400000000000
C            9.08500000000000       23.13300000000000        3.98900000000000
C            8.34000000000000       23.61700000000000        5.13500000000000
C            8.74900000000000       24.89300000000000        5.34600000000000
C            9.68500000000000       25.20499999999999        4.29100000000000
C           10.28500000000000       26.45000000000000        4.14400000000000
H           10.04700000000000       27.21400000000000        4.88400000000000
C           13.08000000000000       26.19900000000000        0.23400000000000
H           13.63400000000000       26.91000000000000       -0.37900000000000
C           12.19900000000000       21.45500000000000       -0.04300000000000
H           12.57700000000000       20.63300000000000       -0.65200000000000
C            9.03800000000000       21.82800000000000        3.52800000000000
H            8.35100000000000       21.14500000000000        4.02700000000000
C           11.45600000000000       29.28400000000000        3.83500000000000
H           11.81000000000000       28.79600000000000        4.76800000000000
H           10.34700000000000       29.23200000000000        3.80000000000000
H           11.78700000000000       30.34500000000000        3.83500000000000
C           13.21900000000000       29.18500000000000        1.12900000000000
H           12.72200000000000       29.11100000000000        0.13800000000000
H           14.18900000000000       28.64500000000000        1.08600000000000
H           13.39100000000000       30.25700000000000        1.36700000000000
C            8.38200000000000       25.85000000000000        6.44400000000000
H            7.31400000000000       25.75700000000000        6.15300000000000
H            8.56000000000000       26.87300000000000        6.83900000000000
H            8.60900000000000       25.09500000000000        7.22700000000000
C            7.36400000000000       22.79400000000000        5.92200000000000
H            7.67300000000000       22.29100000000000        6.84800000000000
C            5.93700000000000       23.39699999999999        5.93700000000000
H            5.54200000000000       23.92000000000000        5.05300000000000
H            5.30300000000000       23.30900000000000        6.83200000000000
C            9.04600000000000       18.84900000000000        2.83100000000000
H            8.02300000000000       19.22900000000000        2.62400000000000
H            9.34100000000000       19.15000000000000        3.85900000000000
H            9.04300000000000       17.74100000000000        2.74500000000000
C           11.21900000000000       18.57800000000000        0.47400000000000
H           12.27100000000000       18.57100000000000        0.25200000000000
C           10.05600000000000       17.73900000000000       -0.13500000000000
H            9.02300000000000       17.87900000000000        0.21700000000000
H           10.25500000000000       16.99800000000000       -0.92300000000000
C           14.18600000000000       21.96400000000000       -2.27300000000000
H           13.93800000000000       22.65900000000000       -3.10400000000000
H           14.05700000000000       20.91900000000000       -2.62700000000000
H           15.24000000000000       22.13300000000000       -1.96500000000000
C           14.80900000000000       25.22100000000000       -2.07100000000000
H           14.29200000000000       24.86700000000000       -2.98800000000000
H           15.68100000000000       24.56200000000000       -1.87200000000000
H           15.15100000000000       26.26600000000000       -2.23100000000000
C           14.33000000000000       22.02100000000000        6.12200000000000
H           14.80600000000000       22.79500000000000        6.76100000000000
H           15.08900000000000       21.25300000000000        5.86000000000000
H           13.49500000000000       21.55200000000000        6.68600000000000
N           14.60600000000000       23.31300000000000        4.00000000000000
H           15.59500000000000       23.41100000000000        4.10800000000000
C           13.79900000000000       22.66200000000000        4.86600000000000
C           13.86600000000000       23.79800000000000        2.98700000000000
H           14.26900000000000       24.37700000000000        2.15700000000000
N           12.61100000000000       23.46100000000000        3.17100000000000
C           12.55800000000000       22.73200000000000        4.32900000000000
H           11.61900000000000       22.31900000000000        4.67500000000000
C           10.18500000000000       23.95700000000000       -2.06600000000000
H           10.02600000000000       23.23200000000000       -2.89300000000000
H           11.25300000000000       23.92100000000000       -1.76200000000000
H            9.93500000000000       24.97500000000000       -2.43400000000000
C            9.30700000000000       23.60600000000000       -0.89500000000000
H            9.56800000000000       22.58400000000000       -0.54800000000000
H            8.24900000000000       23.60000000000000       -1.23200000000000
S            9.50500000000000       24.77900000000000        0.46600000000000
C            7.87800000000000       24.65000000000000        1.21900000000000
H            7.67100000000000       23.61200000000000        1.55700000000000
H            7.09300000000000       24.93600000000000        0.48700000000000
H            7.81000000000000       25.31900000000000        2.10300000000000
87
 energy: -124.443361519516 gnorm: 0.222025750935 xtb: 6.7.1 (edcfbbe)
Fe          11.13169892621605       23.99953154375464        1.94162020836259
N           11.61230633271705       25.94382074949574        2.16039923919337
N           12.38059308776735       23.86000436691133        0.42408246052055
N           10.66776120534676       22.06152046742039        1.73147179769236
N            9.90152553457049       24.11508866601179        3.48698714710769
C           11.16730262337472       26.80046038565441        3.13093490099357
C           11.71034721899339       28.12323701087247        2.92065708229392
C           12.45422186333142       28.06722440717460        1.79499196984667
C           12.40545508781554       26.70475866044621        1.33626204259655
C           13.09558424320379       24.86149429737816       -0.14657416473623
C           13.91239081710029       24.34722795019571       -1.20920623592770
C           13.65626537978833       23.00378419556135       -1.29798220948689
C           12.71920880490806       22.71633357372636       -0.26228928152873
C           11.24709977827212       21.14545486445634        0.90122149106086
C           10.72207773986699       19.82513483450396        1.11655834475780
C            9.81868014342561       19.92899439593799        2.12632071748725
C            9.77970796651836       21.31645094597327        2.50142066891451
C            9.08163540240482       23.13406207166225        3.99574198167063
C            8.33591515101751       23.61420140821259        5.13125403264058
C            8.76945428756232       24.90542455741902        5.32786393848370
C            9.69907370636711       25.20649825270315        4.28964894075787
C           10.29196947292415       26.45240476767169        4.14683330227140
H           10.04381362118607       27.21018421452793        4.88041496092853
C           13.07804053546864       26.20402180438120        0.23329047235894
H           13.63706797475677       26.90430712886726       -0.37566090600786
C           12.20470444661819       21.45149280089099       -0.04570564295133
H           12.57777676328288       20.63882593679566       -0.65577757658830
C            9.02584926006229       21.82577226475717        3.53155870479338
H            8.34789217364179       21.14862708071368        4.03440119649422
C           11.43422285127552       29.26234718005678        3.83265853426115
H           11.78696439879713       28.82177691486519        4.78175351486550
H           10.33765256749015       29.25918110830384        3.82855962318990
H           11.79504237874796       30.30253691621406        3.86214964398633
C           13.22845655523844       29.15421997196530        1.10078192262586
H           12.74848299674658       29.12966457682787        0.11497212764712
H           14.21096400841085       28.67018766371728        1.05640880170503
H           13.36052044885145       30.21091324456848        1.39496945338229
C            8.34982447579208       25.81338261496267        6.45112284481016
H            7.28161913925032       25.77195395987041        6.20537183204922
H            8.58837693376592       26.83916506485473        6.78533370263904
H            8.57792214722852       25.11549586599842        7.26742374843137
C            7.31759744274644       22.87873745794290        5.93785526050378
H            7.65281737095568       22.30250435051400        6.81588927897394
C            5.98953668454965       23.38260296812173        5.94328755407900
H            5.57526977302658       23.90747035367779        5.07770301173803
H            5.32479278325647       23.28049012912197        6.80517420605528
C            9.02911847859103       18.87921552738045        2.84990666473403
H            8.00275941475894       19.21075955871996        2.64988926358227
H            9.31077678350541       19.12622443251093        3.88089316537559
H            9.07313707526838       17.78414228667220        2.71943600441840
C           11.14588394726408       18.58795064536375        0.42556192135630
H           12.21977376446209       18.54498287527746        0.23559673472035
C           10.10801890099003       17.76507281196644       -0.11555928010685
H            9.07130264581243       17.89418147901550        0.20961134462937
H           10.27454208024265       17.01012216940989       -0.88693399926380
C           14.21101999028217       22.01161553780032       -2.28613101166634
H           13.97805202038893       22.63852187676423       -3.15687346563677
H           14.02738589622057       20.95834851838616       -2.57207169512982
H           15.26874168765154       22.11645177929705       -2.00930031356321
C           14.81493211375654       25.17227420092887       -2.09297096927248
H           14.33331631617302       24.87678241871213       -3.03442156697476
H           15.71854884501889       24.57338319556569       -1.91952069272862
H           15.10821680580032       26.23467564661969       -2.18307317212903
C           14.32794848847785       22.02232896695115        6.11873361842392
H           14.80105606544013       22.78427740706729        6.75485802290237
H           15.07915447453298       21.26047943656985        5.86680054725132
H           13.50739492312852       21.55692954977713        6.67761858530821
N           14.61329353721518       23.31639392976925        4.00180338727496
H           15.60550395005404       23.41525853803407        4.10853848192604
C           13.80034524558882       22.65485810569071        4.86978087557916
C           13.86595856602450       23.79760482769882        2.98964968644269
H           14.26208574540775       24.37157545542010        2.16576237928352
N           12.60999851836219       23.46095941609123        3.16941774373154
C           12.55296635121166       22.73544508413741        4.32754944232051
H           11.62147467368320       22.32486527975499        4.67271398585319
C           10.18632172380000       23.95959380555433       -2.07087137155311
H           10.02996328521017       23.24084375503489       -2.88619124142256
H           11.23945271157413       23.92557945215044       -1.77263539608518
H            9.94206145862814       24.96613986281106       -2.43321599962680
C            9.30207283662875       23.59407398703441       -0.90029829554516
H            9.56277583249080       22.58784607387194       -0.54438375136447
H            8.25120673586518       23.60085706248371       -1.22258660875472
S            9.49732971031962       24.78404243210427        0.46164622336771
C            7.86645803844442       24.64379662418294        1.22203843602336
H            7.67512425743950       23.61699293888481        1.55677808473942
H            7.09990989485477       24.93630002105223        0.49254397552223
H            7.81613370479210       25.31227908182128        2.09075561111428
87
 energy: -124.526678902643 gnorm: 0.167840131501 xtb: 6.7.1 (edcfbbe)
Fe          11.12685605152750       23.99431017457225        1.94593480441836
N           11.61897893565503       25.96007695845916        2.16699855724971
N           12.38032150031224       23.85538891937904        0.42750525678493
N           10.65660720881686       22.03390544151686        1.73052721937085
N            9.88913747453417       24.11047568713811        3.49490780488466
C           11.17629698539472       26.81169118395571        3.13340050109390
C           11.71207706019402       28.12977581172689        2.92968974286091
C           12.45630645392960       28.07830930231808        1.79913622448075
C           12.40450098512370       26.71526131212566        1.33223360199000
C           13.09342001624103       24.86543407350110       -0.14416955133822
C           13.89050304816833       24.37151423918061       -1.19009083516296
C           13.63631434798820       22.99877149374524       -1.27294182634275
C           12.71486354401810       22.71152916523663       -0.25675144065692
C           11.25512793671252       21.12668487069602        0.90787545620740
C           10.74202114295812       19.79690827755548        1.11461777085711
C            9.81468631036299       19.92280275786870        2.12611298572404
C            9.78081516847983       21.30202896547377        2.49889875296186
C            9.07415445382342       23.13489274859958        4.00192862210922
C            8.32836141318761       23.60949620311109        5.12224985346678
C            8.78549080109963       24.91957563475540        5.31298126937073
C            9.71104575512691       25.20654320099984        4.29526312478164
C           10.29897066785925       26.45441187390499        4.15279299276130
H           10.04007203790531       27.20609766869532        4.87928653960082
C           13.07617808174741       26.21251357067723        0.23415894652836
H           13.64104995235723       26.90047921513594       -0.37186267584349
C           12.20927214847117       21.44322705610843       -0.04840057732311
H           12.57859636459446       20.64095672843242       -0.66069529691937
C            9.01219442119194       21.82281193386283        3.53209856728598
H            8.34390841098045       21.15083951975668        4.04050794235994
C           11.41117767319925       29.23500773039447        3.88420933184694
H           11.77144972978733       28.84287858754419        4.83595268545695
H           10.32692033135452       29.28494397221023        3.86626292078161
H           11.80817575434754       30.25803700984972        3.74705236666501
C           13.23693692410759       29.12326092599580        1.07352940066537
H           12.77622588827453       29.14929024538393        0.09087676804555
H           14.23368448567956       28.69668394023062        1.02520273605581
H           13.32532469509758       30.16204492229081        1.42967080483114
C            8.31301272112260       25.76989491708715        6.45894640392704
H            7.24759162280455       25.78692411596763        6.25891172015362
H            8.62297921409212       26.79922231081783        6.71948768824511
H            8.54601133406635       25.13274292036482        7.30783793830740
C            7.26782156174468       22.97014502528460        5.95966778082906
H            7.63970134230198       22.32229149401555        6.78434733264734
C            6.05243270534423       23.36651906199496        5.94606525963095
H            5.61303615572332       23.91053648622001        5.10688793199010
H            5.34538245866012       23.23657648980233        6.76989933542236
C            9.01208386255079       18.90912547913193        2.86880898269167
H            7.98095035517423       19.19117357320313        2.67709673020910
H            9.27920880015047       19.10124382739523        3.90383357297659
H            9.10845674968287       17.82841975787236        2.68704278875082
C           11.07332804555051       18.58847792564473        0.37679502544997
H           12.16561974886640       18.51611902344545        0.20834676023123
C           10.16732222292885       17.81164757062917       -0.09776446973578
H            9.11754093677906       17.91657578993204        0.19333695467293
H           10.30171032328756       17.02010432985746       -0.83771948676461
C           14.23952694873843       22.06753883698022       -2.30014322366767
H           14.01846712396969       22.62274298080812       -3.20638851870790
H           13.98814918294005       21.00572536926592       -2.50401420538844
H           15.29713181017211       22.10542455428082       -2.05183161961946
C           14.81981718316613       25.11714784577462       -2.11625225747193
H           14.37406633433621       24.88332940446337       -3.07902662554557
H           15.75248664710462       24.58169785699708       -1.96495304998874
H           15.05424548968387       26.20000692313953       -2.12255953524345
C           14.32549358939521       22.02307522400516        6.11548992238351
H           14.79653040905724       22.77581224286241        6.74898579712794
H           15.07102923523402       21.26586227074832        5.87211160006951
H           13.51615891212291       21.56024102201453        6.66995715851773
N           14.62035017629417       23.31959801603102        4.00388199973813
H           15.61512010397039       23.41908161875197        4.10923268908489
C           13.80093593154397       22.64787664530381        4.87328801749491
C           13.86691355852878       23.79691266170058        2.99320364671109
H           14.25556397801321       24.36706103712805        2.17375033800351
N           12.61104503334265       23.46119246199368        3.16857274456985
C           12.55004462108983       22.73906972545336        4.32545149824974
H           11.62476425895827       22.32980931294703        4.67166447292651
C           10.18749095069476       23.96117010733439       -2.07706790016611
H           10.03306215676902       23.24775446312077       -2.88274185825392
H           11.22818361623401       23.92985768819353       -1.78116091829329
H            9.94610125320924       24.95902202759330       -2.43143965549418
C            9.29681038960711       23.58218986794965       -0.90715448392370
H            9.55894078590175       22.59221405596305       -0.54049385246328
H            8.25234365878033       23.60238392811712       -1.21440697387764
S            9.49271359682524       24.79063077545986        0.45829227842194
C            7.85380048777970       24.63824870544151        1.22574081249459
H            7.68012938038183       23.62028362173324        1.55627026190780
H            7.10486299438693       24.93644760440938        0.49714757813285
H            7.82250588032790       25.30698972297915        2.08081426472500
87
 energy: -124.568591678427 gnorm: 0.059912196775 xtb: 6.7.1 (edcfbbe)
Fe          11.12394527531987       23.99139697055694        1.94864692189579
N           11.62385406700530       25.96291858173299        2.17115428353443
N           12.37940901329796       23.85360207320710        0.43210708393567
N           10.65278160815928       22.02406628567949        1.73554756176140
N            9.88761556283742       24.11011478810723        3.49678039450280
C           11.18497048374626       26.81235282311165        3.13703198743929
C           11.71117524988015       28.12984299208760        2.93281281938139
C           12.45937087702531       28.07774193339573        1.79675275315637
C           12.40221432898785       26.71788325406935        1.33198984378313
C           13.09147161970182       24.86746302813501       -0.14502324995993
C           13.88621524313340       24.37589928837912       -1.19442776919834
C           13.63758019799793       23.00288331009374       -1.27317789240468
C           12.71618871462582       22.70994089940957       -0.25451723277623
C           11.25954321070015       21.11971848925018        0.91850311543933
C           10.74625986206950       19.80092326527908        1.13224862245253
C            9.80989706141297       19.92526343625346        2.13775740408248
C            9.77704638939508       21.29995004148721        2.50367102301860
C            9.06924467922347       23.13709534501936        3.99987274052676
C            8.33895230678331       23.61732327161935        5.11638706089793
C            8.78230709481901       24.92657183628136        5.31241771464544
C            9.71869259487048       25.20781703303239        4.30291700679653
C           10.31020241758905       26.45442501339302        4.15804060831418
H           10.03879350370363       27.20682318025536        4.87885990072517
C           13.07267637275071       26.21572913271017        0.23484227977943
H           13.64779085517409       26.89800822957148       -0.36812143316389
C           12.21191461464496       21.43766490351115       -0.04269358098728
H           12.57868070304675       20.64054381644212       -0.66495213427660
C            9.00162267235398       21.82424882902164        3.53105476775847
H            8.33609418522030       21.15429390034717        4.04844607229082
C           11.39852812926220       29.22196676796903        3.89888175018324
H           11.74809921416939       28.87405266094307        4.87210485188316
H           10.31228193947492       29.31470048943061        3.91027801709082
H           11.82647099127582       30.21905105511121        3.69971121293325
C           13.24364134620794       29.10491179958229        1.05644418913855
H           12.81017030436327       29.16905204382865        0.05773110660011
H           14.26344584456541       28.72324105603593        0.98525850556491
H           13.28788037452355       30.12398513685626        1.47254894268257
C            8.29079093761429       25.74768733438635        6.46271316065139
H            7.20879188191780       25.79887910249186        6.32176005805175
H            8.66210884629889       26.77436564596323        6.65302606130467
H            8.50448664095936       25.14962395000130        7.35191865840352
C            7.31378925485470       23.00116955167900        5.98051747168637
H            7.66747254827481       22.34690032602360        6.78823959798419
C            6.02022186533818       23.35366505962380        5.93533047786099
H            5.62251227334801       23.95278985204517        5.12106213685390
H            5.31675563417243       23.16832576791624        6.74335248698943
C            8.99888758940148       18.92445374604787        2.88158719306542
H            7.95002758427122       19.16962134482817        2.71081776346947
H            9.23765889580254       19.07378630900073        3.93619701533744
H            9.14688382035647       17.86014093248204        2.64690045491514
C           11.08312729909308       18.62632643490660        0.35662366429519
H           12.15649605288062       18.51689083815045        0.16274437723475
C           10.15661072921363       17.77671351243309       -0.09700306076767
H            9.11242726959364       17.93143744446417        0.16005519743374
H           10.32614784128836       16.97743141622545       -0.80541060759783
C           14.25533874721259       22.10297427035075       -2.30462730697534
H           14.06925978306709       22.61149215135272       -3.25604296101825
H           13.94367506704574       21.04317822067436       -2.43297845609276
H           15.32963933819140       22.10233044362226       -2.10175904013939
C           14.81974830217415       25.08535997372979       -2.12873589650580
H           14.42337447516571       24.88342265992174       -3.12848671438422
H           15.78494083146074       24.58414632023504       -2.01886222644119
H           15.00042039738670       26.17789458626982       -2.05970745469760
C           14.32405514713974       22.02216312520242        6.11270249504749
H           14.79449058601631       22.77258853004492        6.74723435544125
H           15.06849383720751       21.26392415173007        5.87493958968438
H           13.51554694814850       21.55905155310056        6.66588173596578
N           14.62413877231761       23.32138808192319        4.00599218983404
H           15.62006337945576       23.42286282389466        4.11127850027168
C           13.80221898900417       22.64656272433803        4.87170571597392
C           13.86882910908965       23.79715835654511        2.99658088088383
H           14.25341997015014       24.36756429880086        2.17714327145783
N           12.61308606622246       23.46190685280977        3.16902070023046
C           12.55208394283256       22.74147715389218        4.32500806077356
H           11.62582946291992       22.33503122450694        4.67312194341180
C           10.18274460923954       23.96089844886512       -2.08083512491901
H           10.03378891387695       23.25026402523173       -2.88853534254994
H           11.22385210904035       23.93483609517868       -1.78854933914948
H            9.94448747474535       24.95937164735333       -2.43332474908105
C            9.29335459338967       23.57902126808420       -0.91061691778512
H            9.55568175990348       22.59273077378089       -0.53452426981571
H            8.24670464833416       23.60234595277827       -1.20780562246687
S            9.48872156371047       24.79533949730247        0.45191643272656
C            7.85040348106795       24.63443803499339        1.22473402553242
H            7.68487626820725       23.61585822531686        1.55735199542752
H            7.10198936159488       24.93635661635741        0.49844832262976
H            7.82951619068371       25.30538638194583        2.07701185013003
87
 energy: -124.586100590267 gnorm: 0.048649420324 xtb: 6.7.1 (edcfbbe)
Fe          11.12437601959459       23.98708446754954        1.95144162128349
N           11.62785899792609       25.96096332419052        2.17657148721518
N           12.38363065817714       23.84912189773364        0.42936571655105
N           10.65279045845091       22.01432206370785        1.74212128891528
N            9.88617987271531       24.11075532832720        3.50515272375565
C           11.19386326636677       26.80859460090332        3.14336436856353
C           11.71045878955487       28.12789752425944        2.93705046428656
C           12.46180734926133       28.07465759354395        1.79412664816478
C           12.39968416653167       26.71588432630308        1.33432774416990
C           13.09320138720485       24.86866933850536       -0.15383683089307
C           13.88778392104677       24.37740679360649       -1.20853157346507
C           13.64570283468945       23.00384050676063       -1.28174972589987
C           12.72295386410827       22.70410981140489       -0.25749648074351
C           11.26465772037806       21.10794551240743        0.93099564801324
C           10.74066970633735       19.79582020857599        1.14596801312766
C            9.79523718493413       19.92619089464160        2.14884285293091
C            9.77236381419394       21.29919551721531        2.50833089602837
C            9.06061471494283       23.13907522520148        4.00154601597047
C            8.32986374800480       23.62122182381699        5.11195726993204
C            8.76919310579848       24.92855559113644        5.32274658600792
C            9.71953253223215       25.20869930800354        4.31847511942290
C           10.32081050849357       26.45214467567990        4.16696105922239
H           10.03951679405795       27.20842453500241        4.88030365850067
C           13.06989902314820       26.21580675961579        0.23547747395578
H           13.65525997071054       26.89575898874888       -0.36134929948522
C           12.21635204909045       21.42895736449039       -0.03394477530957
H           12.57785173325573       20.63569487216456       -0.66614510271395
C            8.98872018000018       21.82739184387078        3.52895033054896
H            8.32332012412662       21.16040388370298        4.05298112710765
C           11.39249171386582       29.21786597471982        3.90077631049616
H           11.73439330202679       28.91756513527513        4.89415738058012