78
 energy: -115.959213212555 gnorm: 0.264372032493 xtb: 6.7.1 (edcfbbe)
Fe           8.13400000000000       -7.07100000000000        9.45400000000000
N            8.76100000000000       -9.02400000000000        9.58300000000000
N            9.80900000000000       -6.54300000000000       10.56100000000000
N            7.51300000000000       -5.12500000000000        9.50300000000000
N            6.36400000000000       -7.67300000000000        8.54000000000000
C            8.12000000000000      -10.08600000000000        8.97200000000000
C            8.86600000000000      -11.28900000000000        9.28900000000000
C            9.91000000000000      -10.94800000000000       10.04900000000000
C            9.86100000000000       -9.51800000000000       10.25800000000000
C           10.81000000000000       -7.39300000000000       10.99000000000000
C           11.91500000000000       -6.58500000000000       11.46000000000000
C           11.56600000000000       -5.29600000000000       11.33900000000000
C           10.24300000000000       -5.24500000000000       10.75200000000000
C            8.23400000000000       -4.05500000000000        9.99300000000000
C            7.41100000000000       -2.86600000000000        9.86800000000000
C            6.22300000000000       -3.23100000000000        9.34300000000000
C            6.28200000000000       -4.66200000000000        9.08800000000000
C            5.37600000000000       -6.76300000000000        8.16800000000000
C            4.43800000000000       -7.43700000000000        7.31100000000000
C            4.93500000000000       -8.88300000000000        7.18400000000000
C            6.15300000000000       -8.93700000000000        7.98600000000000
C            6.98100000000000      -10.02700000000000        8.20000000000000
H            6.69600000000000      -10.95000000000000        7.69600000000000
C           10.75700000000000       -8.77000000000000       10.98200000000000
H           11.48100000000000       -9.30600000000000       11.59600000000000
C            9.52400000000000       -4.10300000000000       10.47900000000000
H           10.01900000000000       -3.15000000000000       10.66400000000000
C            5.28000000000000       -5.43700000000000        8.54200000000000
H            4.31500000000000       -4.95400000000000        8.39000000000000
C           10.97300000000000      -11.89900000000000       10.63600000000000
H           10.97500000000000      -12.85100000000000       10.06400000000000
H           10.73500000000000      -12.11800000000000       11.69900000000000
H           11.97800000000000      -11.43100000000000       10.56000000000000
C            8.51200000000000      -12.70900000000000        8.80200000000000
H            9.02000000000000      -12.90700000000000        7.83400000000000
H            7.41400000000000      -12.79300000000000        8.65600000000000
H            8.85400000000000      -13.45800000000000        9.54800000000000
C           13.22400000000000       -7.15700000000000       12.04300000000000
H           13.88900000000000       -7.48000000000000       11.21400000000000
H           12.99700000000000       -8.03500000000000       12.68500000000000
H           13.74300000000000       -6.37500000000000       12.63800000000000
C           12.41100000000000       -4.05000000000000       11.67400000000000
H           12.01200000000000       -3.24200000000000       12.30400000000000
C           13.65600000000000       -3.94900000000000       11.18800000000000
H           14.07500000000000       -4.74600000000000       10.55600000000000
H           14.27400000000000       -3.06800000000000       11.41600000000000
C            7.88000000000000       -1.46700000000000       10.33200000000000
H            8.39600000000000       -0.95200000000000        9.49400000000000
H            8.58800000000000       -1.57100000000000       11.18200000000000
H            7.00200000000000       -0.86000000000000       10.64200000000000
C            4.99000000000000       -2.36100000000000        8.98000000000000
H            3.99500000000000       -2.82900000000000        8.94300000000000
C            5.06300000000000       -1.04400000000000        8.70200000000000
H            6.03100000000000       -0.52200000000000        8.72300000000000
H            4.15600000000000       -0.47500000000000        8.45100000000000
C            3.18500000000000       -6.82300000000000        6.65500000000000
H            3.46000000000000       -5.87600000000000        6.14400000000000
H            2.42300000000000       -6.60400000000000        7.43300000000000
H            2.76900000000000       -7.53000000000000        5.90500000000000
C            4.20300000000000       -9.94100000000000        6.31700000000000
H            4.17500000000000       -9.60000000000000        5.26000000000000
H            3.16100000000000      -10.06900000000000        6.68100000000000
H            4.74500000000000      -10.90900000000000        6.36900000000000
C           11.42400000000000       -7.40000000000000        4.64100000000000
H           11.72600000000000       -6.48600000000000        4.08600000000000
H           11.03200000000000       -8.14700000000000        3.91800000000000
H           12.31100000000000       -7.81100000000000        5.16800000000000
N            9.15200000000000       -6.51200000000000        5.26600000000000
H            8.89000000000000       -6.28000000000000        4.32900000000000
C           10.36700000000000       -7.05400000000000        5.63000000000000
C            8.40700000000000       -6.35400000000000        6.34500000000000
H            7.39900000000000       -5.94100000000000        6.34600000000000
N            9.09500000000000       -6.77800000000000        7.38900000000000
C           10.31800000000000       -7.23100000000000        6.97000000000000
H           11.04000000000000       -7.63800000000000        7.66700000000000
O            7.05600000000000       -7.50700000000000       11.48100000000000
H            7.25500000000000       -8.41900000000000       11.69500000000000
H            6.56000000000000       -6.95000000000000       11.96400000000000
78
 energy: -116.018166652887 gnorm: 0.109749673841 xtb: 6.7.1 (edcfbbe)
Fe           8.13474969826884       -7.07094767640751        9.47621194768244
N            8.75307088290926       -9.01950053282213        9.57451929777145
N            9.82319849458722       -6.53563890309838       10.53244537275361
N            7.50739286627118       -5.13002388988995        9.50304376758321
N            6.39088560556205       -7.65922366269595        8.52478240356148
C            8.11957652177725      -10.07764388347985        8.96720804597976
C            8.85584346659570      -11.29692245783417        9.27547780811208
C            9.90611995259914      -10.95410699244806       10.05850619699303
C            9.84019002180838       -9.51794996303794       10.25230297767222
C           10.80582405084680       -7.37336662569505       10.99148969863712
C           11.91967994433181       -6.58326846417859       11.48118085947555
C           11.57492938279328       -5.27588476022126       11.34010493635230
C           10.24647144964369       -5.25055043450651       10.75063814798738
C            8.21910014883150       -4.05690263627345        9.97487614051606
C            7.40686233831270       -2.85574133901398        9.86558819567366
C            6.20376697185166       -3.22316607299449        9.33400251576189
C            6.27953345693957       -4.66644654251640        9.10299072798968
C            5.38179044146369       -6.79732607232244        8.16204545029125
C            4.44416411931736       -7.48297261401196        7.31405162736600
C            4.92063642618328       -8.83132126019002        7.18307709515542
C            6.13964882975821       -8.89765631369115        7.97195421460109
C            6.96765129625033      -10.00695696767700        8.19343654246256
H            6.67917931301200      -10.93395060401078        7.70422848117760
C           10.74811395047799       -8.76156655885686       10.97483065962785
H           11.48842837170713       -9.29909496362749       11.56240113545036
C            9.51572434156576       -4.10754847733533       10.47382658682460
H           10.00667889648501       -3.15999516305424       10.67448868202768
C            5.28545841704719       -5.45273910035588        8.53991812730333
H            4.33161082120495       -4.96366483684606        8.36224953765081
C           10.96014399722077      -11.88398945536815       10.62957333265086
H           10.97453274780624      -12.82794021041116       10.07409996694338
H           10.74164566062783      -12.10875338990602       11.68093076729325
H           11.95676422985829      -11.43428715340884       10.56441143346816
C            8.51054827387002      -12.69306293432407        8.80160732562562
H            9.00991576288064      -12.90247706890543        7.84746865114892
H            7.43086565386891      -12.79409922938030        8.65934274730465
H            8.84151854478844      -13.43887872941831        9.53282965047986
C           13.20806683677171       -7.15141935378083       12.03884721853166
H           13.87216213257045       -7.47571480165747       11.22744893726003
H           13.00086191924130       -8.01759285312494       12.67643570508041
H           13.73017301566034       -6.38860320167750       12.62604001537660
C           12.40884488592776       -4.07251538794866       11.65774199881055
H           11.99552105749878       -3.27877807715842       12.28104299250333
C           13.64815945168052       -3.95691689513710       11.19260886898950
H           14.07574192699926       -4.72831274164879       10.56286883600961
H           14.26126687308765       -3.08697221772641       11.41246795452065
C            7.87200221079302       -1.48572160256766       10.32524680233033
H            8.38695397353258       -0.96433608795178        9.50793814136220
H            8.56974445844701       -1.57369313063068       11.16500490016215
H            7.01761267347925       -0.87709030077843       10.64025822903329
C            5.01975656736051       -2.36674285956057        8.98899047865682
H            4.03985459668388       -2.84498553994236        8.95121625672201
C            5.07471105620815       -1.06327447491802        8.70987949997867
H            6.01471533134451       -0.52675777957777        8.71148283231844
H            4.17981149655994       -0.49749754022036        8.45998531465468
C            3.21836377598648       -6.85124927290196        6.66925116940157
H            3.46814526993370       -5.90709180340554        6.16291540989206
H            2.44867258074763       -6.61987031439692        7.41941465158876
H            2.78002378871427       -7.52367412775525        5.92437888648504
C            4.22698986018713       -9.90478003959959        6.34416806529016
H            4.18161546043937       -9.59884760506220        5.28939165800024
H            3.19311841281355      -10.05915607924844        6.68226257236034
H            4.74271257789690      -10.87289026038944        6.38234188846962
C           11.42244867257749       -7.39628554780734        4.63795042273650
H           11.72904662032911       -6.50039703446314        4.08479954876994
H           11.04772122021775       -8.13774695398137        3.92232932183709
H           12.29450905104215       -7.80534989902520        5.15532177314543
N            9.16098940240995       -6.51402435687391        5.26112362702336
H            8.89567422309139       -6.27882369284220        4.31991196396123
C           10.36558717543839       -7.06015244052361        5.62698532666039
C            8.41509216202967       -6.36028355130439        6.36397679938682
H            7.41805662939168       -5.95065236939282        6.36222803782242
N            9.07858364952179       -6.78450617846217        7.41874999821818
C           10.29756324997448       -7.22557607840327        6.97824221015674
H           11.02041980067735       -7.62697024417789        7.66514063792487
O            7.07637694577618       -7.51365608598358       11.46016961166745
H            7.24837957097463       -8.42081666244998       11.70479116370424
H            6.54473408665822       -6.94070861532689       11.98150921784038
78
 energy: -116.036832349046 gnorm: 0.043400588520 xtb: 6.7.1 (edcfbbe)
Fe           8.14001107808316       -7.06901350105266        9.47732229303177
N            8.73902785515647       -9.01054349074673        9.56728705936663
N            9.82510832622778       -6.53130521043503       10.50755979869573
N            7.50079932826343       -5.13825071987625        9.51146726150839
N            6.41607010007460       -7.64314095018629        8.51476792948311
C            8.11566635074010      -10.06331353456878        8.96047256127554
C            8.84104726110739      -11.29248837668525        9.26305470864905
C            9.89336752893811      -10.94862257850035       10.06196202509552
C            9.81681152978987       -9.51036822912572       10.24186359287933
C           10.79590665359820       -7.35909181035208       10.98066424728210
C           11.91394817727835       -6.58522144891625       11.48776491445407
C           11.57478843565952       -5.26675257159056       11.32985932544771
C           10.24459915326398       -5.25833808900734       10.73721543373410
C            8.20681700165682       -4.06477047283601        9.96510778728100
C            7.40928706430444       -2.85682278177841        9.86035865027484
C            6.19480231827983       -3.22689979306875        9.32865452265222
C            6.28087928831409       -4.67576288316370        9.11579729498309
C            5.39937618060534       -6.81359203023069        8.15729353277068
C            4.45907058912372       -7.51824656238013        7.31730670635645
C            4.91298101904855       -8.78468243677836        7.19069216131595
C            6.14311712663937       -8.86236455007215        7.96378745391563
C            6.95779744471918       -9.98506714319387        8.18579983140285
H            6.65507375809728      -10.91425797604076        7.71530841131069
C           10.73932971920206       -8.75118327728139       10.95302997433629
H           11.49984135064988       -9.28942249887618       11.50870101016171
C            9.50647027590274       -4.11447994174014       10.46780074901366
H            9.98965476035725       -3.17132617426657       10.69075681276651
C            5.29728251639054       -5.46369927544069        8.52988949256071
H            4.35457858757332       -4.97213852124510        8.31674094803712
C           10.93985921294624      -11.86165544312373       10.62328300586647
H           10.96299649046171      -12.80162545169495       10.07625381082622
H           10.73875713221703      -12.09054609127610       11.67087823299753
H           11.93121770707367      -11.41857794844258       10.56249437680487
C            8.50372414161155      -12.67160044930341        8.79804330412903
H            8.99893156423534      -12.89118998233898        7.85139000157195
H            7.43364892242307      -12.78790050193533        8.65753262893084
H            8.83178289799387      -13.41321112284404        9.52377587167859
C           13.18473237239949       -7.14510244366623       12.03629259373075
H           13.84629172524799       -7.47052978492402       11.23201069424485
H           12.99305332296235       -8.00580985219003       12.67328272337150
H           13.71258923138774       -6.39135571127656       12.61612263382852
C           12.39518771597160       -4.10025287061710       11.63719983182261
H           11.96121778271625       -3.31648042956305       12.25046957792146
C           13.63841933925265       -3.96646167673816       11.19429728301284
H           14.08373972208851       -4.71829482553868       10.56692235853973
H           14.24648503017575       -3.10507430959446       11.41867873437236
C            7.86381845230391       -1.50814798169220       10.31644637010251
H            8.37847202619104       -0.97978369283812        9.51204234775843
H            8.55529850738926       -1.59066639228403       11.15176047920536
H            7.01962410098362       -0.90101278593879       10.63494777660818
C            5.05556601762160       -2.38977559517253        8.99692899841859
H            4.08760800348384       -2.87960569730198        8.96301958003290
C            5.09186799207923       -1.08911038323481        8.71599177959553
H            6.00984845143623       -0.53156349828507        8.69727842951757
H            4.20036704341699       -0.52923185381221        8.47603027155944
C            3.25055250009389       -6.88317575803232        6.68641612783887
H            3.50313016906895       -5.94383423696807        6.18769589998925
H            2.48421416492741       -6.64667262424814        7.42883914580478
H            2.80182310220947       -7.53944298567352        5.94481839987988
C            4.25275390348940       -9.86680370629234        6.37358973049224
H            4.20153172930709       -9.57874509130757        5.31998102505887
H            3.22523122999642      -10.03508451761111        6.70419844863526
H            4.77022014313291      -10.82354921270371        6.42027714261418
C           11.42079089665578       -7.39410487616378        4.64178030299300
H           11.72685004393938       -6.50698867477852        4.08975568479761
H           11.05658839471905       -8.13099192413389        3.92729525683710
H           12.28589390215344       -7.80248377487694        5.15154723516487
N            9.16398455780934       -6.51546391473953        5.26467012692324
H            8.89535455563981       -6.27651968396499        4.32288356703014
C           10.36261928511481       -7.06660236100709        5.63192642873199
C            8.41952823385682       -6.36644748453106        6.38294963821710
H            7.43019933783423       -5.95703538384208        6.38129390727121
N            9.06841729048724       -6.78887070739388        7.44027535453500
C           10.28111766269200       -7.22546194529769        6.98831743500267
H           11.00737884272400       -7.62281033953084        7.66688344467516
O            7.10710524367445       -7.50558781736004       11.44299614169136
H            7.22766431193041       -8.41414807431973       11.72481030265481
H            6.54143481342780       -6.94944130015984       11.98013906667022
78
 energy: -116.043198493148 gnorm: 0.023884765478 xtb: 6.7.1 (edcfbbe)
Fe           8.13955453015760       -7.06865155839375        9.47787084947666
N            8.73140640761305       -8.99967124569005        9.55209083167699
N            9.82467522868834       -6.53169033484827       10.47777677129857
N            7.50469139582081       -5.14710615762297        9.51358073071933
N            6.43860798105416       -7.62816933418405        8.50372486558317
C            8.11116005400661      -10.05227446115872        8.95088669457849
C            8.82673217215234      -11.28113702266272        9.25465824507194
C            9.87740954056752      -10.93649168850920       10.05458820432580
C            9.80516177995823       -9.50049219887299       10.22473348715875
C           10.79039737181817       -7.35787813802194       10.95612814609754
C           11.90362107999552       -6.59053611522557       11.47357689070611
C           11.56883148527971       -5.27285794298582       11.30853735711211
C           10.24212670088131       -5.26322576186242       10.71645355203853
C            8.20920799591317       -4.07367996571002        9.96188687715640
C            7.42005204057269       -2.86782136010450        9.85495703076287
C            6.20654066775015       -3.23891806809090        9.32502394741269
C            6.29045363215997       -4.68303307692009        9.11765738834364
C            5.41889561651582       -6.80226562663723        8.15702138816912
C            4.46767259616380       -7.50817436529409        7.32925402939415
C            4.93423945949082       -8.77919324187045        7.19306363126264
C            6.16531311219151       -8.84742880384910        7.96010802114798
C            6.95648221144906       -9.97483217121791        8.17906111088587
H            6.63221582714784      -10.90308438756621        7.72360162450642
C           10.73830460106684       -8.74621274258819       10.92193243425572
H           11.52125509934167       -9.28493915961328       11.44464980373947
C            9.50495700390107       -4.11882270184674       10.46369143340277
H            9.97811022346201       -3.17711140072759       10.70948351129987
C            5.31080495212896       -5.45958819978043        8.51840247834324
H            4.38011567263647       -4.96343191174122        8.26349561369736
C           10.92303088238852      -11.83966473999242       10.62012522257462
H           10.94864536951488      -12.78051747436368       10.07553884925173
H           10.72590142715103      -12.06314815486575       11.66970335019777
H           11.91079492299165      -11.38916934214868       10.55612500597165
C            8.48749687720923      -12.65626285296272        8.78937113185847
H            8.98266284931940      -12.87703346798511        7.84271876056678
H            7.41739163073070      -12.77624613529605        8.64967001871120
H            8.81752857882462      -13.39397509264699        9.51777184874462
C           13.16612131958396       -7.14635192823371       12.03349202088675
H           13.82734532799862       -7.47637277278047       11.23091840140436
H           12.97365632644910       -8.00190109397523       12.67732715449626
H           13.69162055227937       -6.38671561522784       12.60787684111569
C           12.38123026882806       -4.11102008305625       11.61760965333649
H           11.92367200342589       -3.32924332496272       12.21538120034063
C           13.63382440220662       -3.97210502333452       11.20052102719648
H           14.09599829597586       -4.71672372179941       10.57499126735645
H           14.23305845282996       -3.10931585286316       11.43612036861941
C            7.86359835433740       -1.52271722761166       10.31327607711439
H            8.37610750276759       -0.98914058322573        9.51120206836015
H            8.55246838070070       -1.60756179862590       11.15012568629129
H            7.01269168834605       -0.92493752831203       10.63143456875865
C            5.07202521661740       -2.41176736510789        9.00146322975675
H            4.11181935454846       -2.91464880731598        8.97243993895170
C            5.09894052258189       -1.11055627923301        8.71992357727188
H            6.01264370289346       -0.54488851218969        8.67439164159669
H            4.20150580099391       -0.56033462977575        8.48968949040605
C            3.26113492413125       -6.89114954443443        6.70268346298145
H            3.52490375720670       -5.95813458855786        6.20384848044499
H            2.50294606663030       -6.66258122631483        7.45216864856073
H            2.82084374179094       -7.55832702232535        5.96710106383384
C            4.28052113601931       -9.86093409844444        6.39264994512880
H            4.22942652278582       -9.57095744850353        5.34134024525197
H            3.25768995619735      -10.02389871966984        6.73446639386661
H            4.81449926399504      -10.80419868422315        6.45723801228243
C           11.41569829232702       -7.39333323982495        4.65488101651491
H           11.72046140281285       -6.50480451049977        4.10401353037086
H           11.05686220379181       -8.12852127612299        3.93545782735841
H           12.28273465307352       -7.80208645654690        5.16085633676618
N            9.15935266239955       -6.51712466520632        5.28203374025079
H            8.89045433880375       -6.27362554887750        4.34144361148622
C           10.35707645500801       -7.07235061427774        5.64814121083805
C            8.41682435925607       -6.37007255218383        6.40367971709364
H            7.42981631501910       -5.95693800215867        6.40566769028867
N            9.06327338349071       -6.79706919032300        7.45866143873859
C           10.27367141293098       -7.23329385709465        7.00451292351921
H           11.00185257169866       -7.62998487338094        7.68042556496803
O            7.14940806369122       -7.48842508055318       11.45884546342807
H            7.19415401445495       -8.41121552818628       11.73922938025482
H            6.52861805110535       -6.95593472080112       11.96854894501146
78
 energy: -116.046639184762 gnorm: 0.044818145078 xtb: 6.7.1 (edcfbbe)
Fe           8.14977572206283       -7.06682525311126        9.46590232696110
N            8.72306619221695       -8.98563399682034        9.53314177882380
N            9.82219497740630       -6.53450782794602       10.44055573115789
N            7.51365648562938       -5.16034076764709        9.51389567405896
N            6.46470670964006       -7.61221556640178        8.51226924699126
C            8.10453661954819      -10.04122682329296        8.94117565682816
C            8.80998043691629      -11.26817477939151        9.24522527503670
C            9.86083762887803      -10.92240915506820       10.04079216333253
C            9.79631726899018       -9.48897868402530       10.19963980596952
C           10.78719134989847       -7.35949250567575       10.91945603890790
C           11.89418848404278       -6.59765407742588       11.44628884413722
C           11.56284221235880       -5.28223026691207       11.27992337876327
C           10.23996951610077       -5.26970305796672       10.68935214749847
C            8.21532892907268       -4.08501758696147        9.96040727287784
C            7.43410537485481       -2.88241335928451        9.84885525974430
C            6.22366986539401       -3.25425485777664        9.31753684386395
C            6.30605580260594       -4.69125981440848        9.11318809985318
C            5.44544966522709       -6.78909666266168        8.15999402641982
C            4.48919894663868       -7.49613368927759        7.34112513952361
C            4.95891827763298       -8.77100882655703        7.21008963770561
C            6.19083361870465       -8.82979874412872        7.96821129555107
C            6.95277919229899       -9.96564822436145        8.17484688155620
H            6.60698333085048      -10.88698989411818        7.72614940510024
C           10.74520157004918       -8.74232356486437       10.87564212756977
H           11.54570848301065       -9.27968762098144       11.36718528492460
C            9.50630790137657       -4.12317793450101       10.46007178026377
H            9.97017209218941       -3.18371873367339       10.72461124633623
C            5.33015760769718       -5.45155942166908        8.49537228116977
H            4.41344993079429       -4.95386855779950        8.20266122372692
C           10.90648711968733      -11.81594146771567       10.61571809322381
H           10.93486214665409      -12.76168856877702       10.07904884838974
H           10.70972009398189      -12.02666035008440       11.66868665663237
H           11.89109033096320      -11.35697752763639       10.54603203996959
C            8.46373728157783      -12.64084037212814        8.77845382919917
H            8.95531612709887      -12.85941381388871        7.82846234139492
H            7.39195609595077      -12.75861237871174        8.64125202169041
H            8.79609332507174      -13.37882319272436        9.50654668240291
C           13.14787366060876       -7.15150131458559       12.02578753699018
H           13.81412386204574       -7.49365073235178       11.23130748558166
H           12.94564635736187       -7.99721209439381       12.68120151162974
H           13.66800624921461       -6.38266821401467       12.59461503726829
C           12.36569254565470       -4.11637273741975       11.59501123863972
H           11.88165387871601       -3.33333691725280       12.17078607169023
C           13.62806428260834       -3.97337922132483       11.20876944143607
H           14.11656632364869       -4.72148724268779       10.60465919047205
H           14.21558994098505       -3.10642460498777       11.45886841189423
C            7.86585128173298       -1.53655600167552       10.31149906692647
H            8.37604763471914       -0.99505371713750        9.51270524696721
H            8.55195794973294       -1.61978728819530       11.15183259079214
H            7.00420409072893       -0.95052057239130       10.62620783163824
C            5.08291664611300       -2.43574020693170        8.99881114518273
H            4.12744315423962       -2.94811666039251        8.99161142217440
C            5.10230517686199       -1.13550933969350        8.71090880531319
H            6.01070044180038       -0.56242573325378        8.65651405067019
H            4.19466850564679       -0.59313872105566        8.50417031223948
C            3.27525540190792       -6.89769844885040        6.72218595325338
H            3.53175001474087       -5.96824254046469        6.21604780674312
H            2.52128906559242       -6.67467802178016        7.47639294954152
H            2.83942984709535       -7.57796887658646        5.99495910984584
C            4.31488210283931       -9.85755600029099        6.41968134181393
H            4.26262017010146       -9.57707515239574        5.36621254431548
H            3.29460611534375      -10.02536022813641        6.76567171222541
H            4.86394958554730      -10.78958993587680        6.49821787597946
C           11.40776201386228       -7.39334637581643        4.67645260962754
H           11.70867365442657       -6.49963786410953        4.12938244043079
H           11.05135651328119       -8.12638738652603        3.95178201597018
H           12.27833318712788       -7.80204170406433        5.17920575005440