79
 energy: -119.981823389164 gnorm: 0.145897272758 xtb: 6.7.1 (edcfbbe)
Fe          -5.59000000000000        5.79000000000000       -8.53900000000000
N           -5.33600000000000        7.51900000000000       -7.49000000000000
N           -4.88300000000000        4.76300000000000       -6.89300000000000
N           -5.45900000000000        4.07200000000000       -9.67900000000000
N           -5.93200000000000        6.84700000000000      -10.18800000000000
C           -5.60200000000000        8.79300000000000       -7.93700000000000
C           -5.51800000000000        9.75200000000000       -6.87700000000000
C           -5.16900000000000        9.02600000000000       -5.76000000000000
C           -5.06800000000000        7.64900000000000       -6.15000000000000
C           -4.67000000000000        5.24900000000000       -5.65200000000000
C           -4.29300000000000        4.20100000000000       -4.75700000000000
C           -4.28700000000000        3.05100000000000       -5.47800000000000
C           -4.66400000000000        3.42300000000000       -6.85600000000000
C           -5.10500000000000        2.84900000000000       -9.22000000000000
C           -5.03100000000000        1.90400000000000      -10.30400000000000
C           -5.39600000000000        2.63100000000000      -11.42600000000000
C           -5.66700000000000        3.97400000000000      -11.02100000000000
C           -6.15100000000000        6.38300000000000      -11.45300000000000
C           -6.43000000000000        7.47500000000000      -12.36900000000000
C           -6.36400000000000        8.61400000000000      -11.63900000000000
C           -6.09800000000000        8.20400000000000      -10.26700000000000
C           -5.94600000000000        9.11200000000000       -9.24100000000000
H           -6.10900000000000       10.16400000000000       -9.47400000000000
C           -4.76200000000000        6.59800000000000       -5.29000000000000
H           -4.57800000000000        6.84700000000000       -4.24500000000000
C           -4.76200000000000        2.52500000000000       -7.91500000000000
H           -4.55100000000000        1.47700000000000       -7.70100000000000
C           -6.06000000000000        5.04300000000000      -11.84600000000000
H           -6.31500000000000        4.80800000000000      -12.87900000000000
C           -4.95600000000000        9.56500000000000       -4.37700000000000
H           -5.78000000000000        9.22300000000000       -3.71500000000000
H           -4.95200000000000       10.67600000000000       -4.40300000000000
H           -3.99100000000000        9.19200000000000       -3.97300000000000
C           -5.76400000000000       11.25700000000000       -6.97300000000000
H           -6.50800000000000       11.46100000000000       -7.77300000000000
H           -4.81500000000000       11.77700000000000       -7.22200000000000
H           -6.16100000000000       11.63500000000000       -6.00700000000000
C           -3.95800000000000        4.42500000000000       -3.30800000000000
H           -4.65700000000000        5.17300000000000       -2.87700000000000
H           -2.91900000000000        4.80900000000000       -3.21800000000000
H           -4.06000000000000        3.47100000000000       -2.74700000000000
C           -3.91800000000000        1.70800000000000       -5.04800000000000
H           -4.44900000000000        0.85500000000000       -5.49500000000000
C           -2.98300000000000        1.41300000000000       -4.15000000000000
H           -2.40900000000000        2.21200000000000       -3.65900000000000
H           -2.77200000000000        0.36600000000000       -3.88700000000000
C           -4.68200000000000        0.46800000000000      -10.24100000000000
H           -4.99100000000000        0.05400000000000       -9.25700000000000
H           -3.58400000000000        0.34300000000000      -10.35600000000000
H           -5.21300000000000       -0.08300000000000      -11.04600000000000
C           -5.45900000000000        2.21300000000000      -12.85600000000000
H           -5.95400000000000        2.91500000000000      -13.53900000000000
C           -5.00400000000000        1.10400000000000      -13.45400000000000
H           -4.49000000000000        0.32600000000000      -12.87100000000000
H           -5.13900000000000        0.95800000000000      -14.53600000000000
C           -6.70200000000000        7.28300000000000      -13.84800000000000
H           -7.59700000000000        6.63800000000000      -13.98000000000000
H           -5.83000000000000        6.79200000000000      -14.32900000000000
H           -6.89400000000000        8.26800000000000      -14.32500000000000
C           -6.51600000000000       10.03600000000000      -12.14900000000000
H           -7.54500000000000       10.39800000000000      -11.93700000000000
H           -6.34400000000000       10.06200000000000      -13.24600000000000
H           -5.78800000000000       10.69900000000000      -11.63500000000000
C          -11.07400000000000        4.33300000000000       -7.74000000000000
H          -11.75900000000000        4.98100000000000       -8.32800000000000
H          -11.48200000000000        4.21600000000000       -6.71300000000000
H          -11.00200000000000        3.34100000000000       -8.23500000000000
N           -9.50900000000000        6.21800000000000       -7.11700000000000
H          -10.22300000000000        6.76400000000000       -6.67800000000000
C           -9.70600000000000        4.97200000000000       -7.67600000000000
C           -8.24700000000000        6.56000000000000       -7.25600000000000
H           -7.82000000000000        7.49000000000000       -6.88300000000000
N           -7.60700000000000        5.59900000000000       -7.91100000000000
C           -8.50700000000000        4.59900000000000       -8.19100000000000
H           -8.20900000000000        3.71100000000000       -8.73300000000000
H           -4.22600000000000        6.75100000000000       -9.32500000000000
O           -3.78400000000000        5.93000000000000       -9.08400000000000
O           -3.28300000000000        5.53500000000000      -10.36400000000000
H           -3.84600000000000        4.77300000000000      -10.53500000000000
79
 energy: -120.013428798995 gnorm: 0.065391833547 xtb: 6.7.1 (edcfbbe)
Fe          -5.55113225763125        5.77657605300502       -8.54180423284348
N           -5.36007330595836        7.52259818259299       -7.48828552212355
N           -4.91623084382304        4.75544492865301       -6.89846156834749
N           -5.50831436323297        4.06379916343966       -9.66941809424087
N           -5.97572559464849        6.84848309437675      -10.19078846036360
C           -5.61697011788797        8.78906002837725       -7.93733370298720
C           -5.51764431764906        9.74745777757387       -6.87062565704863
C           -5.17262317399337        9.02928188441657       -5.75756558135390
C           -5.08153912819199        7.64799163991069       -6.15574049798363
C           -4.68002059508639        5.25545389859021       -5.66248090921440
C           -4.28613778352248        4.20459395444971       -4.76071815190046
C           -4.27859394328901        3.04764104248898       -5.48627869651360
C           -4.68635989368037        3.41987454343025       -6.84777159560760
C           -5.11746690852654        2.84457798431868       -9.22182751955702
C           -5.05039470335580        1.91114863218670      -10.32074299145937
C           -5.40564635632794        2.62476711334442      -11.44987514042330
C           -5.69864427588943        3.96837555438587      -11.01768477193134
C           -6.17274909801756        6.36889433096708      -11.45273438413688
C           -6.43498189021058        7.45916141496677      -12.37309168947028
C           -6.37057303774229        8.60638171268159      -11.64737469627079
C           -6.09794127971295        8.20805440401117      -10.27955915044620
C           -5.94718922358395        9.10992884623248       -9.24568633747428
H           -6.10623365828251       10.15555650153208       -9.47442927471466
C           -4.77091809136050        6.59786705935309       -5.30425157060721
H           -4.57521418584932        6.84698219836538       -4.26754121341501
C           -4.77437714877706        2.53065494139557       -7.90906357910790
H           -4.54041130867112        1.49371618088945       -7.70060863189183
C           -6.07626475048248        5.03691720684402      -11.83538468005626
H           -6.29543123281925        4.81274272746529      -12.87104428979457
C           -4.95673062835302        9.55865539520433       -4.37818396709846
H           -5.76263412185656        9.22822780629646       -3.71220222952169
H           -4.94458341117466       10.65167463682649       -4.39135400800610
H           -4.00596152350111        9.20170154262017       -3.97166405333022
C           -5.76095285833601       11.23127522330629       -6.97450504182244
H           -6.49354438844244       11.45356844184490       -7.75649707369234
H           -4.83309105763507       11.76124639379201       -7.21631355030872
H           -6.14731534238715       11.62330986938520       -6.02922854776597
C           -3.96426447752991        4.42087580422390       -3.31596092428338
H           -4.64460939166314        5.15777578182862       -2.87705648011173
H           -2.94055392104153        4.79856800610036       -3.21130943186354
H           -4.05567956802295        3.48664782284142       -2.75479198258348
C           -3.92001869656191        1.70892817670238       -5.05207147554074
H           -4.45022925199331        0.87511022206276       -5.51130844995871
C           -2.98946012917522        1.41604101760135       -4.14811624840047
H           -2.40247968823862        2.19061220916264       -3.67150595923978
H           -2.77128097725070        0.38842736947913       -3.88360814477855
C           -4.68906336234847        0.47436332664497      -10.23502332917268
H           -4.98064839498612        0.05324964498709       -9.26734113173437
H           -3.60705413333795        0.33729754419866      -10.35443499321446
H           -5.20391018021747       -0.08602485336340      -11.01956072982582
C           -5.46827697094648        2.21171506991523      -12.85233735327970
H           -5.95484761229151        2.92270025167563      -13.51675443907007
C           -5.00571398061147        1.10839677186884      -13.43907934450644
H           -4.47899913650177        0.33933997022907      -12.89136468624673
H           -5.13330310648226        0.95667595146198      -14.50441820643896
C           -6.70048117881674        7.27929463182992      -13.83686183307023
H           -7.58256994578544        6.64701751365548      -13.98270010515069
H           -5.84580292171464        6.80027607976395      -14.32453130161227
H           -6.88730953916216        8.24344708246313      -14.31754662316989
C           -6.51921627854341       10.01865362400695      -12.13858012176103
H           -7.52919988374397       10.39467484935017      -11.93716589193123
H           -6.34738906129528       10.06219072481473      -13.21730027239883
H           -5.80180248443015       10.68338726544293      -11.64797438753640
C          -11.06395615431722        4.33909692243110       -7.73971907317669
H          -11.75288996366544        4.96567477092442       -8.31682526924626
H          -11.47566678467756        4.21312073811574       -6.73272134617914
H          -10.99783444326105        3.36183181369018       -8.22125097331888
N           -9.51929190434298        6.20909104993166       -7.11589514211707
H          -10.23519877097231        6.75619055806727       -6.66846371835076
C           -9.71217641089629        4.97782231897921       -7.68974957572011
C           -8.23589415138353        6.55078153219443       -7.27093771004167
H           -7.81260688767134        7.46752344070834       -6.90086682646943
N           -7.58387370593854        5.61032643102728       -7.92571653253669
C           -8.49380764568579        4.61999327957281       -8.19153490097383
H           -8.19810084003551        3.73404748851161       -8.72043002874336
H           -4.16321505488481        6.81309096675407       -9.31890399309026
O           -3.69801818013685        5.99365283035154       -9.07304482168217
O           -3.25110182710595        5.54101109029822      -10.36675662753757
H           -3.82558720244230        4.77146059997367      -10.52235855110471
79
 energy: -120.024204263803 gnorm: 0.033502152694 xtb: 6.7.1 (edcfbbe)
Fe          -5.53832189026363        5.76613368220688       -8.53564293786596
N           -5.37694753359220        7.52389825327410       -7.48721504344426
N           -4.94494743230612        4.75170330203547       -6.91200464724694
N           -5.53032369373391        4.06764193035018       -9.65547792313925
N           -5.99325966165012        6.84988219580734      -10.19202400505312
C           -5.63191056535578        8.78233642614212       -7.93908707206786
C           -5.52167144646615        9.74146946748878       -6.86613758823145
C           -5.17886837830461        9.02949161817642       -5.75538359105402
C           -5.09584450913694        7.64469218192920       -6.16097499105472
C           -4.69343824062298        5.26000383025705       -5.67783282839205
C           -4.28265485113575        4.20985594573171       -4.77139746793949
C           -4.27646442436785        3.04951772839974       -5.49911849869276
C           -4.70669106852132        3.41905484312910       -6.84635238718524
C           -5.13380881623177        2.84187157522438       -9.21946157481172
C           -5.06999523307072        1.91726669861152      -10.32654766229376
C           -5.42189200225403        2.62255521676107      -11.45740400342337
C           -5.72546280907387        3.96883910682872      -11.00372773846251
C           -6.19275044437334        6.35835345055999      -11.44712970456213
C           -6.44426691757251        7.44341111812847      -12.37389959364909
C           -6.37601014952367        8.59659504618866      -11.65356275312617
C           -6.10178815994236        8.20707064192342      -10.28814952742802
C           -5.95511942093061        9.10468491033239       -9.24795130520891
H           -6.10324345886020       10.14787413084614       -9.47617736471863
C           -4.78208229139690        6.59524270918315       -5.31744269725926
H           -4.56935512396639        6.84475384425604       -4.28803636259810
C           -4.79089612105070        2.53376860237250       -7.90557938002220
H           -4.52920601728509        1.50565464354905       -7.70329833515131
C           -6.09415385630736        5.03134728419221      -11.82023746322592
H           -6.27630392640625        4.81562424349952      -12.86249677907284
C           -4.95503945433343        9.54983927761965       -4.37723565366379
H           -5.75042802580699        9.22196439170667       -3.70883851085882
H           -4.93837097768633       10.63469838526871       -4.38348083426419
H           -4.00942594075653        9.19695950721181       -3.97552430830268
C           -5.75857092419176       11.21022607536181       -6.97649604002602
H           -6.48579762416006       11.43506078997354       -7.75114829486315
H           -4.83645433765460       11.73788228641217       -7.21752260480802
H           -6.13542871662246       11.60789725324332       -6.03791504375575
C           -3.96822401379460        4.41766254017404       -3.32922348993784
H           -4.64280357743753        5.14701881751369       -2.88751535474607
H           -2.95100479367209        4.79047503728211       -3.21173320967492
H           -4.05752323485323        3.48796569166209       -2.77624463338156
C           -3.92096064278865        1.71436467243776       -5.06591923863629
H           -4.45684709693768        0.89752060124968       -5.53398295713565
C           -2.99173241897913        1.42194015726736       -4.15961453260703
H           -2.39966646412125        2.17971521219064       -3.68268055549999
H           -2.78250730670609        0.40547642965181       -3.87840948510261
C           -4.69840994883556        0.47914861869131      -10.22618951217732
H           -4.97619820715202        0.06559212450137       -9.26092291632563
H           -3.62400306580880        0.34374434711618      -10.35333744697013
H           -5.20762262167689       -0.08952116509936      -10.99792769179161
C           -5.48155395639979        2.21848864167651      -12.84112909979091
H           -5.97415225655821        2.93019368338187      -13.49161392707257
C           -5.00138983143774        1.11939283599399      -13.41906229764053
H           -4.46647380985202        0.35303284981161      -12.89405599854879
H           -5.13093935120759        0.95740172557568      -14.47471237195641
C           -6.70305861537972        7.27146307159242      -13.82912100912898
H           -7.57826134209375        6.64459174915877      -13.98618920232585
H           -5.85376101532333        6.79913113229234      -14.31799419492390
H           -6.88262570626205        8.22936120956231      -14.30634461387000
C           -6.52173863110419       10.00094706032767      -12.13370702150877
H           -7.52184942618071       10.38152871543942      -11.92867690153737
H           -6.35339597355138       10.05518365360029      -13.20503920199666
H           -5.80563243807705       10.65884510245339      -11.64885288767077
C          -11.05041087593503        4.33919730471658       -7.74295941565337
H          -11.74503251577622        4.95531369984371       -8.31159302320970
H          -11.45548977881399        4.21279261530026       -6.74138831011847
H          -10.98481345584768        3.36785182920837       -8.21641513087546
N           -9.52257963767358        6.20518843911780       -7.11862077652757
H          -10.23638310854423        6.75256792210194       -6.66356362615196
C           -9.71217217985874        4.98170164291362       -7.70374771628289
C           -8.22683592975578        6.54511476000251       -7.28429322103050
H           -7.80501132111088        7.45491738626628       -6.91735517513849
N           -7.57344065733158        5.61557728684822       -7.93525104292213
C           -8.48483930737292        4.63419492505547       -8.19997279064799
H           -8.19258584766775        3.74865767681060       -8.72292101991768
H           -4.08295937892806        6.89305852686236       -9.30841397738566
O           -3.62483879334655        6.06156080061554       -9.06644955451021
O           -3.21217571896242        5.55359774411151      -10.35952755043036
H           -3.79490130196851        4.78092033053688      -10.50141540031612
79
 energy: -120.029323908515 gnorm: 0.030033300936 xtb: 6.7.1 (edcfbbe)
Fe          -5.53234663647803        5.76292103271593       -8.53023036253868
N           -5.39389705308896        7.52076240154679       -7.48509103013040
N           -4.96681240358860        4.75070106500254       -6.92267583269525
N           -5.53830806406056        4.07284354489529       -9.64320042170836
N           -6.00318403694248        6.84937844147361      -10.18979441002513
C           -5.64523502317395        8.77569808599582       -7.94047324580367
C           -5.53002193667965        9.73493854640255       -6.86423312526614
C           -5.18757389862166        9.02573869184260       -5.75409364375056
C           -5.11023324594699        7.64017741521474       -6.16281870706258
C           -4.70702345540042        5.26097476896581       -5.68926024804900
C           -4.28404843351207        4.21404819047191       -4.78313461284026
C           -4.27874698925356        3.05366251232681       -5.51068102415243
C           -4.72078264173494        3.41938661689426       -6.84911649108405
C           -5.14926503734005        2.83950896064005       -9.21427954409977
C           -5.09092953035744        1.91820438853728      -10.32090993824708
C           -5.44505079797794        2.62129739857584      -11.44966022120860
C           -5.74153086460209        3.97132977145000      -10.98879499438539
C           -6.20758778399753        6.35287723323775      -11.44050290617763
C           -6.45781922218628        7.43164512995975      -12.37171822160800
C           -6.38499936400534        8.58744314407590      -11.65559081191727
C           -6.10933176701416        8.20364709850555      -10.29089403815138
C           -5.96267304754473        9.10037608889582       -9.24878634766596
H           -6.10370644336914       10.14399394585721       -9.47769220442840
C           -4.79151399025840        6.59192752153440       -5.32388622392935
H           -4.56333197124971        6.84146404291612       -4.29898883567252
C           -4.80204328364055        2.53277929667267       -7.90449564952941
H           -4.52187217164865        1.50966253426312       -7.70489650024007
C           -6.10391176896860        5.02729904480116      -11.80991777696687
H           -6.26726748005077        4.81429664507757      -12.85498497947552
C           -4.95209824513509        9.53874023585434       -4.37549210290773
H           -5.74110569652008        9.20850106786298       -3.70123032466179
H           -4.93217927824026       10.62352019196418       -4.37499217818478
H           -4.00376206888939        9.18239706524961       -3.98341782850643
C           -5.75752199679604       11.20035675050593       -6.98006392251508
H           -6.48585052205855       11.42515202164033       -7.75261338099970
H           -4.83228468215509       11.71988549926277       -7.22659162619716
H           -6.12589221493777       11.60388604280053       -6.04071867314328
C           -3.97209328203134        4.41511677460435       -3.34177766458054
H           -4.64799611274634        5.14082555839373       -2.89700613820475
H           -2.95509815151654        4.78538147415896       -3.21585948726711
H           -4.06293615836665        3.47989329066007       -2.79848878574862
C           -3.92689761073461        1.71940955044346       -5.07834461233649
H           -4.46507919056105        0.91198329873011       -5.55731929635607
C           -3.00335781735770        1.42580602654604       -4.16716101895004
H           -2.39300298219174        2.17687924924386       -3.70212460206458
H           -2.79360274391541        0.41021061630325       -3.88434916834267
C           -4.71241357258375        0.48075315095988      -10.21327535425001
H           -4.97487105367287        0.07754583606726       -9.24023853094200
H           -3.63926237468183        0.35257226965804      -10.35362551230598
H           -5.22711180886962       -0.09837816872106      -10.97352628744990
C           -5.50756862535419        2.22124967327594      -12.82867731782751
H           -6.00914653262086        2.92914968072175      -13.47490958878037
C           -5.00774045699045        1.12714493115522      -13.40089859918138
H           -4.43913382248823        0.37721816012749      -12.88578839793144
H           -5.12865718751870        0.96250686028539      -14.45705757860569
C           -6.70909374350845        7.26035657429292      -13.82650277608775
H           -7.58242688457601        6.63355191559970      -13.99320140182367
H           -5.85679505755825        6.79005091299207      -14.31296724256687
H           -6.88401681374196        8.21987102771241      -14.30140826119858
C           -6.52686678650794        9.98974576283926      -12.13205085593826
H           -7.52335807640529       10.37413288104548      -11.91776912779864
H           -6.36471719506062       10.04871886931991      -13.20380739774488
H           -5.80370083748104       10.64020376798398      -11.64801358445673
C          -11.03426252653746        4.33429789175147       -7.74777476262459
H          -11.73993898450649        4.94275349337159       -8.31154807342313
H          -11.43022483286406        4.20831067793110       -6.74249148575330
H          -10.96565062351324        3.36171962050421       -8.21775586204062
N           -9.51542866054314        6.20582649240098       -7.12748595399494
H          -10.22668242840286        6.75032122394957       -6.66488014337322
C           -9.70203145628269        4.98456017452748       -7.71871762491429
C           -8.21580707171189        6.54578833966067       -7.29607313168598
H           -7.79505082732003        7.45468846865697       -6.92822463270686
N           -7.56486066024655        5.62111407409622       -7.95086415452255
C           -8.47381370464461        4.64161798746324       -8.21659088007940
H           -8.18505704700494        3.75537220596152       -8.73949781169129
H           -3.99045618648810        6.96957312944208       -9.29484020430390
O           -3.56296430896155        6.11778167262609       -9.06045292221117
O           -3.16176483781772        5.58090177708331      -10.34001056760779
H           -3.75131791668841        4.81005039228344      -10.47272081440123
79
 energy: -120.033591021263 gnorm: 0.023309335064 xtb: 6.7.1 (edcfbbe)
Fe          -5.53916411164271        5.76456766427725       -8.52314206552905
N           -5.40715530204000        7.51445055150221       -7.48436517480713
N           -4.98420057997896        4.75305426895102       -6.93261196407861
N           -5.53499277581380        4.08179005216028       -9.63256375503497
N           -6.00931374354005        6.84757803357199      -10.18593716932593
C           -5.65665100430716        8.76878794786592       -7.94215085743665
C           -5.53923655189250        9.72827651670725       -6.86429923502443
C           -5.19698302387787        9.02039086328275       -5.75416167074278
C           -5.12302185003890        7.63539422105061       -6.16387105522805
C           -4.71908048347028        5.26103727598890       -5.69867590040279
C           -4.28742729597576        4.21785287532449       -4.79531794194891
C           -4.28224999135401        3.05870469146268       -5.52289259545756
C           -4.73269512757762        3.42155066269091       -6.85407182553985
C           -5.16035626997338        2.83943415406640       -9.20910255231160
C           -5.11395571967299        1.91769463480117      -10.31150419010003
C           -5.46933362135978        2.62264930780677      -11.43658916696441
C           -5.75170836652715        3.97629005562394      -10.97376170438966
C           -6.21891801913557        6.34985850445881      -11.43379128466836
C           -6.47251373198395        7.42210483014269      -12.36845411461531
C           -6.39573348289015        8.57932893441016      -11.65604629164725
C           -6.11699408877749        8.19934083014098      -10.29140734109358
C           -5.96962080005045        9.09677027625702       -9.24912883962362
H           -6.10658342506754       10.14146826853282       -9.47842407588481
C           -4.79911984062931        6.58903573927523       -5.32666875115742
H           -4.55930266749612        6.83737922906459       -4.30490950433924
C           -4.80891790867160        2.53095197319641       -7.90487119015498
H           -4.51924910543607        1.51144212286531       -7.70474039718605
C           -6.10986691811798        5.02445698932518      -11.80246163451152
H           -6.26608111906421        4.81085633241911      -12.84679273605260
C           -4.94861897351200        9.52490709919423       -4.37444028656653
H           -5.73015000714421        9.18901652148930       -3.69227642314897
H           -4.92695699282408       10.61118012960239       -4.36465254985541
H           -3.99450982684606        9.16327406078040       -3.99617773463711
C           -5.75641788547040       11.19523442300641       -6.98535205910173
H           -6.48966416553331       11.42075709733814       -7.75458029487276
H           -4.82649616883239       11.70389352470790       -7.24275768675960
H           -6.11345322139670       11.60658985975330       -6.04359458003092
C           -3.97697128956554        4.41123986190861       -3.35371818128965
H           -4.65531174567977        5.13388037509508       -2.90473430573299
H           -2.95900954452197        4.77905387512799       -3.22038266770224
H           -4.07056951293082        3.46821818352113       -2.82076536479594
C           -3.92917451971377        1.72353481552667       -5.09709828696977
H           -4.47996910136146        0.92335618745613       -5.57456756675523
C           -3.00554112662531        1.42693384975457       -4.18836377591678
H           -2.39756593452383        2.17553732328542       -3.71530907884675
H           -2.81046789297815        0.41022991356792       -3.89098516619260
C           -4.73322798057118        0.48122885268747      -10.19927116801548
H           -4.97649825017340        0.08842895491249       -9.21552311299720
H           -3.66071664329837        0.35847428372088      -10.35698873057872
H           -5.25849574121184       -0.10844678941343      -10.94626343387331
C           -5.53193242341481        2.22536506512407      -12.81710419360895
H           -6.07015810824260        2.91190588315390      -13.45896681533816
C           -4.99839125555194        1.14335505284291      -13.38373574504249
H           -4.42035835518977        0.40528270760038      -12.86300198838857
H           -5.13420504578514        0.96054903394886      -14.43728958505571
C           -6.71771919482418        7.24712631827231      -13.82494435596602
H           -7.58940498562999        6.61800113443543      -13.99900652041841
H           -5.86003975447661        6.77743646222931      -14.30642626856173
H           -6.89053675738047        8.20819532093434      -14.30059311675967
C           -6.53527652059770        9.98222649738425      -12.13104513240503
H           -7.52815836870375       10.37195598214112      -11.90346127701703
H           -6.38425915003753       10.04295154685139      -13.20542061296801
H           -5.80100052569181       10.62571796284232      -11.65096074448267