87
 energy: -124.720512756620 gnorm: 0.000050262956 xtb: 6.7.1 (edcfbbe)
Fe          84.47889059520236       17.70718856576802       30.51611852363494
N           84.04994794634271       16.22762857261161       31.79737159066241
N           83.20428798791896       16.92160999933526       29.19126894731750
N           84.88992389333742       19.19076012651419       29.24553951419206
N           85.69976872904473       18.52314428813731       31.87994887169005
C           84.60530685968000       16.01593417863986       33.02114443101856
C           84.04161045959243       14.83751129709175       33.64166468111552
C           83.10543463947846       14.36340833901113       32.77630797946154
C           83.12683185094480       15.24491677800077       31.63040325976152
C           82.38210596281910       15.85638571821990       29.37716251052143
C           81.59461097571456       15.60644688824978       28.18992735326169
C           81.97424126523369       16.54035780640002       27.27732786474877
C           82.97347243453865       17.35965019969851       27.92751075430854
C           84.45069295451921       19.31585363321333       27.96959891431172
C           85.00713750481556       20.50432495162998       27.35011450752822
C           85.77357402955826       21.10564799060195       28.31181215066699
C           85.68864361993812       20.26526615295390       29.47975770707015
C           86.35135551643700       19.70879904820796       31.77688531966138
C           87.12380447627655       19.97425760675456       32.97460489750505
C           86.91067763520792       18.90655312802869       33.80620419223810
C           86.01423352393206       18.02386718627719       33.10660016773912
C           85.53522916005157       16.83433855295703       33.63212504179542
H           85.89174663233716       16.53938622448153       34.60743672569791
C           82.32664824933335       15.07574988432112       30.51593928340701
H           81.62441869031582       14.25635647288415       30.52635476071066
C           83.57520758568917       18.45406874700916       27.33582973143637
H           83.31558428971425       18.66698052316304       26.31025217913045
C           86.35695120082417       20.52499574211099       30.66182670217973
H           86.95772397159807       21.42055837422474       30.70622716781618
C           84.44585726598153       14.31426568371541       34.97763594987011
H           84.22012416075933       15.03972280831243       35.76033686660622
H           85.51709262652722       14.11301697263347       35.00375029183844
H           83.91892807754144       13.39115869951043       35.20648764072907
C           82.21160264318921       13.17838224226463       32.90892159157686
H           82.40028022618449       12.46342623063376       32.10745847244475
H           81.16547222000477       13.48000430162441       32.85223650995422
H           82.37189288422863       12.67658002587506       33.86015973800272
C           87.41608044136157       18.69719575251315       35.19131690068155
H           88.27838638210096       18.02808968924662       35.19431657440841
H           86.64619154311137       18.25551456389568       35.82271606745675
H           87.71883252909217       19.64793292187418       35.62549081907466
C           87.92435809015862       21.15841649900607       33.19314025812037
H           87.54454674890003       22.06907713008810       32.74411739462811
C           89.06268791937929       21.20366532740973       33.87760983441106
H           89.51084018222457       20.32256292750828       34.30265994396554
H           89.60258243867628       22.12613691866434       34.01309896050372
C           86.50913404481568       22.39772075383555       28.23695228122480
H           87.57167349680319       22.23008119440404       28.05353184782502
H           86.41190197976289       22.95139361186587       29.16979125410967
H           86.11232164207956       23.00703221927303       27.42740350132150
C           84.73669594973414       20.93319070782501       25.99585669561393
H           83.75040761428302       20.69318591241835       25.61535727698235
C           85.59137663633693       21.57347215401473       25.20463344950497
H           86.59927647793374       21.79379948454357       25.50974079716943
H           85.31785854830665       21.87503490444990       24.20699772029928
C           81.49793577842031       16.74559803287379       25.88038244770017
H           82.33229251548654       16.69279537926207       25.18088871898561
H           81.02933905908117       17.72454138094026       25.77398321442639
H           80.77027184094933       15.98645875120129       25.60386633699955
C           80.59178069665003       14.51138061858948       28.06136423341975
H           80.10723332199674       14.54313485168381       27.08860660387049
H           79.82444264568473       14.60271895106057       28.83035187634817
H           81.06901380072661       13.53726599196995       28.17472776732230
C           80.03334048143688       20.98645236262231       31.21952241354908
H           80.18003067946060       21.94991768693215       31.70759964815568
H           79.12418944530067       20.53697213433986       31.61897731793673
H           79.90089546387004       21.15229260889929       30.15503181418512
N           81.61520262821603       19.72328019871658       32.69396871145955
H           81.18679388468603       19.99925708164557       33.56226323419327
C           81.20277604423507       20.09909006653227       31.44216247804368
C           82.69516995118666       18.92362206244964       32.54604480605307
H           83.22947838166064       18.47990098058370       33.36053229993457
N           82.99068535257967       18.77082764202181       31.27884470653353
C           82.07175284729085       19.49523318516609       30.57934813736088
H           82.09813288662309       19.53283114971149       29.51034699840067
C           88.63717054414481       17.42439522333370       30.38615190615113
H           89.48168687960313       17.33699811850549       31.06685384780832
H           88.13583315879018       18.36975982805007       30.57353590315552
H           89.00741583135502       17.42738299253011       29.36379534427960
C           87.67651129941835       16.27025448064865       30.59531704539891
H           87.30617517063779       16.24344161398393       31.61906656651502
H           88.15153779939575       15.32057369662249       30.34750236836974
S           86.22819369411619       16.44506483303732       29.47585657361806
C           85.69260752497399       14.70747006694643       29.49749476115791
H           85.51766711637849       14.38773297550970       30.51966167826947
H           86.45496188791616       14.09502228389301       29.02304219616476
H           84.76701597781043       14.65632615590253       28.93492367540741
