87
 energy: -128.467559165406 gnorm: 0.000044993795 xtb: 6.7.1 (edcfbbe)
Fe          17.76218398822183       56.30522647094612       35.97728664589527
N           17.45183352633868       58.28134530390329       35.88189365103527
N           15.88368271768410       55.97723466120646       35.36262671877713
N           18.09048678838444       54.32762174145441       36.03961685210899
N           19.62788779174884       56.63284319833635       36.62703544245586
C           18.32202318748455       59.26274764467875       36.22910353781032
C           17.74350527953814       60.56802192181424       35.99101508482381
C           16.50190400369705       60.34766668929119       35.48345369894131
C           16.33537531812272       58.91074605642284       35.42993065296553
C           14.96802606237301       56.91694585989926       35.00812554989530
C           13.71791572911604       56.30116652828965       34.64959753594741
C           13.88332227591670       54.95371145996554       34.83079716316076
C           15.26093845408490       54.77582066299465       35.24936370589552
C           17.20003198995870       53.34539606485146       35.73077314679337
C           17.81282974437672       52.04694265070110       35.83630080034186
C           19.10872421356078       52.26371233470382       36.22854672307512
C           19.25500639043803       53.70196767863573       36.34203815761900
C           20.57081611543915       55.69591545234430       36.90574192478927
C           21.78532532550819       56.31969850018194       37.38487244266177
C           21.54929478131797       57.65888184692040       37.38943100908403
C           20.19686407967934       57.83384375125543       36.90628924524520
C           19.59683999739955       59.06692545594361       36.72863877312643
H           20.17420005744008       59.94378415971590       36.98093787581143
C           15.17773734049080       58.28679310924400       35.00929836187466
H           14.36266917150663       58.91403155037360       34.68021235556159
C           15.87454511766877       53.54505382938866       35.38226067990568
H           15.27518009608462       52.67115609699847       35.17858201482142
C           20.41448888513496       54.33000556518927       36.76203320257682
H           21.26078485247936       53.70609864617194       37.00775901466075
C           15.46681711434890       61.33164694527829       35.05581825273687
H           15.83058163222732       62.35021949458249       35.16820999336950
H           14.56218506735239       61.22316827481490       35.65519273782345
H           15.19920501750099       61.17631980034214       34.01036073137837
C           18.43613946710729       61.85892698389380       36.26722326036001
H           18.70312199816828       61.93243705433103       37.32179731111913
H           17.79768524860424       62.70273691722495       36.01656537566797
H           19.35249294246657       61.93653797952509       35.68114396035172
C           12.49045842236681       57.03513042575623       34.23071674933052
H           12.70269589738252       57.68626435543629       33.38222281031494
H           12.11636998714411       57.65624659863237       35.04568146023916
H           11.70479746130570       56.33882371511312       33.94775959681112
C           12.88220984723261       53.92474077676109       34.64478092028957
H           12.19552269039078       54.08990112950780       33.82060647990059
C           12.71926674242205       52.85076432721821       35.40989232576151
H           13.33562740428662       52.66586138837953       36.27315264201135
H           11.94374102813899       52.12923990197550       35.21130787336286
C           17.15004829595763       50.75436971787320       35.50651876773748
H           16.46928581696705       50.87233613205936       34.66467827860130
H           16.57246820280546       50.38425802253428       36.35547310913350
H           17.89749912785748       50.00627527073375       35.24895391504842
C           20.16562279817691       51.30715510636583       36.46688381733193
H           21.16710777465324       51.65069819715513       36.23343202155714
C           20.00594655947704       50.07709169856123       36.94603535949042
H           19.04376804566513       49.69647368422502       37.24086413428783
H           20.84360693192462       49.41333293706564       37.08408477600569
C           23.01609484096099       55.57578581394257       37.77802518930141
H           23.40596564935986       55.00718850635725       36.93321473455541
H           22.80156306080234       54.87479045557673       38.58537871704181
H           23.79101244836831       56.25981540740160       38.11580650256712
C           22.45167938929532       58.77609859115851       37.78970722717689
H           23.40727673461573       58.39524416615974       38.14222472696295
H           22.00099750582182       59.36549018658197       38.58862193089742
H           22.63870678302229       59.44033288346287       36.94526126117836
C           20.32782572146369       57.47986131750060       31.15071638576876
H           19.72038340698606       57.83126980517088       30.31654649076712
H           21.04518451420190       56.75395412286797       30.76762942997522
H           20.87291470404375       58.32292915962032       31.56359872113730
N           18.67181081744513       55.78946589995202       31.97081802034776
H           18.57712702257300       55.30569360303220       31.09304000523971
C           19.47627513633206       56.87418205524946       32.20589329049649
C           18.03785034711288       55.49234897990126       33.12788885928246
H           17.34294256327359       54.68597171975449       33.24147722022834
N           18.39143896986045       56.32110836086174       34.07883664023976
C           19.28512495275748       57.18654256479381       33.52113132101786
H           19.72729425103248       57.96987094896369       34.10081799422207
C           14.93953025527146       57.05927560988513       40.74391237261530
H           15.43354901870414       57.58761739584839       41.55947066363986
H           14.41643333241519       56.19935027113210       41.16245812184568
H           14.20990250451451       57.72300221469945       40.29063724182982
N           16.96788536051618       55.78849149031772       40.00675178741763
H           17.16881853479660       55.38634827361559       40.90753262251923
C           15.92482154288460       56.63007536436096       39.71905967004979
C           17.66746483936464       55.59921898155694       38.86494950314508
H           18.53971723817737       54.98318954294800       38.79031536431143
N           17.13193286024979       56.26850712014910       37.87436273255375
C           16.04769283573458       56.91487772488679       38.38949827051196
H           15.43308805491936       57.53683973513343       37.77249835346232
