69
 energy: -103.631211774844 gnorm: 0.000041824892 xtb: 6.7.1 (edcfbbe)
Fe          26.48794268826517       10.41507240760519        0.04798916294481
N           26.63160222344157       10.76145706450459       -1.90671501653196
N           25.29928398822641        8.84338368047739       -0.31462929124304
N           26.48288744786107        9.95023020185678        1.99427038343308
N           27.74265390464752       11.90902405425212        0.40159389081958
C           27.36773522749544       11.72620119521535       -2.52101935814318
C           27.19374785008443       11.67286225216945       -3.95547861404960
C           26.31463786479490       10.66440032202791       -4.19634673538110
C           25.97209034777186       10.10874566799454       -2.90579521086310
C           24.79688442571830        8.46127659516463       -1.52362939994761
C           23.94596890703066        7.30803213795017       -1.38931968049221
C           23.95420985858719        6.97480539253305       -0.06116757506090
C           24.80242891583734        7.95196827324654        0.58963742883446
C           25.87468603328788        8.88255180129628        2.59165456636635
C           26.10491773976633        8.88516374778264        4.01203847641432
C           26.85978199933545        9.99822092226836        4.27562308833786
C           27.09352541985963       10.63646520779164        2.99656721021765
C           28.13577375905324       12.37039093766751        1.61985408323689
C           28.97481253881798       13.54195732782735        1.48170851957130
C           29.08620043189005       13.77435496583084        0.14810601095826
C           28.30144336801867       12.75064919059519       -0.50825105975643
C           28.15195443316585       12.66240454650926       -1.87712897297160
H           28.66954969201709       13.38636241956177       -2.48663448802727
C           25.09966057230921        9.05429265017318       -2.73609173919379
H           24.64644900582498        8.63682482095641       -3.62135638537504
C           25.08432208108381        7.94790455512708        1.94274139037232
H           24.65749581140577        7.15715143689053        2.53965966156467
C           27.83201941629543       11.79273821569664        2.83461353404851
H           28.22172635605092       12.26561224902914        3.72231303620692
C           25.77430839477448       10.16970652596154       -5.49339696705932
H           26.18301816034847       10.73964206890062       -6.32374879970340
H           24.68810950011226       10.26070149657241       -5.51688357707992
H           26.02953393164664        9.12004995742990       -5.63880227421436
C           27.87502787735835       12.58379036043282       -4.91681685783525
H           28.95728389237509       12.50614924881116       -4.81491981578580
H           27.59057704331545       13.61943658015725       -4.72983155805120
H           27.60824161746740       12.33478616424138       -5.94072687787343
C           23.18152641119633        6.67550500963856       -2.49793471240878
H           23.81633237081536        5.99674174507178       -3.06936676192998
H           22.79519073854253        7.43121631537257       -3.18005788327971
H           22.34520051746725        6.10721366385173       -2.09635171286512
C           23.25951014976395        5.90405373120979        0.62065308585730
H           22.92674149381990        6.12533300291875        1.62829432414819
C           23.01596846772287        4.70144312590337        0.11133189870853
H           23.36466650250197        4.41159398272277       -0.86427725981432
H           22.47987943131056        3.95222449430262        0.66943358402839
C           25.64626673831578        7.82757700319330        4.95373654704260
H           25.73052332582474        6.84321488808716        4.49600244606095
H           24.60372639628945        7.98033933752979        5.23906028860558
H           26.25389358665413        7.84477746567844        5.85576372502478
C           27.37925067429928       10.46972988464757        5.54092387793041
H           28.34555832028017       10.95735916521379        5.49785255144337
C           26.76480133610719       10.35490431229298        6.71339322378022
H           25.78447913129923        9.92117451061106        6.80832782020713
H           27.21509143639386       10.71741059121381        7.62214501264443
C           29.57286997350733       14.28567021115281        2.62521495088345
H           30.24318381549620       13.64034066052189        3.19336255161919
H           28.79362919537962       14.64231543907967        3.29854020917087
H           30.14093350677420       15.14288927683157        2.27313746371415
C           29.83726349185400       14.84292180302191       -0.56775669850612
H           30.35519328628817       15.48891692726212        0.13644331775688
H           29.15835033135835       15.45538082398849       -1.16110974075044
H           30.57575938158938       14.40638292389685       -1.24021813251420
O           24.74791703422784       11.79303633979773        0.13532179004523
H           24.30966758118561       11.82257374454756       -0.72122148478319
H           24.08276293809065       11.45463974201303        0.78181108016472
O           23.30687238228295       10.53407476535047        1.98098710935874
H           23.59871025246033        9.64623048459750        1.73186420623950
H           23.79978707556956       10.76204798594132        2.77401313373195
