69
 energy: -103.279572571626 gnorm: 0.343495451178 xtb: 6.7.1 (edcfbbe)
Fe          26.66100000000000       10.29600000000000        0.14300000000000
N           26.62800000000000       10.78800000000000       -1.90500000000000
N           25.24100000000000        8.49600000000000       -0.37000000000000
N           26.52400000000000        9.78200000000000        2.09400000000000
N           27.89600000000000       12.01500000000000        0.48600000000000
C           27.44800000000000       11.84600000000000       -2.50400000000000
C           27.15600000000000       11.81100000000000       -3.92900000000000
C           26.13600000000000       10.78100000000000       -4.15900000000000
C           25.80900000000000       10.09400000000000       -2.89000000000000
C           24.65100000000000        8.13800000000000       -1.55600000000000
C           23.77199999999999        6.86700000000000       -1.40200000000000
C           23.89900000000000        6.42600000000000       -0.12400000000000
C           24.83400000000000        7.49800000000000        0.53600000000000
C           25.92599999999999        8.56000000000000        2.61900000000000
C           26.17200000000000        8.60600000000000        4.06800000000000
C           26.90000000000000        9.85500000000000        4.34700000000000
C           27.16000000000000       10.57800000000000        3.09000000000000
C           28.28600000000000       12.53500000000000        1.73500000000000
C           29.21700000000000       13.83600000000000        1.57000000000000
C           29.32000000000000       14.07900000000000        0.24100000000000
C           28.51100000000000       12.94600000000000       -0.45900000000000
C           28.33900000000000       12.83700000000000       -1.84000000000000
H           28.89600000000000       13.52500000000000       -2.47600000000000
C           24.86600000000000        8.89900000000000       -2.73300000000000
H           24.30200000000000        8.60200000000000       -3.61700000000000
C           25.17900000000000        7.54100000000000        1.89100000000000
H           24.84200000000000        6.69300000000000        2.48700000000000
C           27.91200000000000       11.86700000000000        2.92000000000000
H           28.21200000000000       12.35700000000000        3.84500000000000
C           25.44000000000000       10.31300000000000       -5.48100000000000
H           25.83500000000000       10.90200000000000       -6.33600000000000
H           24.34400000000000       10.47700000000000       -5.40600000000000
H           25.65200000000000        9.23700000000000       -5.65600000000000
C           27.79200000000000       12.85500000000000       -4.95800000000000
H           28.90000000000000       12.77200000000000       -4.93400000000000
H           27.50200000000000       13.88800000000000       -4.67100000000000
H           27.43600000000000       12.63200000000000       -5.98700000000000
C           22.88800000000000        6.20600000000000       -2.54300000000000
H           23.33900000000000        5.23700000000000       -2.84700000000000
H           22.85100000000000        6.87900000000000       -3.42600000000000
H           21.86100000000000        6.02100000000000       -2.16200000000000
C           23.12500000000000        5.13200000000000        0.54600000000000
H           22.83000000000000        5.17600000000000        1.60500000000000
C           22.81200000000000        3.96100000000000       -0.15400000000000
H           23.08000000000000        3.85700000000000       -1.21600000000000
H           22.29400000000000        3.13100000000000        0.34900000000000
C           25.68900000000000        7.49100000000000        5.10000000000000
H           26.27600000000000        6.56100000000000        4.94300000000000
H           24.61300000000000        7.27000000000000        4.93700000000000
H           25.85000000000000        7.84700000000000        6.14000000000000
C           27.38000000000000       10.43100000000000        5.72900000000000
H           28.37500000000000       10.17600000000000        6.12300000000000
C           26.65000000000000       11.18300000000000        6.40400000000000
H           25.64900000000000       11.46000000000000        6.04300000000000
H           26.99800000000000       11.57900000000000        7.36900000000000
C           29.95200000000000       14.71700000000000        2.70300000000000
H           31.05000000000000       14.55700000000000        2.64300000000000
H           29.59700000000000       14.40700000000000        3.70900000000000
H           29.73600000000000       15.79400000000000        2.54000000000000
C           30.16900000000000       15.28800000000000       -0.46000000000000
H           31.13400000000000       15.42200000000000        0.07400000000000
H           29.59100000000000       16.23500000000000       -0.40200000000000
H           30.37700000000000       15.03400000000000       -1.52100000000000
O           25.17900000000000       11.24500000000000        0.28700000000000
H           24.98900000000000       11.57300000000000       -0.59200000000000
H           24.69800000000000       11.39500000000000        1.02000000000000
O           23.36600000000000       11.14900000000000        1.75100000000000
H           22.73200000000000       10.52300000000000        1.40200000000000
H           23.19800000000000       11.79700000000000        2.33600000000000
69
 energy: -103.400696085088 gnorm: 0.166037018166 xtb: 6.7.1 (edcfbbe)
Fe          26.71742854227270       10.26113141498879        0.11987110125273
N           26.63518573794569       10.78307659981335       -1.90139595877622
N           25.22619117697572        8.45209787802141       -0.36047068308789
N           26.54546699691056        9.77693022932644        2.07715659347170
N           27.92742740505398       12.06111477936488        0.48745002780506
C           27.41667724674831       11.81983646055225       -2.50711221782519
C           27.12606065095049       11.79898622883363       -3.92787950299094
C           26.14483731524042       10.78002440583254       -4.15056847277473
C           25.83891865183230       10.11211791489164       -2.87999366994473
C           24.65425980055610        8.14967108969201       -1.56228772908631
C           23.78716441989368        6.88534693894543       -1.40851535539284
C           23.90179247642754        6.44155581624456       -0.11481204837528
C           24.82450167092142        7.49646395626186        0.55571988679326
C           25.94262902538964        8.59883181785441        2.62173812429552
C           26.18543553219830        8.63453295113368        4.06531336566734
C           26.90814041850098        9.83959564123921        4.33842262971871
C           27.14278253026122       10.55741024336191        3.07903834892922
C           28.29363859123724       12.52159649507127        1.74093419770436
C           29.19653895976847       13.80608574254468        1.57476153680959
C           29.30773588708447       14.04304664751535        0.23600258166701
C           28.49839922703571       12.94314133529737       -0.46538079332553
C           28.29916923344380       12.79111503406834       -1.83732765226060
H           28.85720109791893       13.48908173918036       -2.47157693852064
C           24.90707178196557        8.94219329109017       -2.71091291741106
H           24.34350354127684        8.63386351062825       -3.59910684837792
C           25.19793590307483        7.57503637868771        1.90421086743049
H           24.85677941136864        6.72402316179668        2.49696293494079
C           27.89163533655043       11.83228659110210        2.90658759472038
H           28.19898206783007       12.32157106624430        3.83473287053505
C           25.46222878250338       10.33092683059315       -5.45772614778192
H           25.83296603420820       10.89740859287344       -6.32134158558767
H           24.37139467141377       10.47649652564332       -5.40040599207887
H           25.65225853456441        9.26268614151463       -5.64611823630668
C           27.76801571025685       12.81668964760793       -4.93177438907094
H           28.86962550502830       12.76074712172390       -4.92516099684201
H           27.49947644889223       13.85404487695097       -4.67058844072129
H           27.43635657278496       12.62928931855826       -5.96257003159053
C           22.91660336712409        6.23107754456133       -2.51991222449889
H           23.33963663298832        5.26520617359824       -2.83774971847733
H           22.85478951876484        6.87379438518096       -3.40735103005334
H           21.89302005815811        6.03301535984518       -2.16086356979289
C           23.16155265139306        5.16418027321733        0.50630482340688
H           22.85907650199202        5.20396746990585        1.56346720830175
C           22.83373483600612        4.01677604838213       -0.14541770107074
H           23.08158565115656        3.86541177010578       -1.19283678432542
H           22.31612159665489        3.18189616943515        0.34561277013610
C           25.70853767752985        7.53167770463130        5.06990915615703
H           26.26953816311527        6.59136970390872        4.93591943045873
H           24.64168921307157        7.28857894872013        4.93233281776662
H           25.85075261682846        7.85148012502974        6.11252390238452
C           27.37921549344752       10.39157339291878        5.69064759667374
H           28.37143096680864       10.15157840510117        6.08121811360431
C           26.63010456928777       11.19121739519098        6.40545765507213
H           25.64260508081822       11.47151537294215        6.05946647052063
H           26.98082948538861       11.58456099233302        7.35901299365307
C           29.91962702850574       14.67770249829379        2.67399053245975
H           31.01508938813848       14.54724025760595        2.63285524811538
H           29.59560270169798       14.40561137501917        3.68721027600185
H           29.72857168302495       15.75515088127664        2.53232919477889
C           30.13326490459840       15.23310520169969       -0.43795150707128
H           31.09831667922781       15.39995856036101        0.07090074215885
H           29.59128607882521       16.19420199746735       -0.39695045741261
H           30.36208993106396       15.02721229448968       -1.49421734309649
O           25.20974325133036       11.26976174453530        0.25599268873109
H           24.97521619392399       11.58858727556947       -0.61844050136084
H           24.67628911472208       11.40589289188970        1.02911258418514
O           23.35537937099418       11.13304439805295        1.76323370412158
H           22.71200872473525       10.52393967401784        1.41512783327468
H           23.15487797239143       11.81365929966330        2.37218904158567
69
 energy: -103.474984680387 gnorm: 0.086085071155 xtb: 6.7.1 (edcfbbe)
Fe          26.75241303877948       10.22293422097838        0.09725068473037
N           26.65637805687951       10.76500890258560       -1.90256503276954
N           25.21632091521430        8.42027602639479       -0.34635222184736
N           26.56719453143669        9.76866312615404        2.06330639591812
N           27.96164751455253       12.09167715598287        0.48494736660918
C           27.39133526736087       11.78901893621621       -2.49639366841899
C           27.10141793830833       11.78371474668645       -3.92259986065143
C           26.15270810474301       10.78189798511636       -4.13814375926358
C           25.86848747431696       10.12191599023638       -2.86076823589940
C           24.66749252036227        8.15964247546603       -1.56038475019612
C           23.80686602516755        6.91078930508603       -1.41649702131578
C           23.91286429011978        6.46037709321651       -0.11021510894543
C           24.82116018007047        7.49708905397608        0.56568081423422
C           25.96622852889165        8.63188488159603        2.61177688523465
C           26.20040951225529        8.66270841941803        4.05848384383369
C           26.90324367192017        9.83468840933181        4.32915215786059
C           27.14296316107759       10.53549903463508        3.05649357597353
C           28.29776741666421       12.51251557287280        1.73474592544405
C           29.17656957811217       13.76968297114360        1.57920339875264
C           29.28838180439579       14.00991614913452        0.22957936082853
C           28.49101835183924       12.92940567584654       -0.45795028812107
C           28.25487408341991       12.74250258173737       -1.82856260582699
H           28.80727081104470       13.44682333511974       -2.46549126921752
C           24.95715986622652        8.98347392148605       -2.68471593089880
H           24.39488974514339        8.67256450254217       -3.57687070136834
C           25.21908896067091        7.61047485116880        1.91328904829840
H           24.87299895687305        6.76452144281461        2.51174731515696
C           27.87761238872588       11.79344371010486        2.88607579931514
H           28.18391224800958       12.27781701010650        3.82000218469505
C           25.48403460490731       10.34773785643294       -5.42996325219587
H           25.84091740524737       10.90135579337414       -6.29710811560928
H           24.39685740550982       10.48190416460744       -5.38525912449592
H           25.65958242695817        9.28498737948423       -5.62898667103685
C           27.73847394436662       12.77602873971497       -4.90313089629277
H           28.83550722729722       12.73292668426541       -4.90291886399407
H           27.48588516623097       13.81624907911372       -4.65738657301478
H           27.42456784807174       12.61206236023591       -5.93569676491022
C           22.94993124758995        6.26135191791028       -2.49632009445471
H           23.35407219829746        5.29674160066503       -2.82266881740965
H           22.86649688527858        6.88295550973220       -3.38748190002948
H           21.93014536492156        6.05248433626724       -2.14650284816550
C           23.20140140214870        5.22525076956994        0.46873556158908
H           22.90351621743533        5.25505826857073        1.52617930590989
C           22.86543792401617        4.08593945436067       -0.14292432023355
H           23.08980760108246        3.87933207959132       -1.18012542206885
H           22.34692982655768        3.25161998663016        0.34430241133564
C           25.72993446864536        7.57716056432858        5.03742313979665
H           26.27477895259059        6.63131739438893        4.91504378300729
H           24.66941030607049        7.32158312443437        4.91312439141467
H           25.85966219809522        7.87392564909409        6.08151794672502
C           27.36166630615264       10.36875431900382        5.64894231800476
H           28.35110101306748       10.12806736359612        6.03544032807853
C           26.62032066037151       11.18750380048442        6.39240974463753
H           25.63918613288909       11.47654707095002        6.06797890760073
H           26.97431495776046       11.57584280313161        7.33736776069802
C           29.88269993439334       14.63053024862069        2.64325454072289
H           30.97692657824688       14.52136579859810        2.60990267982461
H           29.58091726844055       14.38803023137647        3.66298101965448
H           29.70552488054498       15.70767438412612        2.50952989446466
C           30.09301986310474       15.17082900740584       -0.41499972898991
H           31.05620389020896       15.35651872283521        0.08213343508059
H           29.57145274620909       16.13959650133223       -0.38140557230898
H           30.33470589991990       14.99830368355538       -1.46862529890725
O           25.23675767691065       11.32590459911178        0.23764521813920
H           24.93122711833358       11.61084483834280       -0.63217581352410
H           24.64527540298297       11.40877963327175        1.01721534343221
O           23.35169616797477       11.11822283043835        1.78895041307625
H           22.68742796585612       10.53426578118685        1.43526771348801
H           23.10554997273170       11.81751818270583        2.39310991881625
69
 energy: -103.520758574194 gnorm: 0.069189940940 xtb: 6.7.1 (edcfbbe)
Fe          26.75575059437415       10.19275530715057        0.07674973640251
N           26.67734101117077       10.73778697165337       -1.89119772356530
N           25.23565572211437        8.42410749271724       -0.33484577285082
N           26.59480606947304        9.75572436929409        2.03700535415851
N           27.97046650058984       12.07334067252109        0.48220181327259
C           27.38236799022633       11.76084556255163       -2.47588553789666
C           27.08402703878052       11.77166556219782       -3.90690091769595
C           26.15549788333518       10.77660824145925       -4.12190786419114
C           25.89373463196405       10.11197726961380       -2.83838955683931
C           24.69174474041472        8.17812208836593       -1.54927849111626
C           23.83836667334010        6.94722026909271       -1.42161889202110
C           23.93715594777701        6.49720899738122       -0.11111780264668
C           24.83001613457417        7.51401486401700        0.57128031148514
C           25.98415074872279        8.64948712482929        2.58926205796445
C           26.20693880097128        8.68295530236662        4.03930054607077
C           26.90351543796071        9.83977623433620        4.30678952994681
C           27.14803276350986       10.52800025074772        3.02448215640812
C           28.30241092550606       12.48589631687328        1.72520890012374
C           29.15122446763615       13.72714235941453        1.57819465783718
C           29.26664217223791       13.96847329109758        0.22494261503301
C           28.47837850540345       12.90165165158788       -0.45238480108721
C           28.22434512213594       12.70476715860353       -1.82321244034537
H           28.75476058698820       13.41229339212031       -2.46686466351493
C           24.99817368324161        9.00607745587707       -2.66472878781207
H           24.44543163366198        8.70718285036279       -3.56125029052492
C           25.23378281590599        7.63659018366812        1.91828335879671
H           24.88603757398886        6.80634919949297        2.53285854685819
C           27.87393162653213       11.76105786032391        2.87037948247821
H           28.17303142584447       12.23254185926010        3.80972696572289
C           25.49788785517046       10.35726712276571       -5.40799847540756
H           25.85742861609650       10.91463684936696       -6.26927502431052
H           24.41379820902494       10.49150050006152       -5.36350206146208
H           25.67317630845551        9.29806879109324       -5.60944995913460
C           27.71282918637771       12.74467101711017       -4.87885671934520
H           28.80624399351577       12.69399875199478       -4.87180807351806
H           27.46256036713752       13.78195671384563       -4.63363135118243
H           27.40129897617093       12.58162135733077       -5.90941790676470
C           22.98423839286054        6.29581405313029       -2.48161998794222
H           23.38567052401205        5.33203994141225       -2.80670592670697
H           22.88457823651338        6.90959019626360       -3.37433135132714
H           21.97164872027659        6.08082105649215       -2.11973248791894
C           23.25256705649787        5.29508587648181        0.44807080166370
H           22.96010094867196        5.33041042558590        1.50223125994462
C           22.89673032365367        4.15309683168546       -0.15013761033143
H           23.10933657827325        3.90656128684980       -1.18031824658088
H           22.37971236408648        3.33446821114456        0.35430733792581
C           25.74564909992565        7.61543640596565        5.00989845399628
H           26.29061205020822        6.67399131096586        4.88288647697488
H           24.68832137649696        7.36360531882634        4.88410974000802
H           25.87650786003319        7.91279408114601        6.05064427729285
C           27.34634734530619       10.36115645576323        5.61536447076942
H           28.33526102450102       10.10333069384897        5.98834718457520
C           26.61341875059751       11.17758179143210        6.37657736485916
H           25.62982076889969       11.48158068885602        6.06934990800900
H           26.97114390330064       11.56412854462249        7.31789850034146
C           29.84610240869227       14.58374417814084        2.62128648219973
H           30.93818522085702       14.47924217663645        2.57926920981357
H           29.55279737876271       14.35408449986433        3.64376791053278
H           29.66600592737468       15.65619169689951        2.47527363509640
C           30.05505283391562       15.11364043926158       -0.39873630148102
H           31.01163029947827       15.29515420201439        0.10536697856999
H           29.53169529180777       16.07793853120626       -0.35836116929481
H           30.29848117563950       14.95054756792350       -1.45015729924587
O           25.26042964416769       11.40501241950437        0.22949453077048
H           24.87549117224638       11.62437013395564       -0.64030907615878
H           24.61170881012877       11.41186887455596        0.99427450459203
O           23.34249550134363       11.10126247045971        1.82997447153035
H           22.65630981434716       10.54871905515727        1.45710836790825
H           23.05300645679273       11.81538932140118        2.41076467028816
69
 energy: -103.554726519832 gnorm: 0.055836770291 xtb: 6.7.1 (edcfbbe)
Fe          26.73442524295839       10.17813808246683        0.06219634595092
N           26.70104742795010       10.70032447612295       -1.87027206393176
N           25.27018952185083        8.45622191069238       -0.32630721381300
N           26.61598478197509        9.74768811894887        2.00229982800924
N           27.96952597908555       12.01697106725242        0.47733660029457
C           27.38081321726761       11.73611828258444       -2.45331025600815
C           27.07443853952144       11.75679346932235       -3.88479943988906
C           26.15720982074131       10.76555025503068       -4.10267997663071
C           25.91096106170498       10.09674522126956       -2.81753054829963
C           24.72548172133135        8.20094223448192       -1.53753455316100
C           23.88052926525694        6.99060306419769       -1.42354169425896
C           23.97391350782970        6.54420846109300       -0.11312653006279
C           24.85349557890742        7.54011727388848        0.57314379428792
C           26.00018822159639        8.65776431708594        2.56286652496782
C           26.21109558071297        8.69947906423085        4.01269791430429
C           26.90128996977059        9.85231587587853        4.27812434805140
C           27.16172757306202       10.52065436452389        2.99055269799721
C           28.29592930287479       12.44921054642869        1.71516799499938
C           29.12459025426913       13.67421064350657        1.57300770476133
C           29.23674871283010       13.91963507534696        0.22170490930777
C           28.46706831414762       12.85952270864402       -0.45214991782701
C           28.20675618131055       12.67669808714673       -1.82074975173077
H           28.70696835787997       13.39026768509320       -2.47091415317992
C           25.02594535494101        9.01430876000741       -2.65516164141737
H           24.48574415686856        8.72796424634210       -3.55470350151692
C           25.24757692277690        7.65341387776411        1.91915917711340
H           24.89366576615468        6.84446221725763        2.55254083253054
C           27.87713782978756       11.73314204229012        2.86025682571958
H           28.16659352504061       12.19163501695147        3.80379914103287
C           25.50557422383760       10.36032627564651       -5.38827629361348
H           25.87535102034859       10.92894577038325       -6.23829061520594
H           24.42408242927596       10.50035025081944       -5.34336907901946
H           25.68509061982790        9.30444828958266       -5.59376293386009
C           27.69260689337091       12.72127056334882       -4.85529642370965
H           28.78306500559850       12.65803763772471       -4.84222975733254
H           27.43904485034854       13.75482412386559       -4.60921746617427
H           27.37518321490299       12.54785217857245       -5.88132458330364
C           23.02209248100332        6.33575458386206       -2.47223039337478
H           23.42850914935775        5.37433005838588       -2.79434045305167
H           22.90710481257869        6.94739208448746       -3.36407216001761
H           22.01896802534174        6.11578703753956       -2.08910391141110
C           23.29393742611157        5.36275540252017        0.43961232936189
H           23.02173454577204        5.40496605608378        1.49362350235691
C           22.93358321134440        4.21822993456354       -0.15490179413785
H           23.13545430770415        3.95431233234168       -1.18033907369705
H           22.41453077467741        3.42187940492415        0.37183446717325
C           25.75651163056057        7.64649050430137        4.98404218840294
H           26.30723770404292        6.71167138560876        4.85096944455116
H           24.70034378297817        7.40254916394273        4.85653553137490
H           25.89524802418961        7.95651371471395        6.01866361034874
C           27.33494706946617       10.36461365536570        5.58735990948259
H           28.32368969123946       10.08180578511350        5.94264058510198
C           26.60959274311926       11.17082802673731        6.35696999718210
H           25.62098589965978       11.48546336661422        6.06546796537205
H           26.96739059429706       11.54767948702518        7.30203694776838
C           29.81036182442200       14.53586189690856        2.60545236368359
H           30.90019954886417       14.43122847709889        2.55205143924536
H           29.51863845142154       14.31109569335843        3.62795062320945
H           29.61901954254978       15.60184685460176        2.44153161523711
C           30.01785086109452       15.06009470955887       -0.38844578825752
H           30.96762778985882       15.22977084401045        0.12760307390287
H           29.48567350820485       16.01634172767292       -0.33594540579337
H           30.25968803342322       14.89865501262080       -1.43825020476901
O           25.25624865052142       11.47599649315474        0.22236515467621
H           24.82642928547043       11.64660158088459       -0.63671446800785
H           24.57496702676391       11.42373032627421        0.96347850700334
O           23.32908169876397       11.08503091895319        1.87493693466373
H           22.62378482093415       10.56521140806930        1.48076969751869
H           23.00552713634809       11.80835053690884        2.42714151951851
69
 energy: -103.579207161679 gnorm: 0.035864783193 xtb: 6.7.1 (edcfbbe)
Fe          26.70568665788548       10.18086484084372        0.05381939515286
N           26.70858368091296       10.67443309707948       -1.84543196276165
N           25.31432471452164        8.50106407793191       -0.32123616723592
N           26.63228025482167        9.74325321908714        1.96513258434719
N           27.95887484157354       11.95034081015960        0.46802402091983
C           27.38729290113948       11.70742204185103       -2.43461310816711
C           27.07027686727960       11.74110377924152       -3.86127823498361
C           26.15959068017233       10.75348182631466       -4.08436902003290
C           25.92895327757394       10.07896316253553       -2.80425373562060
C           24.75980593390338        8.22695548236097       -1.52737640155805
C           23.92443213113889        7.03513116399496       -1.42200109119208
C           24.01688926367508        6.59434871259395       -0.11313973250167
C           24.88306209801772        7.57397163396338        0.57130821512667
C           26.01401670101239        8.66323823885640        2.53898652463048
C           26.21475562063355        8.71299380071736        3.98529557033672
C           26.89971314816441        9.86308824632296        4.24897237959829
C           27.16615874569781       10.51585702099335        2.96248235663911
C           28.29521443363569       12.39947820233491        1.70227259718061
C           29.09515830783049       13.62166848653065        1.56505934374073
C           29.20889551976481       13.86446400033751        0.21736828327918
C           28.45779715012845       12.80899492690961       -0.45334050605189
C           28.20261659391553       12.65140579410983       -1.81839583406255
H           28.66796728869877       13.37965575457085       -2.47184239766454
C           25.04476152457867        9.01075031125710       -2.65693212032009
H           24.51205438497327        8.73211395706144       -3.55640312204565
C           25.25852396020430        7.66553039631903        1.91636374794018
H           24.89627918309684        6.87505002446351        2.56316603838843
C           27.88422613553068       11.71021214237368        2.85381042425555
H           28.16744328773152       12.15956510663704        3.79946527926284
C           25.50962982084160       10.35880726734082       -5.37059199698539
H           25.89083970945070       10.94089742027209       -6.20748777572914
H           24.42985085055456       10.50600053410336       -5.32549721174930
H           25.69335506867957        9.30573637391065       -5.58311898368338
C           27.67912619866209       12.70377558921881       -4.83251879697081