87
 energy: -128.389178139540 gnorm: 0.272866028335 xtb: 6.7.1 (edcfbbe)
Fe           2.65200000000000        8.85600000000000        8.71000000000000
N            4.14300000000000       10.23000000000000        8.79500000000000
N            1.37800000000000       10.40100000000000        8.81600000000000
N            1.16400000000000        7.58400000000000        8.51300000000000
N            3.97100000000000        7.40600000000000        8.45400000000000
C            5.50000000000000        9.98500000000000        8.68100000000000
C            6.23000000000000       11.23700000000000        8.79700000000000
C            5.32800000000000       12.21700000000000        8.89400000000000
C            4.01100000000000       11.61900000000000        8.90300000000000
C            1.66800000000000       11.74500000000000        8.90800000000000
C            0.41300000000000       12.48800000000000        8.94700000000000
C           -0.58600000000000       11.60500000000000        8.88400000000000
C            0.02500000000000       10.30100000000000        8.83500000000000
C           -0.16500000000000        7.89500000000000        8.66300000000000
C           -0.95600000000000        6.69400000000000        8.68700000000000
C           -0.11400000000000        5.66400000000000        8.56500000000000
C            1.24200000000000        6.18200000000000        8.43700000000000
C            3.68300000000000        6.03400000000000        8.29400000000000
C            4.94500000000000        5.33800000000000        8.17200000000000
C            5.92500000000000        6.23100000000000        8.23300000000000
C            5.34100000000000        7.54600000000000        8.40700000000000
C            6.02100000000000        8.71200000000000        8.56200000000000
H            7.10700000000000        8.63300000000000        8.59700000000000
C            2.87300000000000       12.35800000000000        8.97900000000000
H            2.93000000000000       13.43900000000000        9.09700000000000
C           -0.67400000000000        9.14600000000000        8.76400000000000
H           -1.76000000000000        9.23000000000000        8.79100000000000
C            2.41500000000000        5.47400000000000        8.26500000000000
H            2.33900000000000        4.40000000000000        8.09500000000000
C            5.58100000000000       13.72300000000000        9.00700000000000
H            6.67500000000000       13.91700000000000        8.99800000000000
H            5.15500000000000       14.10500000000000        9.95900000000000
H            5.11500000000000       14.24800000000000        8.14600000000000
C            7.74900000000000       11.41700000000000        8.71400000000000
H            8.21700000000000       10.47000000000000        8.37000000000000
H            8.15200000000000       11.67400000000000        9.71700000000000
H            7.99200000000000       12.22300000000000        7.98900000000000
C            0.33500000000000       14.03600000000000        9.03600000000000
H            0.13800000000000       14.45600000000000        8.02700000000000
H            1.29900000000000       14.43900000000000        9.41200000000000
H           -0.49200000000000       14.33200000000000        9.71700000000000
C           -2.09600000000000       11.82000000000000        8.87600000000000
H           -2.79000000000000       10.97800000000000        9.01000000000000
C           -2.60100000000000       13.07300000000000        8.70100000000000
H           -1.92800000000000       13.93200000000000        8.56500000000000
H           -3.68800000000000       13.24100000000000        8.69300000000000
C           -2.49800000000000        6.69100000000000        8.85700000000000
H           -2.97900000000000        6.92600000000000        7.88300000000000
H           -2.79500000000000        7.46100000000000        9.60100000000000
H           -2.83700000000000        5.68800000000000        9.19300000000000
C           -0.56600000000000        4.20600000000000        8.50900000000000
H           -1.64600000000000        4.03800000000000        8.59700000000000
C            0.11400000000000        3.13200000000000        8.37500000000000
H            1.20900000000000        3.17300000000000        8.27700000000000
H           -0.38700000000000        2.15300000000000        8.35500000000000
C            5.14300000000000        3.81600000000000        7.95800000000000
H            4.98900000000000        3.56900000000000        6.88600000000000
H            4.40500000000000        3.25200000000000        8.56700000000000
H            6.17500000000000        3.52700000000000        8.25000000000000
C            7.44700000000000        5.98700000000000        8.19200000000000
H            7.66100000000000        5.07900000000000        7.58800000000000
H            7.83000000000000        5.83200000000000        9.22300000000000
H            7.95400000000000        6.85800000000000        7.72500000000000
C            3.88600000000000        8.22900000000000        3.18900000000000
H            4.80100000000000        8.79100000000000        2.90300000000000
H            3.11300000000000        8.37500000000000        2.40400000000000
H            4.13900000000000        7.15100000000000        3.27700000000000
N            2.98800000000000       10.07200000000000        4.69600000000000
H            3.02500000000000       10.78100000000000        3.99200000000000
C            3.36900000000000        8.74600000000000        4.52200000000000
C            2.57600000000000       10.21500000000000        5.94300000000000
H            2.21700000000000       11.15200000000000        6.36700000000000
N            2.67400000000000        9.06200000000000        6.55900000000000
C            3.16200000000000        8.12400000000000        5.70600000000000
H            3.31800000000000        7.09900000000000        6.01700000000000
C            2.37500000000000        9.78400000000000       14.38500000000000
H            3.33800000000000        9.86200000000000       14.93300000000000
H            1.69000000000000        9.11900000000000       14.95300000000000
H            1.93000000000000       10.79800000000000       14.29300000000000
N            3.18700000000000        7.94300000000000       12.81200000000000
H            3.47100000000000        7.32400000000000       13.54400000000000
C            2.62400000000000        9.20300000000000       12.99700000000000
C            3.27300000000000        7.72300000000000       11.51100000000000
H            3.67500000000000        6.81200000000000       11.06800000000000
N            2.80200000000000        8.76600000000000       10.87000000000000
C            2.39100000000000        9.70700000000000       11.76000000000000
H            1.97000000000000       10.65000000000000       11.43500000000000
87
 energy: -128.441164973718 gnorm: 0.108340131940 xtb: 6.7.1 (edcfbbe)
Fe           2.65648275965299        8.87856684888183        8.68656619233828
N            4.15225463779410       10.24499719422162        8.77775289385220
N            1.36460616567674       10.41363945847602        8.82612352939553
N            1.16549590027096        7.56769382280809        8.55645827065161
N            3.96596097583539        7.39793850207213        8.46931809341672
C            5.49709420069089        9.98992871393703        8.69980635713610
C            6.24645767587408       11.23075002509303        8.78623847451746
C            5.33861281399841       12.22516804854774        8.89917715044577
C            4.03303358918243       11.61243022848305        8.90083816563029
C            1.63792919342514       11.75213767695561        8.91542699982600
C            0.40115586038452       12.51315290921811        8.95063185582922
C           -0.61704789132565       11.61658623014471        8.88922808227104
C            0.01170194635072       10.31261071799504        8.82688838796544
C           -0.16188343871266        7.87511183047464        8.67135240358236
C           -0.96819897304012        6.68420197206191        8.68727544467309
C           -0.11567793931646        5.63605387218560        8.55047875631911
C            1.23381006257730        6.18752882412846        8.44563482129925
C            3.69258007377942        6.04758048603003        8.29648272022586
C            4.94433079236172        5.32620359802058        8.16516391699136
C            5.94129542477585        6.23446726210853        8.23802751281214
C            5.32908984942482        7.53505114696513        8.42479006501837
C            6.02243722112402        8.71589953202110        8.57162739989596
H            7.10514928502004        8.63782881293631        8.58645624889332
C            2.87449678747114       12.34635361926977        8.97986545720574
H            2.94012133907385       13.42083374192739        9.08909296790508
C           -0.68833222197841        9.13973381071091        8.76109335580046
H           -1.76651968559522        9.21978950057524        8.78992229333307
C            2.42093436313940        5.49283010834019        8.27035641659761
H            2.35768849073900        4.42558709621633        8.10096354665253
C            5.58283401714909       13.71024371703731        9.00727787079813
H            6.65752238820415       13.91557766829176        8.99908762684711
H            5.16210004626195       14.10024477571315        9.94117867025593
H            5.12119646116756       14.23905490241123        8.16442277861964
C            7.74237724744924       11.40380964123770        8.71145626219122
H            8.21878049340061       10.48022183102837        8.37367383812866
H            8.14616158859567       11.66810667943630        9.69665439431542
H            7.99098367505552       12.20449185796585        8.00501982449420
C            0.34243358870026       14.02510156325645        9.03792315686588
H            0.14604018021374       14.45075672482029        8.04536187129333
H            1.28402544773840       14.43580243177316        9.40872360054674
H           -0.45775039361643       14.32930528186412        9.72022880549257
C           -2.07948912921670       11.84569155365768        8.87659435950126
H           -2.74974634473735       10.99719784575693        9.00786454787014
C           -2.60572816933002       13.06113249226350        8.69948335215976
H           -1.97321163359490       13.91968277656883        8.54406756600532
H           -3.67698947005064       13.22664298527068        8.69530264687818
C           -2.47762965833292        6.68814976911780        8.85316640398653
H           -2.96527150766206        6.92290691181399        7.89869000049325
H           -2.78363135413378        7.44018446963200        9.58869281942122
H           -2.83023443297539        5.70835158580852        9.18792098498281
C           -0.56983950562547        4.22553132157093        8.50921327626997
H           -1.64627835215709        4.08204923493652        8.59867636288743
C            0.12756592580500        3.11645981672431        8.37454255605412
H            1.20305642721373        3.13145165325621        8.27769820325692
H           -0.36622533750334        2.15192848551381        8.35295326246918
C            5.12934584459505        3.83244755887497        7.95968640159176
H            4.98524151950225        3.57396341195585        6.90352393348793
H            4.41362048059736        3.26117156546234        8.55854726722465
H            6.14391511561143        3.53627568798270        8.24764863099674
C            7.43406821844665        5.98844644874517        8.18853865609414
H            7.65832880467737        5.09531568634576        7.59608111646098
H            7.82440384455561        5.83819659017527        9.20271080030021
H            7.94682589347340        6.84117382975573        7.73422925207681
C            3.88463412863668        8.23656859159269        3.19206814398724
H            4.78938826487089        8.78264707781526        2.90128688590881
H            3.12770394187736        8.36932987131528        2.41075830590089
H            4.12983671285016        7.17444524769815        3.27804774308060
N            2.99332571105434       10.06315357696795        4.67838064146043
H            3.03019842315618       10.77816309817440        3.97398337500822
C            3.37008781238832        8.74755343808539        4.50328518618037
C            2.57964045227942       10.20564857840490        5.94499632893527
H            2.22411377843773       11.13272705588065        6.36455969564284
N            2.67400855785951        9.06426764600163        6.57782233338142
C            3.15643944542648        8.13856310987027        5.70238965073775
H            3.31268271921262        7.12015625633931        6.00792357989561
C            2.38131423616000        9.77642170870804       14.37617939427215
H            3.32437592079194        9.86092934781346       14.92834778675612
H            1.70110849448625        9.13232521034894       14.94537710702224
H            1.93845677379364       10.77267927615153       14.28893832046551
N            3.18200107229545        7.95433061612186       12.82480545370071
H            3.46990947751968        7.33116592210880       13.55895856394198
C            2.62526840748316        9.20362642574105       13.00861837877977
C            3.26305639695551        7.73108244458170       11.50422728690963
H            3.66447586142123        6.83045467912025       11.06865140056180
N            2.78732538862329        8.75646732139514       10.84131488242170
C            2.39399063433039        9.69028590436328       11.75516919535972
H            1.97779620995721       10.62928324856868       11.43803147889018
87
 energy: -128.453918790832 gnorm: 0.018387215702 xtb: 6.7.1 (edcfbbe)
Fe           2.65583602851270        8.89409177067285        8.67640407443230
N            4.15898789103919       10.25303005159750        8.76667206408898
N            1.34930096824870       10.42448538160260        8.82581434584621
N            1.16122154148065        7.55449661641674        8.58395496183535
N            3.96860168803745        7.39833061713478        8.48271880309440
C            5.49335358767904        9.99044821419908        8.70519582790950
C            6.25649814762417       11.22151325358096        8.77958244135184
C            5.34654354240855       12.22599385058560        8.90222221477075
C            4.04753846999763       11.60255050175614        8.89253561515654
C            1.61481405118926       11.75682451683054        8.91880508197533
C            0.39598957454702       12.52952304804698        8.95430301837211
C           -0.63587971060415       11.62579551282177        8.88772870372594
C           -0.00261728432965       10.31898118848793        8.82097473859146
C           -0.15987528127456        7.86123305630142        8.68909035514684
C           -0.96955009237194        6.67426862365332        8.69039700367205
C           -0.10849298604319        5.61247106686523        8.54048413901480
C            1.23240619849528        6.19507167196666        8.46505678592746
C            3.70188393542637        6.06876551571489        8.30694287441950
C            4.94189802017120        5.32733314988294        8.16372914897117
C            5.94954530770392        6.24195869803575        8.24780307341376
C            5.32329465388257        7.53169038882849        8.44429595591132
C            6.02705902376664        8.71942956693501        8.57506627709058
H            7.10623861594796        8.64267276931675        8.57231289634252
C            2.87511538934157       12.32710726884009        8.97465022977098
H            2.95153789777881       13.39756650730054        9.07789433252927
C           -0.70158458984610        9.13312898023220        8.76697202390002
H           -1.77642077417950        9.20587672350755        8.78759112710421
C            2.42965138443549        5.51289508775824        8.28754469000114
H            2.37964633354999        4.45112511315533        8.11199824501415
C            5.58736683602196       13.69588396528425        9.00785218992474
H            6.65205325061901       13.91004842848932        9.00069846364450
H            5.16592894586139       14.09025836099670        9.93172537950971
H            5.12475769131680       14.22587822917972        8.17484557719877
C            7.73786646425782       11.38650744608086        8.71013947763984
H            8.22279209642052       10.47633227668235        8.37542465250415
H            8.14135858652977       11.65500594885308        9.68696462314923
H            7.99131341591561       12.18642178560653        8.01496437167864
C            0.34745551805884       14.01580819040816        9.04604158946428
H            0.14998385589828       14.44997058281525        8.06398417300097
H            1.28470438100446       14.42464062660235        9.40841768587068
H           -0.43764134722723       14.32971163762478        9.73008547528582
C           -2.05834018192497       11.86545648398429        8.87416278405841
H           -2.70320431663556       11.00608773188578        9.01566421955347
C           -2.61949723562552       13.05736059845777        8.69089306543890
H           -2.02722812452950       13.93155902892273        8.51449917174131
H           -3.68508439304340       13.20421089280275        8.69722716879530
C           -2.45485740776007        6.67975196163995        8.84855314002647
H           -2.94469607835768        6.91993457210781        7.90376954756639
H           -2.76247858160920        7.42292947676729        9.58167798866773
H           -2.82008403416754        5.71256300862989        9.18169153908267
C           -0.55695725580754        4.24082385458970        8.50016575596938
H           -1.63214032670272        4.12491722562821        8.59354684149381
C            0.13707900333527        3.11168230667867        8.37161563070833
H            1.20314764804619        3.09225779579812        8.27847175848823
H           -0.36042602254964        2.15822877513129        8.35799561201951
C            5.10926847547272        3.85414026086983        7.96096672659159
H            4.96763659978981        3.58536599007196        6.91323113462811
H            4.40287916038522        3.28141669559033        8.55596979055303
H            6.11426293859654        3.55086412701719        8.24826179783945
C            7.42065585682263        5.99241241645253        8.18755001265940
H            7.64396685620970        5.10515730550669        7.60056665261726
H            7.82116898640983        5.84473911870107        9.19177688764612
H            7.93922262339108        6.83393509090168        7.73713382495829
C            3.88006668405907        8.24086136016461        3.19690942881161
H            4.77969685166823        8.77909039787145        2.90209089599678
H            3.13471532696137        8.36539835464809        2.41292123578918
H            4.12157327888827        7.18710878672443        3.28414635103963
N            2.99444268760669       10.05883233973129        4.66798241631891
H            3.02938475860479       10.77687966640721        3.96311350501935
C            3.36702262885848        8.75053200675914        4.49374964800841
C            2.58777937433947       10.20359531971409        5.94833390947600
H            2.23504824598910       11.12492835073770        6.36330126700617
N            2.68461666414276        9.07177642954312        6.59725132855375
C            3.15450549859198        8.15310052872922        5.70323999171726
H            3.30896166200804        7.13621089254186        5.99790256391220
C            2.38676135689308        9.77240091028535       14.36261854864848
H            3.31948696450493        9.85850787257966       14.91863293837513
H            1.70975102765622        9.13753079184872       14.93310787271741
H            1.94359185521775       10.75881939096317       14.27681670676745
N            3.17880991167457        7.96156135251759       12.82823667147656
H            3.47008517009912        7.33633355458387       13.56253745989820
C            2.62656192870624        9.20380240189576       13.00994693429189
C            3.25084896896586        7.73373669406746       11.49768586125999
H            3.65009734317784        6.83872785753268       11.06745370049743
N            2.77801007813488        8.74963586579216       10.82199083536263
C            2.39110632980308        9.67598988557929       11.74840445098990
H            1.97729998640958       10.61371807999517       11.44034971871088
87
 energy: -128.456249392224 gnorm: 0.013009291476 xtb: 6.7.1 (edcfbbe)
Fe           2.65757783589372        8.90429468558150        8.67549100386358
N            4.16585865765351       10.25178988340742        8.76116750345530
N            1.34038073875036       10.42838492141898        8.82406887742690
N            1.16163246256426        7.55756092934143        8.60497831002849
N            3.97661820292755        7.40959214973421        8.49877509519829
C            5.49826119409750        9.98791836892854        8.70429754056517
C            6.26224100299793       11.21593530372231        8.77690233252456
C            5.35301413460632       12.22173212631152        8.89922850272847
C            4.05344658027797       11.59795008482135        8.88602187608141
C            1.61098364219937       11.75850110745735        8.91693113930176
C            0.39948990203602       12.53517680709952        8.95532678502684
C           -0.63782037714599       11.63441844996681        8.88401546230459
C           -0.01147829724444       10.32274212430606        8.81971607610638
C           -0.15873012102560        7.86217751756305        8.70445585294553
C           -0.96002485750638        6.67135886959986        8.69578433592889
C           -0.09415355544334        5.61010603547448        8.54347537573822
C            1.24004234725874        6.20382627908702        8.47926399137456
C            3.70618373338933        6.08608991419471        8.32071327978218
C            4.93893623605692        5.33848357222308        8.17196843405243
C            5.95063320520483        6.24867466855706        8.25802561476489
C            5.32913537696595        7.53708895973961        8.45894397039376
C            6.03801430664142        8.72154767826712        8.57797366229892
H            7.11622312646565        8.64631330521310        8.56038579250640
C            2.87801504387313       12.31697965858089        8.96752610277426
H            2.96051998164863       13.38736949831682        9.06526632372634
C           -0.70838173697752        9.13331882000029        8.77336197183276
H           -1.78461393054718        9.19765649406649        8.78738620354258
C            2.43769580151802        5.52597983333371        8.30245821252088
H            2.39497782834988        4.46463917465072        8.12850662397545
C            5.59336336905487       13.68919533228560        9.00825190268017
H            6.65821626371768       13.90502067150888        9.00211741883503
H            5.16961095188817       14.08183731583473        9.93255960584538
H            5.12859938145810       14.21906947973621        8.17582341039473
C            7.74375113947597       11.37175961081769        8.71094633880048
H            8.22871502260345       10.46029790796496        8.37656750797338
H            8.14542184718105       11.63757892995976        9.68960894822063
H            8.00248479574757       12.17178078098012        8.01718359576010
C            0.35924102393626       14.01985030851147        9.06217936309008
H            0.14868006931291       14.46508885188254        8.08670662248395
H            1.30684263512578       14.41805813038916        9.41300152188962
H           -0.41122225131106       14.33582882283809        9.76398121167078
C           -2.05708824730522       11.87512289026435        8.87526489634878
H           -2.68370817989367       11.00554752346983        9.03579006751491
C           -2.65406874427667       13.05210290781617        8.67556858350117
H           -2.09919530418152       13.94654117335845        8.44814705784505
H           -3.72482479212541       13.16352579509855        8.69728347001302
C           -2.44342740925744        6.66953737748444        8.84587702965879
H           -2.92857251650789        6.91598094449777        7.89966045429409
H           -2.75141127650396        7.40935631546366        9.58303404576376
H           -2.81179497745166        5.70070292874541        9.17295429113652
C           -0.54027075224553        4.24100511117530        8.49740773423075
H           -1.61838124755694        4.14337026748291        8.58088728923797
C            0.14274343636098        3.10290248794462        8.37294899004135
H            1.21069422744552        3.05863133860831        8.27996949255886
H           -0.36698659265393        2.15483057745276        8.35970269670519
C            5.08676495592045        3.86698500677785        7.96450147389290
H            4.93725279285795        3.60057595631268        6.91664030121582
H            4.37412728826273        3.30277518128536        8.56155629745761
H            6.08945424728502        3.55300704275803        8.24974914965132
C            7.41852044259963        5.99467232976947        8.18741239612867
H            7.63144324491532        5.10447556584626        7.60023548101049
H            7.82777899039270        5.84869869539183        9.18921000068340
H            7.93811505081952        6.83337022315493        7.73090402174658
C            3.87334031589139        8.24102602173571        3.19865473629847
H            4.77423350427599        8.77796922697178        2.90224461395218
H            3.13065657306308        8.36183138407519        2.41044557427536
H            4.11416090474236        7.18715182313295        3.29193953991637
N            2.99211623105805       10.06426997986118        4.66570635522096
H            3.02465296484735       10.78110462475066        3.95935302008600
C            3.36077217019391        8.75551122734601        4.49335270064635
C            2.59660383943037       10.21283413787761        5.95022425915831
H            2.24906363960593       11.13571387244273        6.36507285869224
N            2.69372087339673        9.08276702931256        6.60340325849597
C            3.15580575317535        8.16291775114420        5.70622719218101
H            3.30907474601842        7.14433085831036        5.99461547210664
C            2.38948597025183        9.77259170698858       14.35025788303710
H            3.32302119327270        9.85888940928318       14.90603894530048
H            1.71276276300594        9.13846083877098       14.92326044962544
H            1.94568856755048       10.75878540959951       14.26156664621216
N            3.17593454512212        7.95932164424109       12.81946998334030
H            3.47083125436527        7.33593842123241       13.55383918371868
C            2.62531559413586        9.20173678795307       12.99938468860443
C            3.23979889129216        7.72819407402605       11.48855544446331
H            3.63615525549066        6.83194392286665       11.05919423093853
N            2.76532666411175        8.74255701685047       10.81215544141426
C            2.38319717922681        9.66970005162794       11.73821847314261
H            1.96773325589665       10.60776177576573       11.43477012812216
87
 energy: -128.457587981330 gnorm: 0.011124754236 xtb: 6.7.1 (edcfbbe)
Fe           2.66218060704774        8.91437030920280        8.67954085978309
N            4.17477484558788       10.24737988429902        8.76027054876314
N            1.33242235707336       10.43157004866007        8.82218664273995
N            1.16421630556797        7.56576030213434        8.62112803688658
N            3.98800802846671        7.42568650036607        8.51305625711604
C            5.50611677737803        9.98439722033294        8.70275884815487
C            6.27005940644383       11.21029620869171        8.77426191704611
C            5.36199944541096       12.21663097984764        8.89458919826541
C            4.06088866233481       11.59278293046316        8.87959942194953
C            1.60908641153753       11.76061591509161        8.91492509750013
C            0.40235660011117       12.54042118179524        8.95246836178034
C           -0.63826125583872       11.64315331613797        8.87568979812130
C           -0.01992958988730       10.32664556778485        8.81664597846887
C           -0.15648189035709        7.86548091314520        8.71897994745025
C           -0.94736733190751        6.66880398456192        8.70278305256829
C           -0.07517686180837        5.61128278436756        8.54891008784345
C            1.25075209604956        6.21603285172583        8.49596490353064
C            3.71143718875220        6.10631944818543        8.33829010235153
C            4.93612560317554        5.35188302104707        8.18425185937002
C            5.95338888107198        6.25457438290373        8.26985335049616
C            5.33971948961835        7.54402905582606        8.47243012898404
C            6.05447276399268        8.72370689464699        8.57891068071223
H            7.13127802895151        8.65026524843769        8.54833258419152
C            2.88284876212639       12.30595967178499        8.95772733940666
H            2.97357150912126       13.37697909305726        9.04552626159068
C           -0.71432395079619        9.13445423384741        8.77922446121420
H           -1.79214882979215        9.18795644903448        8.78836182922271
C            2.44727882101528        5.54033173043953        8.32444395728230
H            2.40992311843898        4.47850413782797        8.15665568043404
C            5.60246212689748       13.68271533944493        9.00789310198537
H            6.66775801992800       13.89879763347384        9.00309919947255