87
 energy: -128.467209301050 gnorm: 0.000039572574 xtb: 6.7.1 (edcfbbe)
Fe           2.75212862486153        8.95074244772539        8.66478300137782
N            4.25272098404650       10.26859385789106        8.83144179661518
N            1.42085183304275       10.44988401870852        8.78680005809850
N            1.25503331738199        7.62429876669428        8.51654619604317
N            4.08190758832439        7.45984222081777        8.52132244375156
C            5.58234901252897        9.99756862425798        8.81990742566212
C            6.35350530447693       11.21173275962347        8.97794925217545
C            5.45327002376693       12.22519803346882        9.08324120136312
C            4.14472621200170       11.61497605018092        8.98666476210754
C            1.69257808003031       11.77462527536269        8.93565033557062
C            0.47819010574378       12.54853919912804        8.95920280379684
C           -0.54984181172429       11.65452629485035        8.81096697402618
C            0.06999665976728       10.34590892348285        8.71692430157576
C           -0.07481411020679        7.90509240037357        8.48819010594218
C           -0.84863602437209        6.69582745230739        8.39124153595810
C            0.04776276407132        5.65989414848013        8.39636226859557
C            1.36083983374270        6.27281440388864        8.44716001054256
C            3.81078069481042        6.13799741805080        8.35960445194555
C            5.03451573098053        5.37567874908434        8.23928300660015
C            6.05201425648141        6.27204300550915        8.34124974234716
C            5.43499644200625        7.56900056867053        8.51609662770771
C            6.14587102259752        8.74484462375315        8.66486664414839
H            7.22353337788932        8.68042122127593        8.65700621718908
C            2.96079417326863       12.32628645304686        9.03523747829705
H            3.03072193375026       13.39792984478705        9.14990849703741
C           -0.63485895899709        9.16888473339578        8.56006856232338
H           -1.71078632297545        9.23373893125067        8.49908166034908
C            2.54916656833846        5.57172743152392        8.33176192459598
H            2.48350695489641        4.50403327208717        8.18881722564728
C            5.69059430267703       13.68641622696626        9.26243198885160
H            6.75516719972586       13.90239713425861        9.31064405903423
H            5.22754254321655       14.04075341356730       10.18395151565078
H            5.26426250920498       14.25118491150639        8.43249669589409
C            7.84285849194256       11.26506939426252        9.01048623930871
H            8.26086236113523       10.87770768222492        8.08084376822964
H            8.22966664473831       10.66096233796015        9.83152176990650
H            8.19193287246508       12.28643521479811        9.14308132615361
C            0.40048107253815       14.01998909203086        9.17891105861289
H            0.56108239550491       14.56491386654086        8.24666877259231
H            1.15674351276107       14.34448912246256        9.89234398670311
H           -0.58047277119972       14.28754310106298        9.56673249374274
C           -1.97430352385402       11.89704551478575        8.78354622321975
H           -2.59052031265772       11.10925908926252        9.20152147613255
C           -2.56737981251339       12.97977137451010        8.28965305357109
H           -2.01394781249499       13.77325520920506        7.81859172611945
H           -3.63821605329727       13.09733794836272        8.31689853377634
C           -2.33683442851345        6.63078572190031        8.35908064423395
H           -2.73014019719961        7.24311183763474        7.54719945318220
H           -2.75823941936622        7.00153157946785        9.29443184680461
H           -2.67358930629901        5.60659572722914        8.21788447654111
C           -0.26179715937554        4.24608081035156        8.36703981533177
H           -1.11490491370082        3.97220672974995        7.75487250084010
C            0.36986046156793        3.29391270616749        9.04528281605423
H            1.18837138370057        3.51087967135581        9.71065402781181
H            0.07380942696319        2.26019485594716        8.97492254652837
C            5.08976656251196        3.89803863141565        8.04826079997764
H            4.55959567596644        3.60826104638221        7.14068846717637
H            4.62273205642252        3.38283204137111        8.88840834064469
H            6.11883657362445        3.55611964602809        7.96773887250936
C            7.52359497903218        6.03933836504451        8.29060955988765
H            7.74462890800853        4.98408520024608        8.14866194069599
H            7.99591625577516        6.36706890138409        9.21716705892697
H            7.97157308262475        6.59746781820010        7.46806534318607
C            2.70992957858095        8.08980050829228        3.13652369435661
H            3.61664829507709        8.31692775369432        2.57559733843479
H            1.85616174354432        8.45910968867341        2.56822713649601
H            2.62246339728834        7.01230100757485        3.23499194741814
N            2.86273508061180       10.06324072317341        4.67128200196952
H            2.91926445648094       10.75479468796403        3.94185239270657
C            2.75426822201541        8.70942530042433        4.48531457394825
C            2.87602185464084       10.29284511438074        6.00378597338311
H            2.95302692606709       11.26550072425225        6.44412229233717
N            2.78323100788577        9.16958735067042        6.67120916635793
C            2.70648848561164        8.17577005244416        5.74100027198771
H            2.62271553311211        7.15029425868486        6.03527940894253
C            2.71142358918103        9.80108749073211       14.19855547553938
H            3.57456648254588        9.46505983163756       14.77341028808625
H            1.80990993983811        9.53528604240458       14.75069796503395
H            2.75560838154009       10.88160498804018       14.10427444696803
N            2.64506318022779        7.82833632366092       12.65683853426204
H            2.59993839971062        7.13304179355675       13.38351811773868
C            2.70414107840828        9.18451753922532       12.84761403353170
C            2.65562801055322        7.60226430092574       11.32379322181984
H            2.61690724071228        6.62892295773280       10.88013659205043
N            2.71737960487512        8.73001712218325       10.66022749616768
C            2.74858548712770        9.72304112244199       11.59388191543133
H            2.80053619206914       10.75153026389071       11.30323600580181
