77
 energy: -118.995585631481 gnorm: 0.000103528151 xtb: 6.7.1 (edcfbbe)
Fe         -90.59752278928580      -11.72542077109560      -87.93201620074568
N          -89.24119742582106      -10.57447598020162      -88.89309249020542
N          -90.49243497918091      -13.06490015988210      -89.44540139945434
N          -91.76729312460375      -12.98211270052531      -86.86701683053033
N          -90.53637541602909      -10.47846333236721      -86.34475995882102
C          -88.72411620328270       -9.40179592175405      -88.44902157599374
C          -87.82825820209973       -8.84050901928429      -89.43679907374035
C          -87.82549416533409       -9.70447159294449      -90.48817992185276
C          -88.72185397956062      -10.78306477970428      -90.13225721205148
C          -89.83242056226742      -12.92200478142943      -90.62444534537850
C          -90.10346698601853      -14.04079465559518      -91.49256521099944
C          -90.95645509389173      -14.86392647364714      -90.80540252196064
C          -91.19416975399808      -14.22134858311513      -89.52679870836982
C          -92.26262721952226      -14.16805061411514      -87.30707922669106
C          -93.13666207459336      -14.74682554328874      -86.31606741602725
C          -93.16675716555596      -13.86727506023892      -85.26645851517566
C          -92.29765631625727      -12.76715562582317      -85.63888501269746
C          -91.24338965956029      -10.59259510438174      -85.19039185680811
C          -90.99552009259051       -9.45189095729725      -84.33506428267786
C          -90.12493782851449       -8.65070798822589      -85.00711569283283
C          -89.85066149972343       -9.31056859418317      -86.26544094948456
C          -88.99970623029576       -8.80647232221164      -87.23141198511311
H          -88.51951618776285       -7.86250098574981      -87.02320325159758
C          -88.99305191779065      -11.86680265456933      -90.94738186755124
H          -88.51526426181128      -11.88985158731647      -91.91539031951585
C          -91.99615342958899      -14.75086696123729      -88.53355149480070
H          -92.48240099026582      -15.69110032364177      -88.74442018111560
C          -92.06807004505607      -11.65101224737881      -84.85207864601774
H          -92.57684606852868      -11.59738819046418      -83.90140063857918
C          -87.08869989103324       -9.61719323665930      -91.78024833800843
H          -86.46183854333454       -8.72974302426086      -91.80873461673940
H          -87.78923411955749       -9.56867137791880      -92.61364647644447
H          -86.45367487902732      -10.49183761548997      -91.92255669818688
C          -87.08931393522401       -7.55797629676906      -89.26738305403335
H          -86.45765776816889       -7.59301728125735      -88.37970121136289
H          -87.78786235048963       -6.72935782178654      -89.15353109539478
H          -86.45888632233533       -7.35760760036413      -90.12989211063700
C          -89.59779818216019      -14.18476150194469      -92.88503195459916
H          -88.57824666627938      -14.57449396632392      -92.89302353348181
H          -89.59600551661437      -13.22191641983285      -93.39272517401220
H          -90.23230537717799      -14.87088744082967      -93.44160266526174
C          -91.55893167376883      -16.11041160815507      -91.22703167423673
H          -92.56513147896847      -16.28671849314003      -90.86718697273204
C          -90.97767409970884      -17.02271650722141      -91.99856716653218
H          -89.96485185516556      -16.91823053999962      -92.34752454226476
H          -91.49127053463290      -17.92380894350285      -92.28934455895075
C          -93.80180696180267      -16.07275387951710      -86.43228308079108
H          -93.13911330980608      -16.79714495820291      -86.90345623601019
H          -94.70557446233224      -15.99686361915252      -87.03801362133079
H          -94.07768712139818      -16.44067961511294      -85.44616452383046
C          -93.87821889853952      -13.96345225064913      -84.00946155818519
H          -93.37264838894421      -13.53615879601934      -83.15107235497800
C          -95.07678825275674      -14.51272958260914      -83.84652716308584
H          -95.64315825703865      -14.90361083868616      -84.67327703795478
H          -95.54760288697788      -14.55975845038362      -82.87871104972740
C          -91.61701898816784       -9.25791630683144      -82.99525989114935
H          -91.34745644667414      -10.07385496715869      -82.32425215356089
H          -92.70308502657426       -9.23477024309306      -83.08072914102134
H          -91.28835513453059       -8.32348466074126      -82.54783614074314
C          -89.53422721367195       -7.34585708907771      -84.59732167719716
H          -88.44601192599453       -7.40647325984753      -84.57674288461682
H          -89.88046862387849       -7.05844824813455      -83.60792808918654
H          -89.81696745706252       -6.56306106332707      -85.30074831548976
C          -86.76137085467045      -14.34474334586309      -84.33292778948018
H          -85.79820952887529      -13.86318002214503      -84.16431040494038
H          -86.59074561762841      -15.41435648176259      -84.45444414854173
H          -87.38597141490827      -14.18933329324055      -83.45881944158893
N          -86.87267858047436      -13.83110085329907      -86.78195292514633
H          -85.98329037802441      -14.24475320472101      -87.01068432623190
C          -87.43114058991902      -13.77893397132424      -85.53039752257601
C          -87.73075887970536      -13.23379333356748      -87.63689309694752
H          -87.55515101443322      -13.12715363056799      -88.68796866402450
N          -88.79392335381715      -12.80740133266398      -87.00819554548339
C          -88.62576712567270      -13.13739385568404      -85.69765893362084
H          -89.37028982273507      -12.89204222449323      -84.96879154427013
O          -91.86752609802633      -10.86353497415396      -88.59980774542494
O          -92.85932452250799      -11.51555846085232      -89.08053336319988
