77
 energy: -118.839037690442 gnorm: 0.427809099202 xtb: 6.7.1 (edcfbbe)
Fe         -90.46200000000000      -11.83200000000000      -87.84200000000000
N          -89.19100000000000      -10.69100000000000      -88.81799999999998
N          -90.43400000000000      -13.17800000000000      -89.36600000000000
N          -91.73399999999998      -12.96400000000000      -86.90500000000000
N          -90.47899999999998      -10.44900000000000      -86.32800000000000
C          -88.65700000000000       -9.41700000000000      -88.43899999999999
C          -87.73200000000000       -8.81300000000000      -89.42400000000001
C          -87.76000000000001       -9.73300000000000      -90.60299999999999
C          -88.67000000000000      -10.78700000000000      -90.12900000000000
C          -89.87300000000000      -12.97900000000000      -90.55700000000000
C          -90.09500000000000      -14.02200000000000      -91.55300000000000
C          -90.98299999999999      -14.86800000000000      -90.86799999999999
C          -91.11900000000000      -14.28800000000000      -89.54399999999998
C          -92.14199999999998      -14.27100000000000      -87.23300000000000
C          -93.06500000000000      -14.95700000000000      -86.29100000000000
C          -93.12600000000000      -13.92700000000000      -85.27699999999999
C          -92.30800000000001      -12.78900000000000      -85.65799999999999
C          -91.18300000000001      -10.53100000000000      -85.23600000000000
C          -91.04499999999999       -9.40200000000000      -84.33999999999999
C          -90.11499999999999       -8.58600000000000      -85.01600000000001
C          -89.87300000000000       -9.30300000000000      -86.21899999999998
C          -88.92900000000000       -8.80200000000000      -87.15999999999998
H          -88.37700000000000       -7.89900000000000      -86.89900000000000
C          -89.01300000000001      -11.89800000000000      -90.92199999999998
H          -88.57700000000000      -11.93800000000000      -91.91999999999999
C          -91.90400000000000      -14.88200000000000      -88.51099999999998
H          -92.34999999999999      -15.85800000000000      -88.70300000000000
C          -92.08799999999999      -11.57700000000000      -84.96599999999998
H          -92.71500000000000      -11.42800000000000      -84.08799999999998
C          -86.93500000000000       -9.54800000000000      -91.90700000000000
H          -85.98500000000000       -9.02200000000000      -91.67299999999999
H          -87.51400000000000       -8.93900000000000      -92.63400000000000
H          -86.69900000000000      -10.54100000000000      -92.34600000000000
C          -86.96100000000000       -7.53000000000000      -89.38000000000000
H          -85.90899999999999       -7.73900000000000      -89.09099999999999
H          -87.41199999999999       -6.84700000000000      -88.62899999999999
H          -86.97099999999999       -7.05200000000000      -90.38300000000000
C          -89.62900000000000      -14.12000000000000      -92.98799999999999
H          -88.64300000000000      -14.63100000000000      -93.02399999999999
H          -89.52200000000001      -13.10100000000000      -93.41800000000001
H          -90.36199999999999      -14.70800000000000      -93.58099999999999
C          -91.65400000000000      -16.13300000000000      -91.16600000000000
H          -92.39499999999998      -16.56500000000000      -90.47699999999999
C          -91.36499999999999      -16.76400000000000      -92.27800000000001
H          -90.51599999999999      -16.44100000000000      -92.89899999999999
H          -91.96700000000000      -17.62500000000000      -92.60400000000000
C          -93.67599999999999      -16.34200000000000      -86.29300000000001
H          -93.07999999999998      -17.00900000000000      -86.95200000000000
H          -94.71700000000000      -16.29200000000000      -86.67700000000001
H          -93.67100000000001      -16.75600000000000      -85.26200000000000
C          -93.81300000000000      -13.97000000000000      -83.99799999999999
H          -93.41400000000000      -13.42100000000000      -83.13200000000001
C          -94.85299999999999      -14.61900000000000      -83.85400000000000
H          -95.28200000000000      -15.18100000000000      -84.69700000000000
H          -95.36499999999999      -14.64400000000000      -82.88100000000000
C          -91.70999999999999       -9.18100000000000      -82.98099999999999
H          -91.56699999999999      -10.08200000000000      -82.34699999999999
H          -92.79799999999999       -9.00700000000000      -83.11999999999999
H          -91.24700000000000       -8.30700000000000      -82.47400000000000
C          -89.52900000000000       -7.26800000000000      -84.58799999999998
H          -88.45500000000000       -7.40300000000000      -84.33999999999999
H          -90.06300000000000       -6.89500000000000      -83.68800000000000
H          -89.61799999999999       -6.53100000000000      -85.41500000000001
C          -86.94399999999999      -14.16200000000000      -84.14899999999999
H          -85.89100000000001      -13.81500000000000      -84.07299999999999
H          -86.95999999999999      -15.27300000000000      -84.13300000000000
H          -87.51800000000000      -13.76200000000000      -83.28600000000000
N          -87.02300000000000      -13.99900000000000      -86.67100000000001
H          -86.22099999999999      -14.57000000000000      -86.84499999999998
C          -87.54000000000001      -13.66800000000000      -85.42300000000000
C          -87.83600000000000      -13.38400000000000      -87.59899999999999
H          -87.67000000000000      -13.40700000000000      -88.67500000000000
N          -88.80500000000001      -12.79200000000000      -86.97099999999999
C          -88.68600000000001      -12.94100000000000      -85.65899999999999
H          -89.41799999999999      -12.52400000000000      -84.97900000000000
O          -92.01000000000001      -11.02100000000000      -88.65900000000001
O          -92.88400000000000      -11.72300000000000      -89.02000000000000
77
 energy: -118.942689588982 gnorm: 0.173030641490 xtb: 6.7.1 (edcfbbe)
Fe         -90.48848416562510      -11.81189075717504      -87.87782593399309
N          -89.17430485882956      -10.63879242762563      -88.84982291258773
N          -90.42943674307398      -13.16754944091283      -89.38637948000532
N          -91.71557816146145      -13.01394282302897      -86.89212895830029
N          -90.48236959956365      -10.45380111183386      -86.33620551082061
C          -88.63772094911361       -9.41424208761654      -88.43205262904144
C          -87.75038591231858       -8.83969522006750      -89.44242090097117
C          -87.76605495899680       -9.72557430253751      -90.55830178620813
C          -88.66204039888663      -10.79543729247206      -90.13531766807449
C          -89.84170478568323      -12.96645600754140      -90.58193331461780
C          -90.11853699359618      -14.02849770392453      -91.53841921542951
C          -90.97779074471352      -14.87969244453323      -90.84467098666634
C          -91.12976115515472      -14.30104066390252      -89.52497211822173
C          -92.15228297660123      -14.27897544602831      -87.26053044469334
C          -93.03690708872207      -14.90974489178568      -86.27393351070808
C          -93.10283464113152      -13.91956935019407      -85.27522181262732
C          -92.30015633543611      -12.78580868658144      -85.66896943885938
C          -91.21907143720458      -10.54393571490750      -85.22558145309100
C          -91.03896391947481       -9.40059758370624      -84.34500061412521
C          -90.12412605592199       -8.59327746847588      -85.01129342186793
C          -89.83432651801347       -9.29231643763875      -86.23580693059027
C          -88.91490430097983       -8.81040917771802      -87.18256751003874
H          -88.38278992987644       -7.90392103972077      -86.91840264029015
C          -88.99969356902702      -11.89535042021417      -90.92612768688890
H          -88.57565526886098      -11.93256421029305      -91.92028137780837
C          -91.89961993326432      -14.87617022306848      -88.50326913310055
H          -92.34900227887263      -15.84280711520108      -88.69201438469204
C          -92.10472251261969      -11.59199137024642      -84.95589315343376
H          -92.71736127593000      -11.44365685768014      -84.07628752540214
C          -86.96197291851550       -9.55615979610216      -91.86302522187609
H          -86.01211354581436       -9.03472750913084      -91.66643334740706
H          -87.51053872692140       -8.95593580584951      -92.60859461344282
H          -86.71311018560273      -10.52270248809448      -92.32848839016174
C          -86.97620989972064       -7.55207286239483      -89.37876227630559
H          -85.92733354346086       -7.73765959993360      -89.09516031597867
H          -87.40571845994241       -6.85896920252918      -88.64248622221555
H          -86.97326310591873       -7.06118096173622      -90.36276806849824
C          -89.63658322718017      -14.11489427740581      -92.96533721683841
H          -88.65946875099947      -14.62216978624947      -93.02098955084713
H          -89.52482906790803      -13.11650904195470      -93.40993373769038
H          -90.35145541288377      -14.68507894797281      -93.57223250031220
C          -91.64570161312886      -16.12593742782660      -91.17522744105473
H          -92.39081676309736      -16.53876443399469      -90.49470833784999
C          -91.36318201755958      -16.77834462808720      -92.29250687300735
H          -90.53392931456357      -16.46274900794050      -92.90986751040650
H          -91.94976567306924      -17.63452154698108      -92.60511036127508
C          -93.65257387976922      -16.30002155495231      -86.29434167165874
H          -93.08624236324442      -16.98821182706002      -86.94122651621267
H          -94.69043824773847      -16.28395540507342      -86.66932838331851
H          -93.66823072071855      -16.73750006946516      -85.28276163203712
C          -93.78855369714482      -13.95964437721533      -84.00049313272197
H          -93.39341903225804      -13.40854514110364      -83.14873561622262
C          -94.88998662390776      -14.64500859137111      -83.84276749267511
H          -95.31157256129228      -15.18670017339680      -84.67823330068526
H          -95.39032251409978      -14.66291680226401      -82.88392316808165
C          -91.69932702415785       -9.18594981274122      -82.99997775982429
H          -91.56869115502268      -10.06904339953913      -82.35826051513401
H          -92.77818796734171       -9.00905991832925      -83.11982894960173
H          -91.25557752564005       -8.32252707618074      -82.48663951743310
C          -89.53556120395042       -7.27986126397603      -84.58941650021163
H          -88.47010662419588       -7.39963273724296      -84.34224083856492
H          -90.05524585322796       -6.89769316256122      -83.70259477912853
H          -89.61839666073401       -6.54096712323650      -85.39896153241587
C          -86.94152431894811      -14.16330355128919      -84.15248815137210
H          -85.90063769645187      -13.82233527438237      -84.06979299928715
H          -86.95663173598722      -15.26082540090122      -84.12584125612025
H          -87.50848561277301      -13.77122829802414      -83.30000367075276
N          -87.02901128119150      -13.98575442461020      -86.66513128055550
H          -86.22187025312010      -14.56032023728711      -86.84096981327812
C          -87.54591307994978      -13.67989863350066      -85.42231757877849
C          -87.83777067575093      -13.38868561794713      -87.59381620192963
H          -87.66927140804094      -13.41268069667982      -88.65873282502164
N          -88.81916426366658      -12.78184316957644      -86.98813091720606
C          -88.67984476778369      -12.94412357138450      -85.65983942716466
H          -89.40245836012727      -12.52884420809885      -84.97873426969588
O          -91.97623965508861      -10.99724059312573      -88.64404254974144
O          -92.89816354143589      -11.73359228666844      -89.03116331484590
77
 energy: -118.979002464736 gnorm: 0.052620072153 xtb: 6.7.1 (edcfbbe)
Fe         -90.52862331793305      -11.78678120245686      -87.91545887943212
N          -89.15516659593769      -10.59646536756897      -88.88021168136572
N          -90.42543357627319      -13.15177480512031      -89.40618398567239
N          -91.71224187059208      -13.04981135944974      -86.88024186568731
N          -90.49142765728287      -10.45872450696545      -86.34483016928520
C          -88.63158432336760       -9.41259806481274      -88.43976354422786
C          -87.75664407263901       -8.86154721834838      -89.46137794164721
C          -87.76912713149409       -9.71492090673942      -90.52055084468182
C          -88.66149621964423      -10.79776427631567      -90.14201840041099
C          -89.81948807990233      -12.95547171929204      -90.60546182658280
C          -90.13383493837060      -14.03517244551854      -91.52432336804681
C          -90.96568183678998      -14.88760864247938      -90.82389684551733
C          -91.13189293419894      -14.30358964516190      -89.50726975209699
C          -92.15425172367735      -14.28356635635703      -87.26953916320076
C          -93.01615314613314      -14.87064646494835      -86.25846960620071
C          -93.09288255829310      -13.91830999538551      -85.26874113115424
C          -92.28413469062528      -12.78815836664818      -85.67383727822362
C          -91.25235435757867      -10.55307986316807      -85.22598037039742
C          -91.03385604764932       -9.40106367956395      -84.35855807785506
C          -90.12939183705781       -8.60946056346543      -85.01129334403649
C          -89.80360033178204       -9.29429008879132      -86.25257528612349
C          -88.90690582443634       -8.82634076474432      -87.20697875755542
H          -88.39168840852565       -7.91084456076392      -86.94778739368380
C          -88.98940246520719      -11.89050666828825      -90.93234147384032
H          -88.56643647309757      -11.92185586518977      -91.92338935229068
C          -91.88788875450247      -14.86579713594752      -88.49141885837814
H          -92.34798262243851      -15.82347191854673      -88.68196978161643
C          -92.11362165165096      -11.60790961498124      -84.94703710213329
H          -92.71579249945975      -11.47077809691831      -84.06185919701110
C          -86.98782943926854       -9.56277419470383      -91.81610955337865
H          -86.04097159774699       -9.04548641385178      -91.63862574743416
H          -87.52916778748880       -8.97194192018855      -92.56368206534401
H          -86.74389440307820      -10.51806258712514      -92.28684583157276
C          -86.98712740046737       -7.57141762518063      -89.37845643371958
H          -85.94491766084462       -7.74894847161308      -89.09554217287412
H          -87.41186727494645       -6.88118729514977      -88.65159859174481
H          -86.97995216340433       -7.07490019325450      -90.34950870577413
C          -89.64692551487300      -14.11163525400819      -92.94270267099743
H          -88.67690271987469      -14.61614222221539      -93.00568859736535
H          -89.53147278996002      -13.12313318353672      -93.38602149001497
H          -90.35153305076847      -14.66411542508455      -93.56103981771247
C          -91.63056875450452      -16.11571074357450      -91.19365534588074
H          -92.38920453104667      -16.50060858545945      -90.52253436000264
C          -91.35843710287854      -16.79437714243079      -92.30635649362230
H          -90.54856014332712      -16.49052456527167      -92.93483753147771
H          -91.93237814265295      -17.65325195707698      -92.59962508084973
C          -93.62848286978442      -16.25707350171206      -86.29455959350489
H          -93.07268765058737      -16.94615184775966      -86.93464679446730
H          -94.65951093194593      -16.24987436352448      -86.66732892297141
H          -93.65669833899841      -16.69981205347063      -85.29395194346965
C          -93.78685275170886      -13.96497360651659      -84.00321744719253
H          -93.38722472397293      -13.40621474482927      -83.16847366331415
C          -94.90848453347530      -14.65902404076664      -83.83351077580431
H          -95.33636539803149      -15.18736933047901      -84.65946575877730
H          -95.40421005358827      -14.67337663114142      -82.88366698327107
C          -91.68744767197099       -9.19037843724063      -83.02445390342142
H          -91.56412455357861      -10.06269197269150      -82.37976860395582
H          -92.75967495641927       -9.01238418285998      -83.13254807077232
H          -91.25697883655943       -8.33419003846784      -82.50685227306907
C          -89.54250953822716       -7.29752469944470      -84.59193789056869
H          -88.48290213402484       -7.40515848171035      -84.34760707938939
H          -90.05241841316830       -6.90607167430678      -83.71456869155472
H          -89.62415962240416       -6.55846349795790      -85.38969029247676
C          -86.94057276361582      -14.16555107167125      -84.15700532670178
H          -85.90819232361939      -13.82785414300912      -84.07134383475977
H          -86.95218180334221      -15.25417325101860      -84.11865002183077
H          -87.50288354788280      -13.77865162745852      -83.31238136974257
N          -87.03497467369658      -13.97342237307562      -86.66101406566926
H          -86.22397420941282      -14.54710432130552      -86.83893513713544
C          -87.55346641594500      -13.68974876239373      -85.42323234706372
C          -87.83835002674869      -13.39156889179307      -87.58574406229953
H          -87.66881240179310      -13.42054982449418      -88.64301859063772
N          -88.83227570704972      -12.77184299806938      -87.00222445765021
C          -88.67571257190261      -12.94697471241927      -85.66194760471315
H          -89.38709244497190      -12.53220538632473      -84.97708367436881
O          -91.92846216104586      -10.99008131380334      -88.62384737532604
O          -92.88361954685536      -11.73101027462141      -89.03512767599912
77
 energy: -118.988198866643 gnorm: 0.029308344140 xtb: 6.7.1 (edcfbbe)
Fe         -90.54832627379722      -11.77599462881972      -87.93311992469702
N          -89.16857001196124      -10.57972702128566      -88.90223034054999
N          -90.42548217677192      -13.13704827093254      -89.41969638124318
N          -91.70470508930929      -13.05338515021918      -86.86605608880080
N          -90.50754342649715      -10.46264098258654      -86.35725381952535
C          -88.63666167937032       -9.41604258081535      -88.44799844319536
C          -87.75924385264946       -8.85902526237848      -89.45999486862472
C          -87.76732453530720       -9.72122560948497      -90.51029240374994
C          -88.66630704598174      -10.79980534247617      -90.14760645061277
C          -89.81395598510389      -12.94834480066419      -90.61950997909119
C          -90.13329196195406      -14.03518962172181      -91.51945937086758
C          -90.95237011629540      -14.89064097224408      -90.81918489117109
C          -91.12496494524137      -14.29800966256129      -89.50429046195957
C          -92.14971328291219      -14.27431945411078      -87.26450538322086
C          -93.00375606078310      -14.85074743540454      -86.25115535474609
C          -93.09032424877230      -13.91411453375757      -85.25547820885697
C          -92.27357238090434      -12.78742712385790      -85.66754261865120
C          -91.26925629540749      -10.55825680179273      -85.23456444606144
C          -91.03476469529821       -9.40699518851983      -84.37516862237506
C          -90.12786561974285       -8.62493143579251      -85.02129184688836
C          -89.80223613138233       -9.30288382130277      -86.26767447480347
C          -88.91080649947044       -8.83496994567528      -87.22027301942646
H          -88.40334241980221       -7.91120473444405      -86.97638895082100
C          -88.98215253347793      -11.88622719965067      -90.94382893093892
H          -88.54779277691159      -11.90952079782573      -91.93157259657849
C          -91.87704466558363      -14.85601737843547      -88.48621888932854
H          -92.34411784513215      -15.80996593355104      -88.67623527425434
C          -92.11504880909143      -11.61612271411713      -84.93626716408320
H          -92.70240879712240      -11.50419198124849      -84.03566831725965
C          -87.00258052503295       -9.57290770389577      -91.78966397378341
H          -86.06187906785823       -9.05511897026313      -91.60522396715400
H          -87.56439668451580       -8.98551151896516      -92.51847614837808
H          -86.77603275511640      -10.53522230588901      -92.24336177611551
C          -86.99263365656284       -7.57617122749136      -89.37285506032589
H          -85.95602285076973       -7.76336794689172      -89.08702593547106
H          -87.42697980044150       -6.89614716159396      -88.64689656750828
H          -86.98644399448490       -7.08256001616330      -90.34276141370979
C          -89.65523629397222      -14.10475457255003      -92.93192263219545
H          -88.69161475635578      -14.61663282978251      -92.99163994282323
H          -89.53400294517577      -13.11056629572391      -93.35507786259895
H          -90.36698648193216      -14.63797349466840      -93.55604666777330
C          -91.61562927533781      -16.10997406128913      -91.21655327569037
H          -92.40163926449334      -16.46085532311990      -90.55870491164133
C          -91.35084681517476      -16.81344933615723      -92.31771250044132
H          -90.54640118443179      -16.53778953669810      -92.96844440817988
H          -91.91736999459015      -17.68803893260655      -92.58247238583240
C          -93.60756875989385      -16.22359865176423      -86.29381736836591
H          -93.03894572002025      -16.89638678030058      -86.93306315834937
H          -94.63076308387328      -16.19921743366247      -86.67482681634571
H          -93.63941385717344      -16.65470243158320      -85.29234486352402
C          -93.79828937364690      -13.97260481888785      -83.99833098254724
H          -93.38631798515182      -13.40674821067793      -83.17452373215376
C          -94.92412706781241      -14.66630663449983      -83.82016481039123
H          -95.37344410300193      -15.19115949230108      -84.63934166225924
H          -95.42238504629834      -14.68428104409006      -82.86982552422722
C          -91.68171979920864       -9.19480600628388      -83.04639286776886
H          -91.55480436752715      -10.06784758941937      -82.40645728294675
H          -92.75167965126731       -9.01748977262768      -83.15765581676227
H          -91.25000187242253       -8.33870980882765      -82.53354114858394
C          -89.54465785480335       -7.31610886257370      -84.59790575649858
H          -88.48629460314073       -7.42139610881078      -84.35536939303722
H          -90.05550576676563       -6.92565349984125      -83.72175104244933
H          -89.63327164515425       -6.57863626897420      -85.39399253920330
C          -86.93951923223884      -14.17048595369049      -84.15905691173958
H          -85.90871455322630      -13.83035804025621      -84.07623875297239
H          -86.94623895350819      -15.25832375932563      -84.11320768085595
H          -87.50193256798875      -13.78383027293516      -83.31612397765149
N          -87.03418246039142      -13.96785971513949      -86.65928461575329
H          -86.21890898620386      -14.53331911811581      -86.83897943359159
C          -87.55699188798714      -13.69597043064820      -85.42237898291103
C          -87.83768165999584      -13.39281331516554      -87.58004175096848
H          -87.66959327983660      -13.42859293467409      -88.63627712495614
N          -88.83458302768467      -12.77021669702731      -87.00371913286999
C          -88.67431640502727      -12.94949061605419      -85.66091802050222
H          -89.37709944814719      -12.53178957115898      -84.97099527577430
O          -91.88050174628992      -10.97873785092855      -88.61321782007869
O          -92.85289872603090      -11.70454069032896      -89.03888880195584
77
 energy: -118.991016181464 gnorm: 0.015573335112 xtb: 6.7.1 (edcfbbe)
Fe         -90.55282676152984      -11.76869327638572      -87.93644134682842
N          -89.18210802734443      -10.58036964759145      -88.90687574199495
N          -90.42959113972064      -13.12217864959692      -89.42771413825893
N          -91.70177805160168      -13.03872834525878      -86.85778396562392
N          -90.52192977863430      -10.46624328645712      -86.36708138584926
C          -88.65559510818872       -9.41632073334513      -88.45544265657034
C          -87.76420851665162       -8.86049003973671      -89.45110741565287
C          -87.77016057644511       -9.72791733120898      -90.50302586354672
C          -88.67496660893747      -10.79902583243231      -90.14680728265984
C          -89.81678824844300      -12.94010936684603      -90.62728082585768
C          -90.13203711712629      -14.02835439005828      -91.52018516480001
C          -90.94734488174795      -14.88587835679634      -90.82156196769998
C          -91.12124706779589      -14.28679971582389      -89.50676050547763
C          -92.14177598787246      -14.25841083754297      -87.25906240972938
C          -92.99552316351802      -14.83632853749989      -86.25035983877308
C          -93.09116559028189      -13.90675470839131      -85.24641509787789
C          -92.26830704991676      -12.78272379394681      -85.65826893607093
C          -91.27522646346594      -10.56145893123515      -85.24070489349162
C          -91.03702671741028       -9.41316611891347      -84.38747233131492
C          -90.12733086869174       -8.63495222490665      -85.03326554333671
C          -89.81439419585493       -9.30979438293189      -86.27954325739540
C          -88.92850261333834       -8.83351763511106      -87.22970999193140
H          -88.41904157968109       -7.90937001749777      -86.99604034415103
C          -88.98039426350230      -11.88064237743672      -90.95230119119546
H          -88.52964668778081      -11.89991769796772      -91.93420471604533
C          -91.86930235697626      -14.84310142509851      -88.48418150642121
H          -92.33623637933329      -15.79750864642537      -88.67226339098518
C          -92.10991103818013      -11.61997938161637      -84.92131541430216
H          -92.68124470040469      -11.52951819151707      -84.00683791494048
C          -87.01296997450254       -9.58472631225577      -91.77669523789656
H          -86.07332682393989       -9.06619370679591      -91.59555699874026
H          -87.58736012540759       -9.00063175368838      -92.49692222181881
H          -86.79509359016792      -10.55201784662490      -92.22118787855483
C          -86.99844513352730       -7.58373147156431      -89.36295624425775
H          -85.96433672338932       -7.77392856672707      -89.07133871222163
H          -87.43990133319247       -6.90712831256412      -88.63794571675024
H          -86.98900645467576       -7.08908398271142      -90.33251608912252
C          -89.66313702564693      -14.09563533000931      -92.93118123842642
H          -88.70850456129503      -14.62293602573998      -92.99459289557268
H          -89.52833486107488      -13.09543254700610      -93.33709951058844
H          -90.38832381721987      -14.61025196459286      -93.55608665494837
C          -91.60645388614350      -16.10264292771960      -91.23584953077632
H          -92.41509832246231      -16.42768104780462      -90.59066434310569
C          -91.33482745277409      -16.83402544300302      -92.31694707216633
H          -90.52442579251463      -16.59755323202756      -92.98210445843641
H          -91.90751671663961      -17.71250010716014      -92.56211855309806
C          -93.59215321207846      -16.19989521569554      -86.29618983449811
H          -93.00792619733373      -16.86375447963769      -86.92919784249605
H          -94.60823202908976      -16.16508003208152      -86.69121111927453
H          -93.63338216740058      -16.62125630753900      -85.29209364173245
C          -93.81150525191438      -13.97767685760891      -83.99523589140048
H          -93.38836188910513      -13.41257338266476      -83.17455477383743
C          -94.93576944514999      -14.66747916054298      -83.81012667953014
H          -95.40570292184536      -15.19591987964555      -84.61922864679333
H          -95.43277035903262      -14.69190150714245      -82.85591239239952
C          -91.68167276126967       -9.19897980064004      -83.06160131615459
H          -91.54946296853933      -10.07311950675102      -82.42449179070593
H          -92.75128988265290       -9.02496672942146      -83.17834934401819
H          -91.24801551777590       -8.34040736184993      -82.55481939214296
C          -89.54387695371967       -7.33033500948545      -84.60707750954822
H          -88.48501318135584       -7.43740491016333      -84.36846525961373
H          -90.05533386541562       -6.94658184581886      -83.72769356714670
H          -89.63954152506255       -6.59275273267920      -85.40250370951225
C          -86.93491388623481      -14.17642679165758      -84.15770420321586
H          -85.90396461809851      -13.83361505951455      -84.07810592597791
H          -86.93844788144580      -15.26505603957589      -84.10970035598663
H          -87.49787313276344      -13.79021131061552      -83.31384952852490
N          -87.02890631900893      -13.96963821569095      -86.65678555084185
H          -86.20861854082811      -14.52541119985409      -86.83792446120609
C          -87.55379785089779      -13.70094920996429      -85.41917342897706
C          -87.83282952137390      -13.39425669526169      -87.57523723863046