87
 energy: -124.400249425890 gnorm: 0.379881319437 xtb: 6.7.1 (edcfbbe)
Fe           2.87200000000000       20.91400000000000       13.06500000000000
N            4.28400000000000       19.84900000000000       12.17300000000000
N            3.55100000000000       20.28100000000000       14.89200000000000
N            1.49200000000000       22.07000000000000       13.99300000000000
N            2.15400000000000       21.60700000000000       11.30600000000000
C            4.56200000000000       19.85900000000000       10.77300000000000
C            5.58400000000000       18.86600000000000       10.54100000000000
C            5.87200000000000       18.25600000000000       11.72500000000000
C            5.12700000000000       18.90300000000000       12.73800000000000
C            4.41500000000000       19.22700000000000       15.08400000000000
C            4.56300000000000       19.05100000000000       16.51600000000000
C            3.74100000000000       19.91600000000000       17.12100000000000
C            3.11600000000000       20.72500000000000       16.07800000000000
C            1.39300000000000       22.33500000000000       15.34500000000000
C            0.29000000000000       23.22700000000000       15.60600000000000
C           -0.28100000000000       23.50500000000000       14.40000000000000
C            0.47300000000000       22.78200000000000       13.41000000000000
C            1.10800000000000       22.44800000000000       11.12600000000000
C            1.06200000000000       22.85000000000000        9.70800000000000
C            2.09400000000000       22.26200000000000        9.11600000000000
C            2.86700000000000       21.52100000000000       10.12800000000000
C            3.94700000000000       20.70400000000000        9.92000000000000
H            4.37200000000000       20.74200000000000        8.91800000000000
C            5.12800000000000       18.57800000000000       14.10200000000000
H            5.74800000000000       17.73700000000000       14.41200000000000
C            2.21000000000000       21.73500000000000       16.28200000000000
H            2.12600000000000       22.10700000000000       17.30300000000000
C            0.18200000000000       22.83200000000000       12.05300000000000
H           -0.79600000000000       23.18100000000000       11.72500000000000
C            6.15100000000000       18.50400000000000        9.14900000000000
H            6.54100000000000       19.51700000000000        8.91400000000000
H            5.16700000000000       18.37300000000000        8.65100000000000
H            6.87100000000000       17.74500000000000        8.77500000000000
C            6.92200000000000       17.15600000000000       11.98000000000000
H            6.21700000000000       16.44800000000000       12.46600000000000
H            7.49300000000000       17.69300000000000       12.76700000000000
H            7.61800000000000       16.58300000000000       11.33100000000000
C            2.56300000000000       22.35200000000000        7.63500000000000
H            1.63200000000000       21.87400000000000        7.26300000000000
H            3.39700000000000       22.10200000000000        6.94500000000000
H            2.41500000000000       23.45200000000000        7.66800000000000
C           -0.03900000000000       23.73300000000000        9.11400000000000
H            0.23300000000000       24.76900000000000        8.86700000000000
C           -0.99900000000000       23.04300000000000        8.12300000000000
H           -1.32500000000000       22.00600000000000        8.29100000000000
H           -1.36800000000000       23.58100000000000        7.23700000000000
C           -1.47500000000000       24.44000000000000       14.08500000000000
H           -2.06400000000000       23.68300000000000       13.52400000000000
H           -0.95400000000000       25.10100000000000       13.35900000000000
H           -2.16600000000000       25.03900000000000       14.71600000000000
C           -0.11900000000000       23.82500000000000       16.97700000000000
H            0.75300000000000       23.92300000000000       17.61300000000000
C           -1.56400000000000       23.84100000000000       17.38200000000000
H           -2.35700000000000       23.73000000000000       16.62700000000000
H           -1.84700000000000       23.96400000000000       18.43800000000000
C            3.46000000000000       20.03900000000000       18.63500000000000
H            3.24600000000000       18.95499999999999       18.75200000000000
H            2.86300000000000       20.60700000000000       19.38000000000000
H            4.54400000000000       20.21300000000000       18.80500000000000
C            5.42100000000000       17.95500000000000       17.15500000000000
H            4.56500000000000       17.57500000000000       17.75300000000000
H            5.99000000000000       18.68800000000000       17.76500000000000
H            6.07500000000000       17.10100000000000       16.88000000000000
C            5.49400000000000       25.75700000000000       12.51900000000000
H            6.21300000000000       25.75300000000000       11.67200000000000
H            5.96800000000000       26.25300000000000       13.39200000000000
H            4.58200000000000       26.31400000000000       12.21500000000000
N            6.00900000000000       23.39000000000000       13.27900000000000
H            6.99200000000000       23.50900000000000       13.41800000000000
C            5.14100000000000       24.38400000000000       12.86400000000000
C            5.32500000000000       22.28300000000000       13.45500000000000
H            5.77900000000000       21.34600000000000       13.77900000000000
N            4.05200000000000       22.46600000000000       13.19100000000000
C            3.91100000000000       23.77600000000000       12.80700000000000
H            2.94200000000000       24.16800000000000       12.52400000000000
C            1.02500000000000       17.92700000000000       15.41500000000000
H            0.34900000000000       17.39600000000000       16.11900000000000
H            1.59100000000000       18.69900000000000       15.98000000000000
H            1.73200000000000       17.19000000000000       14.97800000000000
C            0.21500000000000       18.58500000000000       14.30900000000000
H           -0.36600000000000       19.44000000000000       14.71600000000000
H           -0.50000000000000       17.85600000000000       13.87100000000000
S            1.42300000000000       19.14600000000000       13.06500000000000
C            0.33000000000000       19.41800000000000       11.65900000000000
H           -0.32700000000000       20.29800000000000       11.82300000000000
H           -0.31900000000000       18.53000000000000       11.50000000000000
H            0.92600000000000       19.60200000000000       10.74000000000000
87
 energy: -124.555924648441 gnorm: 0.214742458174 xtb: 6.7.1 (edcfbbe)
Fe           2.85206310078585       20.92456336253809       13.05874396287950
N            4.28240690564485       19.84150600866967       12.16764359650074
N            3.54206873489420       20.28343864460486       14.86355640093379
N            1.47548575998054       22.08081254333338       14.00338155418005
N            2.17384760721368       21.62920721164989       11.31624433310747
C            4.57250919667807       19.85028410218439       10.79742604217103
C            5.59199746958368       18.85333106236048       10.53695240093795
C            5.89024357082218       18.25648995882928       11.71292237816454
C            5.10738911435833       18.89599106732187       12.73028146507912
C            4.41403493582088       19.24806731033446       15.07023397101245
C            4.55009185698569       19.03962667800726       16.49076195881348
C            3.72651767739315       19.92939992724635       17.10792394908817
C            3.11669683946822       20.72541522126181       16.06314541579177
C            1.39214357933875       22.34717573326235       15.34860911127509
C            0.28270887434898       23.24712140822904       15.62865278500993
C           -0.29436053684928       23.50945891326763       14.42205890745003
C            0.45698504856832       22.78134370047927       13.42251966059174
C            1.10685823303480       22.43708062254295       11.11141282540491
C            1.04488239702923       22.83379843225996        9.70038311767143
C            2.12854341439253       22.25696953169024        9.12052777285551
C            2.85551087346076       21.51501281811353       10.13691457090576
C            3.95022335446228       20.70258334451727        9.91760339828349
H            4.36594412759835       20.73718915548965        8.91372538693458
C            5.12369485746950       18.58314370614341       14.09205250953965
H            5.74641025512599       17.74957803275369       14.40985996615252
C            2.20784739401974       21.74273827652927       16.28610621898067
H            2.11678069225588       22.09536533709649       17.30787749207285
C            0.18223558193369       22.82992525224646       12.05809763125993
H           -0.78138551382045       23.20059110766833       11.72500291982650
C            6.12459921544672       18.53956216672044        9.14449385983495
H            6.54378339427086       19.51649406262914        8.87611431445383
H            5.17916140417001       18.37603160111725        8.61483217096855
H            6.84558685233194       17.76057691643307        8.83419641340540
C            6.90318924213287       17.16334266432731       12.01501481905841
H            6.24212245148590       16.42471020773400       12.48399452090585
H            7.51003809947735       17.66369740341928       12.77948082202943
H            7.57640760478691       16.63027891740587       11.32031185354780
C            2.51822148902443       22.37793428974132        7.64165640609926
H            1.62939564424239       21.89270207277883        7.21995805784205
H            3.38831519019140       22.09077238862701        7.02044385098846
H            2.40931582557237       23.46727748882099        7.60854408246481
C           -0.02415202704620       23.67028614680660        9.03098663490663
H            0.21508585366612       24.73648916300210        8.87206452677021
C           -0.95465418056081       23.06617968293489        8.15449130323283
H           -1.29351097253627       22.03642672394951        8.29608389212539
H           -1.36892755596044       23.58999769596244        7.28727021260677
C           -1.46098762697286       24.41969065425545       14.05268840919961
H           -2.08867300589092       23.70554711725911       13.50596922924361
H           -0.98091263802000       25.11026255701168       13.34703063047195
H           -2.11328059834892       25.00406489688457       14.72580077430834
C           -0.16216196821679       23.77157005662664       16.96990623344552
H            0.70475407392378       23.92330695286841       17.61751717032515
C           -1.50224101180286       23.83560524545815       17.36491791362869
H           -2.31440321886948       23.72186196999007       16.64180978922776
H           -1.81487267355767       23.97873467483436       18.40529670229863
C            3.49901939531151       20.00719253549310       18.62087500831081
H            3.25519467686056       18.95022519519259       18.79548746437678
H            2.86699447753635       20.60981901731371       19.30207185522505
H            4.55134579451365       20.19842129622839       18.86386037340703
C            5.39574620938431       17.98151406938251       17.18838694483525
H            4.58862842739064       17.54817446132882       17.79237919366197
H            6.00577662047017       18.65799526051618       17.80130480399093
H            6.03840658812168       17.15095724678969       16.84060492622302
C            5.49993566936552       25.76175280857958       12.51905882548310
H            6.20993427621836       25.76249835456394       11.67999295123096
H            5.96584978935991       26.25791476833614       13.38128973397067
H            4.59770287554713       26.31014439483594       12.22112944874438
N            6.01254669474294       23.40347029415411       13.27802961678086
H            6.99916831178435       23.52145370101351       13.41788472168523
C            5.13425321325070       24.37938135776376       12.86292673438107
C            5.32399341218384       22.27745171106222       13.45669961495102
H            5.77214037589470       21.35051789630249       13.77809834890921
N            4.05512902862551       22.45572927406839       13.17879332722610
C            3.91366902775114       23.76497689924701       12.80992986251334
H            2.95193440390018       24.16087900869535       12.52901029034767
C            1.02091770776202       17.92440730459913       15.42153157323253
H            0.35529579165136       17.39930474929070       16.11710566618281
H            1.58621447825303       18.68510289031665       15.97397665213727
H            1.72312034411578       17.20019693297425       14.98577449061798
C            0.21197993668699       18.58750493505694       14.32082509713514
H           -0.36275092059515       19.43902499156038       14.71078543766346
H           -0.48705102277306       17.86721448704557       13.86651864630697
S            1.42203126803669       19.12118704749038       13.06554357678382
C            0.31792756044924       19.41374709571606       11.65755561779990
H           -0.32066095253729       20.29069968322990       11.82439403304257
H           -0.31457428409061       18.53203209948375       11.49955187321678
H            0.92160655988961       19.59449604413906       10.75812699336201
87
 energy: -124.637501769891 gnorm: 0.125404486377 xtb: 6.7.1 (edcfbbe)
Fe           2.83735953573601       20.93752482788711       13.10286657788079
N            4.27677073555301       19.83417085865942       12.15987572298156
N            3.53689230721124       20.28585661514234       14.85123666448166
N            1.45655879158003       22.09446060195341       14.01872507583557
N            2.19340744781741       21.64370305829045       11.33584944860983
C            4.57211207592317       19.84522153335734       10.82321081433833
C            5.59568525908641       18.84439736068632       10.53043976122691
C            5.90490002616068       18.25456251434506       11.70279125399938
C            5.08612628122694       18.89231193809992       12.72369937931665
C            4.41156146102246       19.26431597354599       15.06471127870560
C            4.54210825340314       19.02963465407417       16.47336002923940
C            3.71767889289308       19.94193574890231       17.10228433873351
C            3.11613681349087       20.72601941943371       16.06080559917271
C            1.38715862904851       22.35733447332108       15.35376501068235
C            0.26812561024187       23.26507159739767       15.64539650136833
C           -0.31367651558766       23.51255230230033       14.43647517239740
C            0.44321081583352       22.78266863019558       13.43287834634634
C            1.10436999072013       22.42296442427382       11.09995033504379
C            1.02629232679576       22.80751931186472        9.69875705157601
C            2.15340903044994       22.24516810475171        9.12535690471322
C            2.84693965477593       21.51199607943011       10.14972535889807
C            3.95396053849767       20.70090451928370        9.91685642369264
H            4.35766089124373       20.72750950729514        8.91189802421933
C            5.11830668792107       18.58711237931688       14.08129448233775
H            5.74619357604200       17.76450363128840       14.40610328036142
C            2.20206436280593       21.75063101379421       16.29416872124543
H            2.10511334526616       22.08462118084678       17.31592245384842
C            0.18799463174727       22.82934341251115       12.06465507615321
H           -0.76095733954169       23.22437122659709       11.72429198032060
C            6.09564845257785       18.57641718219423        9.14183828311902
H            6.54399470788644       19.51821027525864        8.83441462173262
H            5.18822432168090       18.38128789864720        8.57545034798317
H            6.81745714332689       17.77438800205297        8.90623887460641
C            6.88237964103150       17.17235840886077       12.04997647141665
H            6.26626108975312       16.40056284381153       12.50489363859927
H            7.52746807756507       17.63235507145028       12.79639351492636
H            7.52824374280637       16.68444921615022       11.30210097644292
C            2.46869565472279       22.40169331992199        7.65650338974161
H            1.62294337808776       21.91125547847729        7.17801929294974
H            3.37855150392960       22.07426754295005        7.11461696023764
H            2.39758906301792       23.48112778529595        7.54943478858131
C           -0.00604904920217       23.60823431095258        8.95467537784707
H            0.21309380137003       24.69383479037826        8.87310262972978
C           -0.90184623918970       23.08313321839410        8.18890383668967
H           -1.24813005530640       22.05352019234844        8.29001514680325
H           -1.38190784373656       23.60396813721418        7.35256838823052
C           -1.44842246083900       24.40023938169272       14.02219838328668
H           -2.11500486982716       23.72891575409422       13.48546374125294
H           -1.00642900182067       25.11856036746455       13.33273541176707
H           -2.05635158701122       24.96621644117588       14.74435573217866
C           -0.18912353511868       23.73797706967914       16.95996844208157
H            0.66235913848736       23.91467687950243       17.63037953234755
C           -1.43814922581221       23.82477810843352       17.34339682535592
H           -2.27552161750238       23.70343756433182       16.65498308303964
H           -1.77525277459123       24.00021315386471       18.36948563278477
C            3.54115538818102       19.97633516659869       18.60229423009470
H            3.26935953412324       18.94615949240320       18.83619280004318
H            2.86997109688804       20.62061576737820       19.20518984233974
H            4.56135655923114       20.18367306616132       18.92067258705168
C            5.36804689249215       18.01215207276865       17.21974776021159
H            4.61254343607245       17.52584362005509       17.83430954077747
H            6.01919495463458       18.63242328484192       17.83558039664172
H            5.99499931450943       17.20986853054735       16.78636731928458
C            5.50513101749608       25.76675052877913       12.51725390722284
H            6.20851317034081       25.76906706171265       11.68471416978744
H            5.96519860553971       26.26143636208922       13.37175391215388
H            4.61009258178261       26.30894870180236       12.22395702350934
N            6.01656940762207       23.41821706119894       13.27541267833267
H            7.00546911015181       23.53342168907569       13.41585285055600
C            5.12760830360649       24.37570602954439       12.85953842297687
C            5.32736042540043       22.27377842042462       13.45525177901749
H            5.77001748319113       21.35485449733471       13.77616219319233
N            4.06176175316726       22.44731534141993       13.17165591754051
C            3.91570763107069       23.75259929875124       12.80779512877659
H            2.95976309933822       24.15331583037539       12.53092799302776
C            1.01812363232060       17.92579167738942       15.42608357086228
H            0.35910838726106       17.40528076473156       16.11709682708223
H            1.58450621443057       18.67527255859506       15.97211660936077
H            1.71516621601747       17.20792828308651       14.99453631594697
C            0.22363080588030       18.59466698780644       14.31543242234493
H           -0.34842960086868       19.44064685931594       14.70109546890503
H           -0.47185484941097       17.87946877806841       13.86485338214160
S            1.42585097994655       19.08839724887643       13.00538131281093
C            0.29033757642937       19.40952142381606       11.63487784558692
H           -0.31973877171624       20.28663672126613       11.83048663624111
H           -0.32217275725971       18.52752216371949       11.49461298158798
H            0.91446682847952       19.58791941662222       10.76433178313245
87
 energy: -124.675917059377 gnorm: 0.061142383542 xtb: 6.7.1 (edcfbbe)
Fe           2.82690609221762       20.94354600770951       13.11145416061568
N            4.26711723848626       19.82900430391859       12.15695787753626
N            3.52360918719768       20.29233545842471       14.84300009876228
N            1.44999772920575       22.09296870285194       14.02523821876746
N            2.20445292059690       21.65205752500030       11.34135983010315
C            4.56626635242833       19.84696093163838       10.83334751790555
C            5.59110805353372       18.84910144049945       10.53120971364970
C            5.90279737768413       18.25634484849291       11.70588245341980
C            5.06963531833886       18.89008735663375       12.72246380836012
C            4.40308631233173       19.27549851648110       15.05939898987638
C            4.53269205726019       19.03067780404912       16.46643427679806
C            3.71734182532003       19.94618763200468       17.09695372107786
C            3.10984565756445       20.72996986721012       16.05992949571383
C            1.38611474837937       22.35988568375122       15.35423374237129
C            0.26720422110256       23.26602769310248       15.63773819320024
C           -0.32235139941674       23.50632748193297       14.43129469456046
C            0.43887853302760       22.77655517678403       13.43460960941025
C            1.10549985790498       22.41539331383100       11.09921781247285
C            1.03728105550421       22.78548941475481        9.70637586437925
C            2.16055435922607       22.23346257678305        9.12646176337922
C            2.85220530343150       21.51008633844715       10.15382838548675
C            3.95802605006157       20.69795704906791        9.91739593834638
H            4.35000430654207       20.71147926698305        8.90919948145390
C            5.10874486873632       18.59344574215189       14.07528881409819
H            5.74726677438241       17.78388292835259       14.40454319039590
C            2.19498673573601       21.75406002795853       16.29869854958384
H            2.08423057022444       22.06799100573051       17.32616381442811
C            0.19613740791782       22.83014574825449       12.06719978285500
H           -0.73548755824831       23.26267854265855       11.72103500173436
C            6.07463443288216       18.60631838950039        9.14090368149067
H            6.54279033405168       19.52664244278149        8.78620687729559
H            5.19600705190953       18.39326388603744        8.52854479932397
H            6.79578647833089       17.78387840696164        8.98685802918364
C            6.86746322273994       17.18015863635916       12.07440718256205
H            6.29227828821454       16.37302543150555       12.53168508588484
H            7.54710801114896       17.59781376982606       12.82077363158345
H            7.48122688372443       16.74152696275682       11.27081554383209
C            2.43885216476113       22.41576417014083        7.66606156008922
H            1.61547775985487       21.93513677919038        7.13003945750795
H            3.38311635300959       22.05141567642271        7.20994144413052
H            2.38224573342785       23.49449464259460        7.48647449899869
C            0.06202103691485       23.59697992855913        8.94001161174580
H            0.26227548735969       24.67359625344469        8.86914404518499
C           -0.93711553809209       23.07854070033928        8.20067622609834
H           -1.20986568273492       22.02791400873008        8.26032563628365
H           -1.44258406273717       23.62853241125043        7.40714256699958
C           -1.44401806855101       24.38644414751936       13.99999919840590
H           -2.15100686946888       23.75487034589267       13.45749750857307
H           -1.03539986144117       25.12760758846058       13.31062774973049
H           -2.00071190738777       24.93033959379724       14.77664069263498
C           -0.16794994321620       23.70013621958204       16.95686140635495
H            0.65315380079665       23.89003059755643       17.65166742663619
C           -1.43435149978044       23.83350029506440       17.33828430334753
H           -2.26305577552238       23.66945331613467       16.65892599873655
H           -1.74869009118286       24.04172477880060       18.35601948272922
C            3.56998378217288       19.95872038524112       18.58693439734746
H            3.28768985332584       18.94146359193589       18.88107209644917
H            2.86355570036396       20.64359923896121       19.10204243231688
H            4.57297443002283       20.16222393067148       18.98193733341366
C            5.34578641646668       18.03479066929447       17.23495696927141
H            4.63841323123280       17.50347645027501       17.88162127603247
H            6.02809505836084       18.60585000358055       17.87386789142474
H            5.95173818161883       17.26646917990743       16.71620498138491
C            5.50747916823537       25.76890356384065       12.51758784998731
H            6.21126766385340       25.77685103943254       11.68721676802608
H            5.96688721165120       26.26671776956732       13.36880535780568
H            4.61644043427465       26.31397245740058       12.22576679251635
N            6.02057534195039       23.42658476446098       13.27488125504403
H            7.00954407042180       23.54663662931430       13.41535056902597
C            5.12597280327833       24.37528437029407       12.85746942177000
C            5.33569427293862       22.27418051506016       13.45434307227147
H            5.77720624614377       21.35678157495069       13.77729697959161
N            4.06923293531300       22.43907569277062       13.16983741994604
C            3.91805688421057       23.74289695820694       12.80640446019476
H            2.96307380058299       24.14250413498247       12.53203867089222
C            1.01742363578111       17.92657384845507       15.42955005896166
H            0.35478264170875       17.41038810899498       16.11876872985575
H            1.58741015137892       18.67025455680674       15.97563033062082
H            1.71155552262953       17.20714517629537       15.00201931412680
C            0.23133158392081       18.59440317885164       14.31412788602911
H           -0.32938664824615       19.45343082926984       14.68414957257520
H           -0.46241431858459       17.88613093973593       13.85663841840634
S            1.43294433070901       19.06547009438443       12.98819888358405
C            0.27883025354721       19.39848545761235       11.63271660939023
H           -0.32080287707571       20.27884292373153       11.83813187188359
H           -0.33598659486813       18.52016431124937       11.48598551706792
H            0.90380513699109       19.57900988979687       10.76599636669988
87
 energy: -124.691089125196 gnorm: 0.061562109749 xtb: 6.7.1 (edcfbbe)
Fe           2.82099366646783       20.94993204472788       13.11022323363261
N            4.25316518093129       19.82877449159595       12.15652327635135
N            3.50464854150693       20.29723225585726       14.84381182762958
N            1.44979592910948       22.08371989218726       14.02868676159003
N            2.20934387973434       21.65756281193752       11.33770783336575
C            4.55336388380408       19.85192914364079       10.83918323765344
C            5.58060525465439       18.85990314638153       10.53445400494586
C            5.89080172441792       18.26065274781833       11.71226216807822
C            5.05113014565397       18.89225051736955       12.72377830750116
C            4.38993357131138       19.28297339862523       15.05919388430934
C            4.52594449971172       19.03552934083950       16.46715644511101
C            3.72018780007490       19.94970199030064       17.09992230477834
C            3.09849404830782       20.73307605567904       16.06773704060957
C            1.38102395311386       22.35483439177518       15.35419189155849
C            0.26199253578262       23.25803432693965       15.62742069022070
C           -0.33103044682865       23.49266515072646       14.41943538171541
C            0.44107415358412       22.76741817214359       13.43352902333358
C            1.10563668329719       22.41367546662465       11.09776030375119
C            1.02962086854295       22.76603256945530        9.70831176379633
C            2.15298283149691       22.23158836023079        9.12119851429338
C            2.85410645498143       21.51104074589395       10.14913742389319
C            3.95618749890001       20.69538267399149        9.91394535805574
H            4.33938491611152       20.69094967107570        8.90368469344241
C            5.09543920368319       18.60235059759163       14.07360940599122
H            5.74826864303757       17.80711024445564       14.40446161042330
C            2.18057968793103       21.75168770743378       16.30715033150851
H            2.05209691906376       22.04831700536310       17.33879176996456
C            0.20859308887199       22.83672829647019       12.06832883232690
H           -0.70166218840832       23.31379843186588       11.71890715845095
C            6.06096058637319       18.62744571993413        9.14595448789571
H            6.54301827440936       19.52909525032839        8.75593398238426