87
 energy: -124.720495639337 gnorm: 0.000091187401 xtb: 6.7.1 (edcfbbe)
Fe           6.28242770374371       13.17789870872909        5.57043070145269
N            7.61370846616526       13.93264672138463        6.86662765517933
N            5.58917437845054       11.95296014897146        6.99452988214241
N            4.96693684150975       12.42628170693942        4.27152214474133
N            7.04022883059390       14.34868388279340        4.13302610555783
C            8.51760296991281       14.92115829959150        6.63563389285668
C            9.29639270441439       15.19165656480772        7.82348534809283
C            8.86271199664285       14.31686368678317        8.77032107479877
C            7.81532048756065       13.53459326381470        8.15173832183555
C            6.08453530513081       11.79804784446581        8.25175836003584
C            5.33419226204009       10.80708933117992        8.97912088939178
C            4.34988193389317       10.37113369550449        8.13169674953500
C            4.54484732025928       11.09391132295953        6.88943018695859
C            3.97669055228708       11.53478629897023        4.54248006502283
C            3.19021563373226       11.26817815915836        3.36407265658658
C            3.74072274933884       12.01656822860658        2.35889966445239
C            4.85497893915868       12.72860975265548        2.95588455613793
C            6.67691238184089       14.36364136041486        2.82425273573535
C            7.47519977857419       15.31507263574000        2.08286997752300
C            8.32524700545833       15.88184702052313        2.98069826485692
C            8.04285350964244       15.25842105433301        4.25379899708561
C            8.72013938722214       15.55512559161280        5.42277723654630
H            9.48276759621297       16.31787809283597        5.37921654723773
C            7.12566327618852       12.52850955872677        8.79811064763947
H            7.40511493862634       12.31253831860747        9.81785294156436
C            3.76098421454620       10.92327321459385        5.76454659291126
H            2.92744355504458       10.24177321056286        5.83799574524194
C            5.65671258923996       13.61737437668940        2.26627215716430
H            5.45897849365242       13.75903919789679        1.21484129726808
C            9.32139605669309       14.14477186307502       10.17775713832968
H           10.10950939557490       14.85445414239592       10.41766168647339
H            9.70830077591258       13.13738016438472       10.33387120795563
H            8.49593450938511       14.30033695949904       10.87303579075786
C           10.35783776761401       16.23420973920960        7.91413010466060
H            9.95444455898503       17.21588780215973        7.66440612968161
H           11.17102324040837       16.01769370692648        7.22023032807461
H           10.77028450771151       16.27940764809087        8.91911854369908
C            5.64552521472956       10.33787616668074       10.35748912441800
H            5.22890658022071       11.01576400174100       11.10472412896293
H            6.72229791512901       10.28652602212725       10.51227301574728
H            5.22247410135652        9.34839677848291       10.51898498346872
C            3.32567166559961        9.37540425971533        8.35518047554471
H            3.03899482242149        8.79448832924499        7.48612978122447
C            2.72145548353909        9.13636010975910        9.51470207770728
H            2.92896182699924        9.71270150087831       10.39928829505904
H            1.97292765263687        8.36749531918582        9.61147008708390
C            2.06195828543388       10.30002598500959        3.28560888230626
H            1.14097653081415       10.74694040647820        3.66316499588054
H            2.27207792979743        9.41136717913929        3.87921338599409
H            1.90008984206772        9.99783566906641        2.25289716461210
C            3.35687423720764       12.10394557656118        0.96735279484522
H            4.17062386490163       12.24665505731715        0.26532779167082
C            2.11314081055217       12.03160857384615        0.50449924013842
H            1.26365625642693       11.94013802987975        1.15843205557025
H            1.89975186590830       12.09040731471508       -0.55006176242777
C            7.32820189918464       15.57935121757028        0.62386232561354
H            6.32875688872671       15.95450320148670        0.40151796377240
H            7.48013101195967       14.66407704016337        0.05143458634936
H            8.05288017007184       16.31753420059015        0.28883408420962
C            9.36101990006756       16.93265481278352        2.76958819827706
H            9.38479940403265       17.24808134666304        1.72944776802890
H           10.35019966397875       16.55952850433474        3.03732726677331
H            9.15171864735336       17.80643316942383        3.38740956864266
C            8.76119987430350        8.38862536372517        4.17677577209743
H            9.49312690093747        7.96836331900692        4.86652722681524
H            9.15389730634902        8.29490463878960        3.16431428632613
H            7.84415176632223        7.81243521466604        4.24889452054294
N            9.45680190660742       10.77309445808186        4.49632335047806
H           10.42791916618152       10.62581007826232        4.27530540564201
C            8.48214299114779        9.80959112710407        4.50460712730936
C            8.87589282901802       11.94585020603403        4.83540033935231
H            9.40007595727635       12.87613963671376        4.90949296378388
N            7.59490863630429       11.78335696345441        5.05722810598544
C            7.33443882218253       10.46033595208548        4.85591434386692
H            6.34603627558851       10.06851434180824        4.97603780926927
C            4.79059673269803       16.92196391910076        4.44925918546087
H            5.17098623086175       17.91880049623241        4.23487453820137
H            3.70624414462215       16.93367945607616        4.36933077074118
H            5.18230330190805       16.23221288996681        3.70735948717066
C            5.21248219570425       16.49124310139713        5.84045763836661
H            4.77027980585008       17.13994051691898        6.59706657248962
H            6.29648625968560       16.48784545616914        5.94242585350393
S            4.60837235693601       14.78872134735163        6.18380340695321
C            4.63219606975464       14.88080908609055        7.99985826314136
H            3.93279516590794       15.64629151333619        8.32563098058757
H            5.63796328154667       15.09844139109395        8.34475094985413
H            4.32031293782779       13.91022647809597        8.36916049733950
