87
 energy: -124.647404253774 gnorm: 0.232899019526 xtb: 6.7.1 (edcfbbe)
Fe           6.33000000000000       13.14000000000000        5.55800000000000
N            7.70400000000000       13.84500000000000        6.81500000000000
N            5.58400000000000       12.01700000000000        7.00200000000000
N            5.03600000000000       12.38700000000000        4.26000000000000
N            6.99100000000000       14.32600000000000        4.10200000000000
C            8.67000000000000       14.77900000000000        6.56000000000000
C            9.56000000000000       14.99100000000000        7.70600000000000
C            9.05100000000000       14.19200000000000        8.70400000000000
C            7.94000000000000       13.45400000000000        8.12000000000000
C            6.09800000000000       11.78200000000000        8.23800000000000
C            5.33300000000000       10.78800000000000        8.93100000000000
C            4.29500000000000       10.44200000000000        8.13100000000000
C            4.47900000000000       11.22500000000000        6.93900000000000
C            4.00000000000000       11.53500000000000        4.54000000000000
C            3.26400000000000       11.19700000000000        3.33800000000000
C            3.85700000000000       11.84000000000000        2.31300000000000
C            4.94700000000000       12.60000000000000        2.87000000000000
C            6.63400000000000       14.37500000000000        2.73300000000000
C            7.32400000000000       15.49500000000000        2.06800000000000
C            8.11800000000000       16.08600000000000        2.99500000000000
C            7.94700000000000       15.31700000000000        4.23800000000000
C            8.73500000000000       15.48700000000000        5.37400000000000
H            9.49100000000000       16.27000000000000        5.32200000000000
C            7.20000000000000       12.45900000000000        8.76100000000000
H            7.51400000000000       12.18400000000000        9.76800000000000
C            3.75000000000000       11.02200000000000        5.78200000000000
H            2.87500000000000       10.37900000000000        5.87000000000000
C            5.71700000000000       13.52100000000000        2.14600000000000
H            5.58700000000000       13.56700000000000        1.06500000000000
C            9.49300000000000       14.11400000000000       10.16500000000000
H           10.19800000000000       14.94400000000000       10.38400000000000
H           10.00700000000000       13.14700000000000       10.35100000000000
H            8.60800000000000       14.20800000000000       10.83000000000000
C           10.81500000000000       15.92000000000000        7.70100000000000
H           10.49500000000000       16.97600000000000        7.83400000000000
H           11.34900000000000       15.82500000000000        6.73100000000000
H           11.49200000000000       15.64100000000000        8.53600000000000
C            5.67800000000000       10.24200000000000       10.31000000000000
H            5.68200000000000       11.07300000000000       11.04700000000000
H            6.68600000000000        9.77500000000000       10.28700000000000
H            4.91900000000000        9.49100000000000       10.61700000000000
C            3.22000000000000        9.55700000000000        8.39100000000000
H            3.14800000000000        8.59900000000000        7.85500000000000
C            2.22400000000000        9.87100000000000        9.33100000000000
H            2.26100000000000       10.81900000000000        9.88800000000000
H            1.39600000000000        9.17300000000000        9.52100000000000
C            2.19000000000000       10.12500000000000        3.25300000000000
H            1.45600000000000       10.27000000000000        4.07400000000000
H            2.65300000000000        9.12100000000000        3.35700000000000
H            1.66100000000000       10.20000000000000        2.27900000000000
C            3.62500000000000       11.65300000000000        0.93600000000000
H            4.36500000000000       11.13200000000000        0.31100000000000
C            2.44300000000000       12.12800000000000        0.32800000000000
H            1.68200000000000       12.65400000000000        0.92300000000000
H            2.26900000000000       11.97800000000000       -0.74800000000000
C            7.23200000000000       15.86200000000000        0.61400000000000
H            6.18400000000000       15.74200000000000        0.26700000000000
H            7.88800000000000       15.19400000000000        0.01600000000000
H            7.53900000000000       16.92100000000000        0.47400000000000
C            9.00100000000000       17.29700000000000        2.81600000000000
H            8.47700000000000       18.04900000000000        2.18800000000000
H            9.94500000000000       17.00200000000000        2.31100000000000
H            9.22500000000000       17.74800000000000        3.80600000000000
C            8.89000000000000        8.21900000000000        4.83500000000000
H            9.76800000000000        8.09900000000000        5.50500000000000
H            9.14500000000000        7.81400000000000        3.83200000000000
H            8.03100000000000        7.66000000000000        5.26300000000000
N            9.42400000000000       10.61000000000000        4.23000000000000
H           10.33500000000000       10.39900000000000        3.87500000000000
C            8.54200000000000        9.67300000000000        4.72100000000000
C            8.87800000000000       11.81100000000000        4.30400000000000
H            9.36400000000000       12.73300000000000        3.98700000000000
N            7.66800000000000       11.68400000000000        4.81900000000000
C            7.43100000000000       10.35600000000000        5.08600000000000
H            6.49200000000000       10.02400000000000        5.51100000000000
C            4.88800000000000       17.03700000000000        4.58400000000000
H            4.72300000000000       18.13000000000000        4.46700000000000
H            4.19200000000000       16.49900000000000        3.90500000000000
H            5.93800000000000       16.80500000000000        4.30500000000000
C            4.63100000000000       16.62000000000000        6.02600000000000
H            3.64800000000000       17.03000000000000        6.33800000000000
H            5.41700000000000       17.07400000000000        6.66500000000000
S            4.63100000000000       14.84800000000000        6.26100000000000
C            4.36500000000000       14.75600000000000        8.06300000000000
H            3.50400000000000       15.38500000000000        8.37600000000000
H            5.26700000000000       15.11500000000000        8.60300000000000
H            4.15400000000000       13.70900000000000        8.36700000000000
87
 energy: -124.692970411034 gnorm: 0.088922798901 xtb: 6.7.1 (edcfbbe)
Fe           6.32897049264791       13.16651022684929        5.53843068550262
N            7.71800046307289       13.84509454904912        6.82124817113993
N            5.60198077420221       12.00310994934357        6.99324209173089
N            5.01584622764863       12.40797875436022        4.24706544856704
N            7.00974244117590       14.34217521600453        4.08217062921031
C            8.67269586386378       14.78152398693997        6.55506007054823
C            9.55119703638981       14.98984798190533        7.69989500218596
C            9.05246025666884       14.19318582748242        8.69494210478266
C            7.93994308655224       13.45633061525180        8.11983288668359
C            6.11989871127682       11.78577795620116        8.23609591174318
C            5.34401316627491       10.80196988813550        8.94624918504265
C            4.29779827961901       10.45865448311274        8.14033983142411
C            4.49661008725582       11.21013790198775        6.92183061409049
C            3.99862657223954       11.54189528176212        4.53476722439465
C            3.27139533295572       11.18045219913918        3.34200992188797
C            3.87381331391793       11.83196473809287        2.31179678466020
C            4.95433625399739       12.60795017383534        2.88134247254658
C            6.63750727476707       14.38340477901242        2.74612065635893
C            7.32935565850110       15.47777342813978        2.07537711460792
C            8.12049291901529       16.07670709550952        3.00505697618989
C            7.95339931351561       15.32074469471188        4.23900637825798
C            8.73843616040891       15.49616983098792        5.37050302471738
H            9.49503816801344       16.27013075955209        5.31836994374413
C            7.21123176468597       12.46564532779121        8.76357749080579
H            7.51641308288556       12.19479019015289        9.76769356559793
C            3.73922971131742       11.02065426059556        5.78098253027885
H            2.87513455509821       10.37195206885593        5.87338451069907
C            5.72270077385618       13.52267348993038        2.16640435247974
H            5.57785237667949       13.57301952295243        1.09061484957486
C            9.49100461227477       14.11164254775981       10.13823999193775
H           10.18474373076558       14.92591849765887       10.37284011131763
H            9.99466820697193       13.16019793378172       10.34647698226455
H            8.62756815279275       14.19996729240367       10.80830215453495
C           10.77647201268432       15.90029769472959        7.70315014178974
H           10.48920235957994       16.95151931528271        7.83149968958284
H           11.32328047743720       15.81604700171098        6.75669587178407
H           11.46154542282117       15.63655574760370        8.51618353054625
C            5.67633678364648       10.25217024953027       10.30486685138879
H            5.68503929440548       11.05995238272546       11.04431584667578
H            6.66704823886047        9.78314222450189       10.29167291652007
H            4.93258274932827        9.50762225067407       10.60752771998438
C            3.19570099333823        9.56656467292422        8.41385211777403
H            3.13204134390181        8.62328376225181        7.86821700258758
C            2.24395525559700        9.85896679866544        9.31609885146008
H            2.26829735736815       10.79269185033196        9.86718186819253
H            1.42007269108810        9.18266377217869        9.51089832076857
C            2.19195128038253       10.13812766972596        3.25962611595718
H            1.45958854743620       10.26745947484387        4.06294921115853
H            2.63815176265102        9.14083297747210        3.35671650101756
H            1.67517025566529       10.19954194878663        2.29655913100766
C            3.60057896782360       11.67889392923775        0.90726444987339
H            4.34135154965852       11.16180989102762        0.29800833094527
C            2.46468421534491       12.11495658972775        0.33266084850075
H            1.71249520376387       12.63719393085873        0.91319957162378
H            2.27612434197087       11.97418465149645       -0.72506476447620
C            7.22168100019990       15.85071687196411        0.62861257422674
H            6.19436803739770       15.74035422946293        0.26733668635716
H            7.87183161605451       15.20741632732108        0.02266202529380
H            7.53217184667864       16.89112925273281        0.47702557712324
C            8.99343921476120       17.28332585522249        2.82227522857595
H            8.48768668579108       18.03172684406725        2.20045410763603
H            9.93163011766793       17.01016739234535        2.32390820949191
H            9.22650877421455       17.74385596427970        3.78673947157650
C            8.89348658590088        8.22058465297959        4.83080272418556
H            9.75751554203496        8.09067401645723        5.49273102672432
H            9.14173468544099        7.80803536800777        3.84687657380150
H            8.04773651126844        7.67023297884541        5.24997193989019
N            9.42783776389273       10.59623515930606        4.23242761406390
H           10.34314496439533       10.38909690930794        3.87101654825728
C            8.54783510876356        9.66528754947913        4.72267067434490
C            8.85934019153863       11.80719192259683        4.32041229228839
H            9.33539749287193       12.72033230007510        4.00176953877815
N            7.65893711683345       11.69757280610879        4.84838353819249
C            7.43997721048338       10.36777196566136        5.08932651194888
H            6.50781485096963       10.03423838583564        5.50515553403748
C            4.88644543465855       17.03137114402662        4.58861625974744
H            4.72690724024385       18.10927942895055        4.46958487514334
H            4.20686789063455       16.50374070239506        3.91242590651806
H            5.91630938689137       16.80279839840491        4.30215095636290
C            4.62912467223424       16.62995036873638        6.03439955793737
H            3.65200658696037       17.02009923996778        6.34967794675836
H            5.40789468573344       17.07044957978892        6.67327567177182
S            4.60997830446514       14.83352920140173        6.26187800383100
C            4.36971464448960       14.76852217763301        8.06768601201512
H            3.51229326421262       15.38490875111128        8.35928935360274
H            5.26639572079578       15.11130073086230        8.59370748154572
H            4.16521092545896       13.73067328912821        8.34439978380052
87
 energy: -124.702898444211 gnorm: 0.024763941583 xtb: 6.7.1 (edcfbbe)
Fe           6.33228440859554       13.17609157924065        5.52511039877602
N            7.72276498175803       13.85489475587584        6.82326155608987
N            5.61829720245715       11.98739019325344        6.98638334756194
N            4.99978873740679       12.42398775183603        4.24000188789312
N            7.02197568963120       14.35603326168336        4.07583899342987
C            8.67062620261082       14.78941641077872        6.54911338334851
C            9.53948980828885       14.99266844740414        7.69265980134347
C            9.05151704331967       14.19369729564001        8.68363321462646
C            7.93988413715978       13.45926910582013        8.11116682189389
C            6.13925724402703       11.78670171898742        8.23065874940737
C            5.35294079641173       10.81601701823389        8.95630857941792
C            4.31072725368033       10.47117321467168        8.14332782465473
C            4.51531812949852       11.19592772370899        6.90743040374509
C            4.00018095670808       11.54679064548286        4.53249116535281
C            3.28408022061917       11.16862406313062        3.34079902324528
C            3.89538431698517       11.82196806443575        2.31098958246097
C            4.95413071653327       12.62098886702716        2.89645351157465
C            6.64488045265168       14.39137770355783        2.76507146501404
C            7.33382947838861       15.46585968746661        2.08284547144104
C            8.12778734588121       16.06991121898875        3.01097700706337
C            7.96180795192974       15.32384723945907        4.23940648422441
C            8.74490272465641       15.50701440035452        5.36724411424334
H            9.50397025130662       16.27358079126686        5.31508264522577
C            7.22201730109373       12.47056748939916        8.76115754562054
H            7.51811188951140       12.21203878991707        9.76787486133880
C            3.73378778464518       11.01739578382667        5.78097965169565
H            2.87919401006091       10.36262573650795        5.87661210198541
C            5.72463532746183       13.53071842881902        2.19016712479302
H            5.56645731824689       13.58875389234385        1.12017122986272
C            9.49116122694936       14.10490097728065       10.11054956967768
H           10.18079005216195       14.91147710099600       10.34864415748920
H            9.98636466248417       13.15742787425104       10.32229994089989
H            8.63402924718286       14.18916121773710       10.77823219014024
C           10.73926257836882       15.88539282520736        7.70497907924676
H           10.45891636527764       16.93186718128934        7.83144567401821
H           11.28840777415924       15.79912791777262        6.76802832181657
H           11.41701887656492       15.61873838901823        8.51339964100324
C            5.67417313437051       10.26921565583395       10.30461059899381
H            5.68627370682991       11.06036284354087       11.05222593338334
H            6.65583255247705        9.79621073668019       10.29591541020197
H            4.93491869512397        9.52694609409083       10.59541522359717
C            3.19048511598271        9.57625603937614        8.42397892897753
H            3.13849814105591        8.64910250050725        7.85968665170889
C            2.25619861976437        9.85474287381374        9.30810009203934
H            2.27337575517347       10.77449216083055        9.86874915282724
H            1.43555476379493        9.18769901018597        9.50967562112865
C            2.19735305872735       10.15021781644582        3.26207991140730
H            1.46531825441114       10.28290057099500        4.05479991728086
H            2.62466185988273        9.15088906574482        3.36169382948156
H            1.69038684382864       10.20900056823327        2.30276198264234
C            3.59288735368028       11.69889579976229        0.88842525344916
H            4.34650045715082       11.19862633021985        0.28849467506748
C            2.47837531774371       12.11802961889145        0.33164260187286
H            1.72094438386816       12.62467345155457        0.90574266098677
H            2.27250140246122       11.97622093803569       -0.71550267977588
C            7.21102696197248       15.83708542354109        0.64152197464479
H            6.19089547137850       15.72848102147146        0.28365584922650
H            7.85570714433679       15.20372510800382        0.03031319919622
H            7.52257725882157       16.86879301764664        0.48888928714372
C            8.99339598816278       17.27207902703088        2.82444715707818
H            8.48883760837974       18.01208420528706        2.20446962470275
H            9.92905546869075       17.00746289751777        2.33086535116398
H            9.22714566436724       17.73643934832777        3.77803788018043
C            8.89290434604253        8.22089435921218        4.82443633220907
H            9.75195557113299        8.08322810464424        5.48000318589800
H            9.13720638080420        7.80644618341535        3.84855447207005
H            8.05302025172636        7.67457687690965        5.23851089145633
N            9.42777886828623       10.59318333734571        4.23741118941422
H           10.34409305137572       10.39322725309090        3.86849701380293
C            8.55060105424179        9.66187671924071        4.72655249658817
C            8.84354578845626       11.80765918962120        4.34486955643481
H            9.30918116742378       12.71804014337669        4.02714527037823
N            7.65004115913427       11.70237720188521        4.87564425653354
C            7.44833281807208       10.37342339475881        5.10542643704642
H            6.52216368763829       10.03169917810817        5.51607338043318
C            4.88975345934361       17.02646528907599        4.59311501065248
H            4.73503034024083       18.09739999911753        4.47573715475132
H            4.20950465462338       16.50140750051240        3.92906009686299
H            5.90637976354878       16.78903733356763        4.30178732828496
C            4.64357109739756       16.63205650308243        6.03966399485010
H            3.67340246730494       17.01450605848680        6.36407342960833
H            5.42243096072570       17.04082951080923        6.68617715205754
S            4.54735902831925       14.81125153918554        6.24540489545433
C            4.37091554815868       14.77361477402393        8.06094486658754
H            3.52447187071374       15.39205479875581        8.34475949131510
H            5.27596087499890       15.11189691620811        8.55745872853818
H            4.17453434317899       13.74179094932653        8.32820075854327
87
 energy: -124.705225833863 gnorm: 0.010397150312 xtb: 6.7.1 (edcfbbe)
Fe           6.32994860394935       13.17591452163585        5.52250907779789
N            7.71635457378861       13.86176962948903        6.81666188021346
N            5.62626361521055       11.97913259486187        6.98111428267685
N            4.99541226015792       12.42738350597475        4.24246488159694
N            7.02885553075040       14.35859577428166        4.08199865110207
C            8.66234574302612       14.79700104864898        6.54458133180499
C            9.52654356871243       14.99605419901125        7.68757776660880
C            9.04616111147535       14.19016187036607        8.67319660253546
C            7.93471454162633       13.46173588995694        8.10001427088259
C            6.14538041851944       11.78752744300730        8.22575553818027
C            5.35529515715749       10.82596131791488        8.95920270936696
C            4.31955248200945       10.47603880800373        8.14261957411464
C            4.52529849835632       11.18818662550841        6.90100556038556
C            4.00426430530672       11.54315199104375        4.53168922539603
C            3.29461775107258       11.16528228805377        3.33506283459004
C            3.90685821648856       11.82231338201904        2.30834347134487
C            4.95412586580426       12.62791039119186        2.90296175911406
C            6.64729719122794       14.39541725276721        2.77688362085655
C            7.33701150163925       15.46093588662655        2.08653901970853
C            8.13751002093406       16.06524719580297        3.00919534304233
C            7.96919130059802       15.32644507689291        4.23965256036096
C            8.74881630901767       15.51610071645243        5.36644297979019
H            9.51255905847779       16.27808922183940        5.31475496932328
C            7.22350690989001       12.47460095213369        8.75629811532933
H            7.51789935956297       12.22699861648481        9.76605559526812
C            3.73770008250855       11.00931365642910        5.77916592652035
H            2.88682474124688       10.35077129004811        5.87614044881830
C            5.72181099503789       13.54088389086209        2.20201350192224
H            5.55446925761795       13.61017568029453        1.13560441751098
C            9.49423144501479       14.08942074592267       10.09258771029439
H           10.18802103706676       14.89227020599167       10.33038147040074
H            9.98538150023055       13.13762178195481       10.29324390446878
H            8.63881339305440       14.17243117084822       10.76232591808923
C           10.71881828397939       15.88884118248520        7.70806919350141
H           10.43290975596664       16.93360649095309        7.83340880776831
H           11.27123938734039       15.80012824179834        6.77367674430006
H           11.38709365152432       15.61721959588731        8.52197561836041
C            5.67066216440251       10.28677883555999       10.31070514831574
H            5.68171805852979       11.07601865253934       11.06092073547883
H            6.65190573292425        9.81157816552042       10.30726627849633
H            4.92785903902575        9.54573398065214       10.59603591888329
C            3.19854942262334        9.57947991948265        8.42067832078116
H            3.14749471799537        8.66444742286238        7.83800284288447
C            2.26474178126297        9.84691021518455        9.31882281302798
H            2.28095624526137       10.76135259970344        9.88886188391937
H            1.43911324001481        9.18238326376704        9.50956633781584
C            2.19923896187844       10.15848315645701        3.25800624789191
H            1.46522204463985       10.30830804877065        4.04670567231272
H            2.61020180964435        9.15264042519068        3.36751385105165
H            1.69906485127336       10.21917319921060        2.29514060917581
C            3.60432875589900       11.71370592302840        0.88157441524334
H            4.37251124664434       11.24174622200399        0.27566970923006
C            2.47093360265386       12.11534951115706        0.32933865227168
H            1.70787362798308       12.60956080815416        0.90755092164514
H            2.26950824756262       11.99291505701447       -0.72168904085753
C            7.19948397759731       15.82480555230092        0.64702557370205
H            6.17485654007886       15.71389704585224        0.30243418013179
H            7.83698417534916       15.18864245254969        0.03125957393065
H            7.51014777671479       16.85571218347397        0.49062854218458
C            9.00226127674290       17.26526821433767        2.81969934842062
H            8.49507949837216       17.99995847755496        2.19601584250552
H            9.93949543465812       17.00058196018953        2.32950965413779
H            9.23344346466980       17.73423762104720        3.77207857102243
C            8.89133026041817        8.22019419556532        4.81622596623084
H            9.75248936711092        8.07167852384360        5.46759439779800
H            9.13106557562035        7.81243068804453        3.83591182760684
H            8.05041050174966        7.67214716412207        5.22702393915505
N            9.42391598024852       10.60062435540616        4.24926416913044
H           10.33822387887996       10.40742727554357        3.87171535191362
C            8.55071893416292        9.66292474642923        4.73520447415479
C            8.83445673869995       11.81313256721549        4.37295250125684
H            9.29213027696030       12.72821586240181        4.05886646646311
N            7.64542260845172       11.70079820593140        4.90932644587164
C            7.45060453768115       10.36958836441037        5.12933101968168
H            6.52940332004391       10.01743180048045        5.54235828264671
C            4.89051426917763       17.02096193156340        4.59869111595493
H            4.74584750708962       18.09310653048532        4.48159526938536
H            4.20013784121904       16.50031583265041        3.94125261718647
H            5.90238264745132       16.77115601739761        4.29907674590135
C            4.64596072993448       16.62578567554098        6.04307335274995
H            3.68554206694928       17.01592447961099        6.38691801746046
H            5.44063650385799       17.00120121160497        6.69030897049084
S            4.53095964500800       14.79802152452770        6.22889428969667
C            4.37641392238518       14.77039001583441        8.04517503701361
H            3.53827552859027       15.39763130126879        8.33491611103734
H            5.29570858141047       15.11096272222913        8.51419622747782
H            4.18371565714897       13.74063996088275        8.32062951678648
87
 energy: -124.707199134478 gnorm: 0.012168251769 xtb: 6.7.1 (edcfbbe)
Fe           6.32876857489813       13.17070479676842        5.52304871225655
N            7.70278618547048       13.87300785589742        6.80822109659482
N            5.62905794406288       11.97357340663708        6.97615114825001
N            5.00055947576922       12.41928702584457        4.24594482633556
N            7.03710676168791       14.35836917693691        4.09196426069915
C            8.64775587492827       14.80995336637570        6.54090074372772
C            9.50925770547339       15.00320909096154        7.68286521543233
C            9.03749105318097       14.18559798561778        8.66114012563096
C            7.92551824838089       13.46494475267537        8.08549773680500
C            6.14389958038111       11.79283849741816        8.22161621037275
C            5.35072092787426       10.84122412193605        8.96371573533548
C            4.32419797602395       10.48177199171337        8.14218296424401
C            4.53409362064323       11.17763442980017        6.89323460668583
C            4.01365754643435       11.53184260607127        4.52859329565073
C            3.30582477698569       11.16299294457220        3.32601502821520
C            3.91729476475676       11.82720207913252        2.30453049171259
C            4.95816231379905       12.63036035280262        2.90920836077992
C            6.65038140588392       14.39733240084305        2.79066546097943
C            7.33850503117695       15.45531788914695        2.09008727784852
C            8.14972319823398       16.05847736435757        3.00417571143206
C            7.98033800551084       15.32742521143393        4.23829732996352
C            8.75356490050860       15.52834558041767        5.36582506666195
H            9.52086604438066       16.28671633879848        5.31676858444861
C            7.21968371450206       12.48106147392823        8.75042939356483
H            7.51600713224441       12.24375350050400        9.76145357033805
C            3.74518783076479       10.99348747098982        5.77407762155736
H            2.89771447775303       10.33166481283886        5.87152213724856
C            5.71861488160112       13.55134631413028        2.21465492341190
H            5.53914460950899       13.63743476618349        1.15263309507337
C            9.49969180842656       14.06286809168849       10.07225479619456
H           10.20369538649376       14.85692752672471       10.31174488565124