81
 energy: -118.392138237990 gnorm: 0.000147730881 xtb: 6.7.1 (edcfbbe)
Fe          15.10165954479922       24.95537282822407      -16.06760588519760
N           16.68247215264898       25.99937816204704      -16.71158657899057
N           16.31703428350064       23.63518925738031      -15.19562696939945
N           13.50716756063571       23.93063069422728      -15.41601088894829
N           13.88055362248030       26.28965890141502      -16.94146628258206
C           16.66973648653811       27.18754284097824      -17.36868465416403
C           18.01746611835121       27.63267374644632      -17.64715650428367
C           18.84561142180608       26.67864826000118      -17.14481036932998
C           17.99159801455862       25.67167001526089      -16.55335540564644
C           17.67468152072779       23.61650568180398      -15.25075926943072
C           18.20417840504751       22.50701465483871      -14.49809798889093
C           17.12482046409103       21.85609531120827      -13.96480650394788
C           15.95397581071574       22.57561663235920      -14.43199498307397
C           13.52028892302617       22.83932164861949      -14.60488958701465
C           12.17982082113000       22.39607960361813      -14.32158354442519
C           11.34241819230093       23.24702273086445      -14.99375470572552
C           12.20118758663350       24.19805820555342      -15.67093725998022
C           12.52215609394251       26.24669174826666      -16.98570138234730
C           11.99680820963116       27.40055847586223      -17.67964549632773
C           13.07227299787459       28.15514824413450      -18.03339389645522
C           14.23961764042125       27.44413120803045      -17.56400346537241
C           15.53753597347240       27.87879751738212      -17.75748201497533
H           15.67714650517032       28.81958004891566      -18.26739289378379
C           18.46395617749008       24.55331484083849      -15.89540747359526
H           19.53405245853284       24.41969538436638      -15.85062162781619
C           14.65764330721854       22.21476070939795      -14.12549862255908
H           14.51801855094135       21.36713678211751      -13.47248232152665
C           11.73181750654141       25.26564724749283      -16.41542324615548
H           10.66291643200803       25.36629611964195      -16.52612188965497
C           20.33450603400369       26.61703066862310      -17.15672176265004
H           20.75296414590532       27.47447357142435      -17.67809422114616
H           20.67664773926396       25.71088279346042      -17.65723931017261
H           20.72701777407493       26.60928106838979      -16.13940632603554
C           18.35476736145500       28.89755972091945      -18.35922523803554
H           17.94205707413563       29.75655587199286      -17.82983174062602
H           17.94183654233697       28.89239905373604      -19.36852859559396
H           19.43204609528185       29.02543831747962      -18.43135670941487
C           19.64517688716414       22.14431610473858      -14.40601450531521
H           20.15163518331357       22.74377880702773      -13.64737272828386
H           20.14557588864726       22.31236936547982      -15.35850842049592
H           19.74845548285157       21.09461200113231      -14.13892003346659
C           17.09042115229103       20.66971635037223      -13.13874718080722
H           16.23952691958477       20.01638056608565      -13.29247104598812
C           17.99926171292504       20.33855116639799      -12.22725147705354
H           18.83915916675720       20.97130546989175      -11.99890477989093
H           17.91841972966828       19.42878278011952      -11.65566890548336
C           11.82540509849453       21.19278430445591      -13.52015301868220
H           11.85438883363524       21.41365222656608      -12.45174138325811
H           12.52502455123982       20.38163439274596      -13.71521949594186
H           10.82265280452025       20.85609016355913      -13.77523039754363
C            9.89840273785009       23.24206989335149      -15.07182885723385
H            9.47962970597892       23.56954187051079      -16.01671830808449
C            9.07369902083607       22.88326432930110      -14.09320897136660
H            9.43099364332780       22.59360311561974      -13.12037866921288
H            8.00457657858881       22.88926459240070      -14.22670079856586
C           10.54703033764665       27.65145536202634      -17.91665187684935
H           10.01101047937386       27.73506186738051      -16.97060407890276
H           10.10357724358903       26.83252235166101      -18.48368732846947
H           10.40033047623679       28.57261793651782      -18.47525075869096
C           13.11606105341328       29.45386887160556      -18.76291848453872
H           13.60946858300269       30.21567930942579      -18.15894108087669
H           12.11238249549462       29.79986229040599      -18.99754917676998
H           13.67053137136768       29.35244104062205      -19.69652742480426
C           16.42552359130991       27.70631978791528      -11.41642466156002
H           16.07061303410328       27.29675911138179      -10.47077070892298
H           16.28052777940308       28.78641283235691      -11.39597183365852
H           17.48699983987576       27.49908773407088      -11.50853199147339
N           14.34118745885124       27.20287043666466      -12.70982452800133
H           13.71490720097257       27.68283455854546      -12.08449897703093
C           15.69918389598752       27.09787531891032      -12.55956979994537
C           14.00157192249282       26.54419916701642      -13.84024095942283
H           13.00005525083854       26.45969879814169      -14.20833263000287
N           15.06138060201840       26.02926535189097      -14.41395993746988
C           16.12519907107960       26.36511422184007      -13.63006474529868
H           17.11782766447666       26.05863115864352      -13.88740622327658
C           15.57123714095889       24.66806119754662      -19.45255158638247
H           15.13623778986131       25.65420206700636      -19.33252945839669
H           15.26729009986951       24.21134577240707      -20.38953696884047
H           16.65294585755107       24.73574318887193      -19.40216723749568
S           15.05161121235979       23.59756890237630      -18.06639698005714
H           13.74144790145806       23.73692529767400      -18.28534597090137
