69
 energy: -103.630422858495 gnorm: 0.000050696985 xtb: 6.7.1 (edcfbbe)
Fe          22.19939289562373       67.69776799337254        5.45300978276153
N           21.47197208311986       68.07557806897600        3.63159385709336
N           22.58556443197251       65.80979023067793        4.88906830965202
N           23.02784030690702       67.33714711522002        7.23252758965916
N           21.97460947206122       69.60330854430190        5.94444291692194
C           20.93731423397753       69.24815579300824        3.19606512538549
C           20.46843719347789       69.12722243951116        1.83402456458941
C           20.75043463822816       67.85506662674189        1.44355015460940
C           21.37590221980794       67.21382640500924        2.57782258919242
C           22.37008089624767       65.24979872320758        3.66020837975218
C           22.80045884027523       63.87668954528629        3.63527808414460
C           23.28892514051244       63.60474047396108        4.88533125168224
C           23.14159114726153       64.82632587526395        5.64911800017540
C           23.49995155933271       66.14050233204472        7.68683887316084
C           23.95314137571584       66.25236348524426        9.04824424253434
C           23.72062845897831       67.54589511774060        9.42779688466380
C           23.15881094235818       68.20799718692595        8.26837297306975
C           22.32375036482490       70.19692923631759        7.11753454611020
C           21.99325003538943       71.60611152387416        7.10126449499875
C           21.40420141460043       71.84434892114909        5.90069744244364
C           21.40011602757448       70.58145019795587        5.19350192747237
C           20.88965651761569       70.42201667859790        3.92199912385314
H           20.44543438692086       71.28360651322868        3.44885915163824
C           21.80487602773461       65.90079720850217        2.57531627145116
H           21.69912433895565       65.34355603434685        1.65772718621963
C           23.56077443611003       64.96904559111096        6.95617250610316
H           23.99311377656979       64.10720265812978        7.43965758318750
C           22.87874846552042       69.55897539885277        8.20722241203264
H           23.11117099308495       70.15461168534192        9.07536516783692
C           20.49849624187289       67.18748517310549        0.13540955649588
H           21.43602527381914       66.85546740096095       -0.31044640547472
H           20.01403221203921       67.86989136518628       -0.55795366045993
H           19.85672298027481       66.31480738470377        0.26189870264449
C           19.82373933261213       70.22892775367495        1.06699944838704
H           20.51544518923026       71.06184598457143        0.94077167510628
H           18.94316749075191       70.59704652219941        1.59316853842004
H           19.51758700452353       69.88676291145956        0.08163958577101
C           22.65506567631083       62.95547929032953        2.47531036180966
H           23.45859594147170       63.11024375941836        1.75390884306490
H           21.70744323583988       63.12008792195179        1.96401475822092
H           22.69189453338939       61.92264894467082        2.81463273315543
C           23.83196368551762       62.36838708796962        5.40542593408326
H           23.61868170119077       62.16501723477408        6.44826491513914
C           24.55755162756691       61.49849000952175        4.71152923663051
H           24.83873090163995       61.67517041687272        3.68801754115950
H           24.92152906067438       60.58749563514930        5.15635240700197
C           24.51425603674086       65.13539840139045        9.85718333144626
H           25.38610439540344       64.70524213551913        9.36387658191384
H           23.77510118148214       64.34410987309512        9.98632473876645
H           24.80945809465893       65.48911730609001       10.84155549306325
C           23.97524581369026       68.13236489878513       10.72893740509357
H           24.89081637985574       67.80851668150063       11.21152927800398
C           23.17061312165042       68.97552829950648       11.36459947431464
H           22.22518306014200       69.28422682283758       10.95152328960263
H           23.41964859690131       69.36724900124901       12.33670412392489
C           22.26541259166354       72.54318064304483        8.22631016894466
H           23.32696403417066       72.54656543191257        8.47263495710498
H           21.71298179193936       72.24265047760839        9.11672481059173
H           21.96959360119234       73.55614462820093        7.96560045601194
C           20.85852747904119       73.11622626080353        5.34997307585262
H           20.98430156357577       73.92934431265274        6.06022162944903
H           19.79574923611338       73.01292194611574        5.13103685636156
H           21.37081871012690       73.38465720301282        4.42602077520393
O           20.22999276949820       67.18421717158969        6.34730669972878
H           19.72936171769935       66.57978424145297        5.74892038424972
H           20.35405224095739       66.71356533063630        7.17781807799600
O           19.28869386672901       65.65185507830137        4.39330829489006
H           20.15422719099118       65.29012940911259        4.16059873640496
H           19.10595181622155       66.33392204519156        3.74073579749819
