69
 energy: -103.501280670567 gnorm: 0.289822180033 xtb: 6.7.1 (edcfbbe)
Fe          22.38700000000000       67.76800000000000        5.35400000000000
N           21.62900000000000       68.14800000000000        3.47100000000000
N           22.76899999999999       65.84000000000000        4.75700000000000
N           23.01300000000000       67.33499999999999        7.24500000000000
N           21.91200000000000       69.65200000000000        5.95300000000000
C           21.04200000000000       69.32100000000000        3.04100000000000
C           20.69700000000000       69.18700000000000        1.65000000000000
C           21.06100000000000       67.95499999999998        1.24900000000000
C           21.64600000000000       67.27700000000000        2.38600000000000
C           22.50000000000000       65.27500000000001        3.52500000000000
C           22.76000000000000       63.84300000000000        3.60400000000000
C           23.13600000000000       63.56999999999999        4.86600000000000
C           23.16100000000000       64.81399999999999        5.59500000000000
C           23.57300000000000       66.12200000000000        7.63400000000000
C           24.21099999999999       66.31000000000000        8.93000000000000
C           24.02900000000000       67.58300000000000        9.29900000000000
C           23.24500000000000       68.24500000000000        8.25900000000000
C           22.16500000000000       70.18000000000001        7.21200000000000
C           21.66600000000000       71.53400000000001        7.25600000000000
C           21.05600000000000       71.78700000000001        5.89800000000000
C           21.24500000000000       70.57299999999999        5.13700000000000
C           20.83700000000000       70.42899999999999        3.83300000000000
H           20.30300000000000       71.26700000000000        3.38500000000000
C           22.10200000000000       65.96899999999999        2.40500000000000
H           22.15000000000000       65.44400000000000        1.45100000000000
C           23.54100000000000       64.94799999999999        6.90700000000000
H           23.84700000000000       64.04000000000001        7.42600000000000
C           22.81700000000000       69.55700000000000        8.25100000000000
H           23.01200000000000       70.15000000000001        9.14400000000000
C           20.87900000000000       67.34900000000000       -0.16900000000000
H           21.87100000000000       67.24600000000000       -0.65800000000000
H           20.24200000000000       68.01900000000001       -0.78500000000000
H           20.40900000000000       66.34500000000000       -0.09100000000000
C           20.01000000000000       70.28900000000000        0.80400000000000
H           20.30200000000000       71.28900000000000        1.19000000000000
H           18.90600000000000       70.18300000000001        0.87500000000000
H           20.33200000000000       70.20399999999999       -0.25600000000000
C           22.57100000000000       62.86300000000000        2.42000000000000
H           23.55600000000000       62.65200000000000        1.95200000000000
H           21.90200000000000       63.31800000000000        1.65900000000000
H           22.13500000000000       61.90999999999999        2.78800000000000
C           23.54100000000000       62.24800000000000        5.57000000000000
H           23.70900000000000       62.25200000000000        6.65700000000000
C           23.70200000000000       61.08600000000000        4.93500000000000
H           23.54800000000000       61.01799999999999        3.84800000000000
H           23.99100000000000       60.18200000000000        5.49100000000000
C           25.00800000000000       65.23800000000000        9.73700000000000
H           26.09800000000000       65.39700000000001        9.59000000000000
H           24.74100000000000       64.22199999999999        9.37700000000000
H           24.77300000000000       65.33100000000000       10.81900000000000
C           24.55100000000000       68.18000000000001       10.61900000000000
H           25.48500000000000       67.78500000000000       11.04400000000000
C           23.94600000000000       69.16200000000001       11.30400000000000
H           23.00800000000000       69.60400000000000       10.93600000000000
H           24.38000000000000       69.53800000000000       12.24200000000000
C           21.72600000000000       72.54400000000000        8.42700000000000
H           22.78600000000000       72.73500000000000        8.69800000000000
H           21.19700000000000       72.12600000000000        9.31000000000000
H           21.25500000000000       73.50199999999998        8.12100000000000
C           20.39200000000000       73.09600000000000        5.42800000000000
H           20.86300000000000       73.95800000000000        5.94700000000000
H           19.30800000000000       73.07599999999999        5.67300000000000
H           20.53200000000000       73.21499999999999        4.33200000000000
O           20.36600000000000       67.20500000000000        5.91500000000000
H           19.86700000000000       67.16600000000000        5.09900000000000
H           20.05300000000000       67.04100000000000        6.73100000000000
O           19.16900000000000       65.44100000000000        5.64300000000000
H           19.47300000000000       64.54800000000000        5.47900000000000
H           18.33400000000000       65.68700000000000        5.82300000000000
69
 energy: -103.568681955663 gnorm: 0.118781928251 xtb: 6.7.1 (edcfbbe)
Fe          22.38067688721147       67.75997446277705        5.35583623099481
N           21.64069603138414       68.14393943166438        3.46903784267784
N           22.75788032131237       65.83427760159640        4.76540776601955
N           23.05198653146369       67.34509154123874        7.23727876209046
N           21.92148197378667       69.64418679741220        5.94319388761898
C           21.05053886818528       69.31065227047677        3.04686892841514
C           20.69126305210452       69.19471135334688        1.64804309775890
C           21.06320193227688       67.95275506120012        1.24040038721301
C           21.65194271801718       67.28740196532510        2.38900441325491
C           22.51639249998111       65.27053064057917        3.53742557890448
C           22.76269234344128       63.83370387840215        3.60064284674816
C           23.14648145189074       63.55241661383251        4.88015893333497
C           23.15009900163285       64.81622223415962        5.59639473839127
C           23.58311990361564       66.14097266528066        7.64212775565770
C           24.21534807825953       66.30535453846983        8.94140097073483
C           24.02498110304980       67.59790660176648        9.32155984953359
C           23.25683917283637       68.24503816903400        8.25510741680366
C           22.15451962730069       70.19584889651468        7.18098034194098
C           21.64752188709939       71.54957679563390        7.21846595427316
C           21.07284883766419       71.79007009212674        5.93823081276844
C           21.25741192870500       70.57852479522811        5.17185712407352
C           20.84662863330581       70.42252971181993        3.85156939781556
H           20.31756435241480       71.25704438019925        3.39916582790404
C           22.10545450149577       65.97399503436225        2.41303252854023
H           22.13080933276373       65.44753870926328        1.46339205554612
C           23.53860129740383       64.96191929255573        6.91358010470328
H           23.85581724723927       64.06042260524293        7.42618780032584
C           22.81302124045100       69.56035057895566        8.23218304978371
H           23.00893080526491       70.15491552711458        9.11609309916022
C           20.88627304840191       67.35411149133823       -0.14733342683439
H           21.85800325813441       67.24646683576843       -0.64507146872392
H           20.25537802164050       68.00297687182618       -0.76493545392436
H           20.41823071176456       66.36453606791734       -0.08783199289338
C           20.02068900296778       70.27766242521002        0.81812577036479
H           20.29950193187520       71.27114795134575        1.18446566772177
H           18.92849549087977       70.18260495510245        0.87458563745464
H           20.32596502591958       70.20306522276773       -0.23172873931620
C           22.57258077222658       62.87945678033083        2.43361607143703
H           23.53977817726730       62.65874503175178        1.96284586687902
H           21.91285261249906       63.31287609536129        1.67513040756639
H           22.13391014552647       61.93643588744168        2.77873999018307
C           23.52989952253354       62.26215862013589        5.54501725631165
H           23.69447962366926       62.27845462981255        6.62319431537007
C           23.69787206015646       61.09602379138209        4.92899756284775
H           23.56214554158019       61.00302848402251        3.86122219027219
H           23.98298082666524       60.20250551152181        5.47900507232219
C           24.99314888257961       65.25047537967072        9.72148429703689
H           26.07290072690570       65.39801824543011        9.58726590620433
H           24.74217119340499       64.24073454387157        9.38261802920757
H           24.77094789360109       65.33088289133116       10.79207582347131
C           24.53604319537442       68.18912037924999       10.59777827840512
H           25.45932708441799       67.77453750712588       11.00842974495809
C           23.94488594313283       69.15679948279491       11.29381041771349
H           23.01157020936186       69.59558243422687       10.96428308023751
H           24.37125754320197       69.52763102010573       12.22183952111722
C           21.72309373857633       72.52068080520797        8.39164763781391
H           22.76479382037381       72.72095827448312        8.68187321225646
H           21.20572577931851       72.12750103542794        9.27856837474989
H           21.26128646374326       73.47705167458938        8.12327830253571
C           20.41137764121818       73.06882782903577        5.44850810858628
H           20.85663037550468       73.94060036442593        5.94131843073423
H           19.33422563722964       73.06927200833819        5.67016605998332
H           20.53403341586801       73.20167342772005        4.36482783295103
O           20.39088125818441       67.30707868626780        5.90990764588873
H           19.87681282572462       67.17544702934511        5.10689010902206
H           20.05932680269630       67.04905616135972        6.75499438259512
O           19.15944530698088       65.39559239872241        5.62262365773695
H           19.44077120013648       64.50067224675556        5.47529774689227
H           18.27455572719854       65.63467727589847        5.82484116987675
69
 energy: -103.593449498356 gnorm: 0.058764007895 xtb: 6.7.1 (edcfbbe)
Fe          22.36645362248635       67.75578133916567        5.36017388587562
N           21.65624049566956       68.14088084506722        3.47192802567122
N           22.73820110615755       65.83144454581637        4.77861335368979
N           23.08412190797018       67.35743721924196        7.22643625851957
N           21.93997096877510       69.64305154285755        5.93046872400185
C           21.06548686200793       69.30052705019489        3.05848059164226
C           20.69339662008181       69.19956005792653        1.65573416731206
C           21.07026370965560       67.95191811476521        1.24278785728825
C           21.66149833916284       67.29635025450730        2.39888785881228
C           22.52125322072788       65.27035421487406        3.55365244823888
C           22.76512438222233       63.83612333549876        3.59993145332107
C           23.15149002827385       63.54528217588162        4.89183411614782
C           23.13741929126630       64.82242036924475        5.60074789027964
C           23.59891453536939       66.16479211328182        7.64080967410362
C           24.21682939827571       66.30898781636613        8.94323341233153
C           24.01795315853196       67.61418124875516        9.33078168539732
C           23.27187800193697       68.25026793161364        8.24167894744842
C           22.15830438051093       70.20405301878461        7.15307849046686
C           21.63694415065682       71.55940559723513        7.18416974143287
C           21.09079435148622       71.78935608363271        5.97100456388159
C           21.27539658949084       70.57910433432581        5.19272520774345
C           20.86246619958090       70.41387049172890        3.86812177551579
H           20.33590064075772       71.24422751712279        3.41407440948728
C           22.10299302808589       65.97823764597949        2.42652095727111
H           22.10319761948514       65.44872276674481        1.48183158615081
C           23.54220342807953       64.97938302982557        6.91697816996361
H           23.87074390514981       64.08526541981284        7.42721770234684
C           22.81810170957384       69.56570236785754        8.20881688559686
H           23.00541214163108       70.16163027861887        9.08812501564692
C           20.89587855877970       67.35938256064546       -0.11989396993075
H           21.85543476918073       67.24622753380589       -0.62434825198470
H           20.26780937765972       67.99568624275966       -0.73902890554204
H           20.42809215457298       66.37784776094844       -0.07111430486722
C           20.03343876556997       70.26453485017032        0.83793476088796
H           20.30372007582651       71.25573881840410        1.19025039054986
H           18.94692907756045       70.17691817162851        0.88349279467364
H           20.32794042313974       70.19284197902353       -0.20694468984761
C           22.57504563316555       62.90002247688454        2.45000674137007
H           23.53093843900393       62.66902724009373        1.97700991608183
H           21.92202505112442       63.32383436416900        1.69259206413752
H           22.13154979533495       61.96311763950754        2.78137261448253
C           23.51701511003728       62.28818281148208        5.51555395030037
H           23.67275802312307       62.31532040228706        6.58864984942407
C           23.69407980557082       61.11147495806217        4.91821988710152
H           23.57721805571174       60.98638532887085        3.86142975120724
H           23.97072997270779       60.22834213544681        5.47213156779451
C           24.97324289427268       65.26757063045247        9.70530294402263
H           26.04830029258987       65.40626827882240        9.57756966529666
H           24.73209348019872       64.26110325627909        9.37728708710476
H           24.76042086875961       65.33699236635182       10.77065357986674
C           24.51115986565363       68.19009874161006       10.57118170588389
H           25.43183945656634       67.76042249270147       10.95912440151632
C           23.93514310498445       69.15019741642729       11.28511736730114
H           23.00440338167429       69.59576741090507       10.98976758374641
H           24.36723896064002       69.51798791577470       12.20142790787104
C           21.71997179994784       72.49782796477633        8.35579253261829
H           22.75368064082372       72.69277651874397        8.65034940488006
H           21.20846535873995       72.10645621980169        9.23759943674212
H           21.26265570299794       73.45429227220907        8.11205007596216
C           20.43096721402736       73.04306376162334        5.47006233583167
H           20.85944586184307       73.92144432483910        5.94836365982204
H           19.35816022868608       73.04597715150263        5.67737017517312
H           20.54969796457123       73.17139582208581        4.39428300503982
O           20.37965789889501       67.44926607628086        5.91628036130470
H           19.86568330554757       67.14103803679441        5.12685518439488
H           20.06631689700599       66.99233824544268        6.74495617204376
O           19.15285698250752       65.37749898614287        5.60080268475809
H           19.40735515232187       64.46952802499852        5.47902963291726
H           18.24068580561555       65.57048408451722        5.82961407447823
69
 energy: -103.602342681440 gnorm: 0.033250422268 xtb: 6.7.1 (edcfbbe)
Fe          22.36052662640332       67.76069463191349        5.35916948415520
N           21.67532081477660       68.14328447714976        3.47960132647586
N           22.71469942974716       65.83713810338871        4.79185442437067
N           23.10470354570919       67.37409229406882        7.20696391304075
N           21.97259019239917       69.65007548158478        5.91355009553742
C           21.08431233707709       69.29783579026369        3.06719486005837
C           20.70633630220795       69.19840504546198        1.66928969407135
C           21.08208582159068       67.95262621165575        1.25679960360947
C           21.67220587653592       67.29998700052973        2.41076574104674
C           22.51169435264140       65.27836739391410        3.56514191810315
C           22.76369938023033       63.85315064704695        3.60244496939547
C           23.14872821805439       63.55823119737160        4.89315572570802
C           23.12683783889200       64.83173367661155        5.60740887936593
C           23.60968784217145       66.18284031077732        7.62862155218137
C           24.21142168586738       66.32257340245164        8.93230644572449
C           24.00738830371776       67.62726196199135        9.31899062341400
C           23.28415256242386       68.26239632262408        8.22226862941366
C           22.18539386672858       70.20423300654886        7.13604120902332
C           21.65230506640148       71.55427567463126        7.17769910919454
C           21.10069660506738       71.78598211980729        5.96119137713261
C           21.29702894452191       70.57689690111881        5.18302568951753
C           20.88023977900840       70.41113340184407        3.86869031276532
H           20.35028296236375       71.23801508000005        3.41789376485958
C           22.09570946564147       65.98080506999055        2.43800595785642
H           22.06940482741394       65.44391625232718        1.49870056337991
C           23.54791447146992       64.99347807804283        6.91616467487011
H           23.89541211510403       64.10803754900559        7.42747062717015
C           22.83725787990407       69.57539582603800        8.18982195289219
H           23.01416960330010       70.17493414628888        9.06692375927141
C           20.90774122665461       67.35716008703795       -0.09836038504106
H           21.86773563250828       67.24093588737364       -0.60144751713793
H           20.27891811201401       67.99374094173045       -0.71578252139812
H           20.43787191834521       66.37699691987252       -0.04392719889102
C           20.04404388509550       70.25856278107608        0.85627432427816
H           20.31443456428847       71.25084962613626        1.20563041701616
H           18.95781038484550       70.16855754186943        0.90401861569281
H           20.33664926722648       70.18091292024152       -0.18858372963727
C           22.57408686769249       62.92111309103212        2.45653150098518
H           23.53057743831181       62.68170259861139        1.98911647341444
H           21.92694786477746       63.35139704686893        1.69780074943697
H           22.11995515055203       61.98956669906530        2.78888065795944
C           23.50846594006679       62.30388898570914        5.49964320737252
H           23.65001135093168       62.33817174448276        6.57288195432912
C           23.69341630456907       61.12269957811129        4.90982841126839
H           23.60542734924288       60.97897163748902        3.84995580525515
H           23.96091693784557       60.24710605234299        5.47695377488729
C           24.95589392186347       65.27995693558994        9.69379683563672
H           26.03137674723642       65.41689227917529        9.56584774576283
H           24.71128541438615       64.27530455654465        9.36245721778818
H           24.73986772937169       65.34853704819017       10.75820584470830
C           24.49346567680011       68.19849779342088       10.55292898883986
H           25.41289339653274       67.75342043682970       10.92281443636365
C           23.92536037148061       69.15189860507473       11.28465353666438
H           22.97695459955022       69.58926117633708       11.02533225505090
H           24.37024424709624       69.50702697982251       12.19820968964772
C           21.72413427783132       72.48068338247937        8.34501791546140
H           22.75936083051632       72.66598653260901        8.63134563585866
H           21.20742738903471       72.07028973757930        9.21209777302626
H           21.26260971272363       73.43460030289479        8.10189283619521
C           20.43749002554661       73.03152048079517        5.47405835735073
H           20.86274958871689       73.90715625336502        5.95916901938339
H           19.36731593152508       73.01679106770013        5.68455967366248
H           20.56476223420015       73.15004821724173        4.40106859033300
O           20.37281735380623       67.46038401035348        5.92570153221093
H           19.85276166305297       67.14109528418025        5.16336995261558
H           20.05963723895068       67.03405867040306        6.74016677830073
O           19.11109934022933       65.32875126623172        5.56862331036557
H           19.35776582061486       64.40965888099576        5.48276312000899
H           18.19450957659439       65.48104890868777        5.82634753136897
69
 energy: -103.607624824703 gnorm: 0.046019541363 xtb: 6.7.1 (edcfbbe)
Fe          22.36292421596618       67.76889741795185        5.35255101691312
N           21.69594100226243       68.14761043166439        3.49463913303263
N           22.69325113080713       65.84933374664178        4.80386132101365
N           23.12191062318391       67.39445353147018        7.17865084214080
N           22.00731470635763       69.65111327182586        5.89496528804860
C           21.10815368338089       69.29844510016527        3.07753662503514
C           20.72478904879225       69.19822753184522        1.68632621125455
C           21.09599255156306       67.95456974930113        1.27614140172468
C           21.68185902665602       67.30414821194209        2.42735224545230
C           22.49344160803985       65.29024378035041        3.57760329971559
C           22.75784580901628       63.87631718204404        3.60557898456747
C           23.14418964676657       63.57770439777020        4.89204318330544
C           23.11635112306901       64.84425589627183        5.61263480815731
C           23.61960342128704       66.20232175110905        7.60856994817733
C           24.20414737486925       66.33929888716206        8.91376709412906
C           23.99405319102551       67.64079091653954        9.29956485521150
C           23.29455594972729       68.27551982422770        8.19872761129502
C           22.22124871242079       70.20184153852982        7.11760067664457
C           21.67845762572157       71.54477204460129        7.16926513960161
C           21.11715402567312       71.77926664794488        5.94567608175581
C           21.32614758566566       70.57412411214304        5.16793230909894
C           20.90405269052090       70.41447547161761        3.86531552098385
H           20.36841242262818       71.23765372687619        3.41842729129630
C           22.07923125775154       65.98298252721669        2.45114893994667
H           22.02783921304725       65.44007697913437        1.51821310902367
C           23.55700235778548       65.00863517958980        6.91065935316134
H           23.92619526692181       64.13327549591156        7.42364035840883
C           22.86238249186415       69.58780545380776        8.17297073331425
H           23.02718889357242       70.18703699150753        9.05317245279294
C           20.92195874714027       67.35092673426639       -0.07458682205580
H           21.88451774874299       67.22872349441052       -0.57324525908884
H           20.29437804687565       67.98749390517347       -0.69441642564616
H           20.44904511741293       66.37165080370625       -0.01020565839206
C           20.05712930058352       70.25628633714493        0.87656924427920
H           20.32935804433534       71.24982524270450        1.22381244778009
H           18.97073589376994       70.16216030387226        0.93294019160445
H           20.34600658353817       70.17235928831371       -0.16983194502274
C           22.57082441585373       62.94379948701653        2.46159194265373
H           23.52974374964039       62.69406236785566        2.00345291732943
H           21.93286776944736       63.38153309561326        1.69748329817996
H           22.10556895976763       62.01849734487632        2.79941502830612
C           23.50034993263415       62.31812181220960        5.48925104667273
H           23.61717155417299       62.35129065357235        6.56594038018316
C           23.69864795573233       61.13834521118801        4.90044220905835
H           23.63589590894922       60.97940728553536        3.83851575347764
H           23.94842853266490       60.26754221901095        5.48373311074706
C           24.93601865563996       65.29258963034283        9.68176599894284
H           26.01346172313674       65.42447169541252        9.55510202889839
H           24.68342183945854       64.29006254488810        9.34624124268132
H           24.71338833702438       65.36324159183266       10.74520543460774
C           24.47140026691980       68.20762762746547       10.53931971574979
H           25.39886992335457       67.76348195535509       10.88689598719214
C           23.90243382317500       69.14710798426080       11.28821629557109
H           22.95854140490951       69.59894973759556       11.03863862425750
H           24.36733189519878       69.49767512400669       12.19438124830225
C           21.73632400486677       72.45966247231856        8.33908633583830
H           22.77053803213562       72.64110162956540        8.62715428837276
H           21.21226655866997       72.03100055483881        9.19213281170622
H           21.27006291726316       73.41242497699140        8.09922240970148
C           20.44341757246141       73.01854536489290        5.47243175281654
H           20.86130449832851       73.89286486307545        5.96770487297735
H           19.37451852980045       72.98634757130904        5.68595676717852
H           20.57593312612662       73.13889146785357        4.40146337013248
O           20.33414167062401       67.52805551394286        5.94309908898566
H           19.82754182745123       67.10610296765825        5.20489429460860
H           20.06378311360584       66.99350724045364        6.73239488038276
O           19.05971363286889       65.28242678995613        5.52445206103992
H           19.31113169407742       64.35566256866802        5.49189970414781
H           18.13919003529703       65.36397474368462        5.82394349063867
69
 energy: -103.609752046299 gnorm: 0.033237772841 xtb: 6.7.1 (edcfbbe)
Fe          22.36411082333319       67.77356169610633        5.34723042472639
N           21.71032604228524       68.15314271268953        3.50681993936178
N           22.68361392833023       65.86054402157359        4.80896155324652
N           23.12974608018607       67.40908762566005        7.15756298254949
N           22.03600368964910       69.65044862819563        5.87885466056257
C           21.12669731714811       69.30391329416159        3.08246696186020
C           20.74011303661851       69.20110253423411        1.69566331276231
C           21.10503607760336       67.95736737578551        1.28862113753935
C           21.68630117472999       67.30787242875508        2.43867103592055
C           22.47741346888103       65.29847009477351        3.58481661794400
C           22.74975671757438       63.89031755967607        3.60898320631864
C           23.14069573888393       63.59124619611593        4.89087332508908
C           23.11431088768888       64.85314265196777        5.61317994141751
C           23.62797350638855       66.21577819768224        7.59181139574121
C           24.20043056624495       66.35277153941298        8.90031846298539
C           23.98835517558180       67.65145487471904        9.28434559527138
C           23.30343925675965       68.28676693405610        8.18154386138690
C           22.25057123057793       70.20454999823110        7.10055662947050
C           21.70219738233181       71.54122594417278        7.15504902791652
C           21.13813083219333       71.77554585078163        5.93676846929544
C           21.35206248762051       70.57648029799151        5.15672030499343
C           20.92341636204957       70.42431434620751        3.85966813766241
H           20.38341832391049       71.24531672919680        3.41503722446355
C           22.06219711281578       65.98372322731090        2.45894481953737
H           21.99623957859892       65.43841378596818        1.53032815684738
C           23.56940351234863       65.01896256534576        6.90320558068373
H           23.95150555085739       64.14988285072630        7.41665241153382
C           22.88497150613269       69.60132442871151        8.16140644541349
H           23.04593231401622       70.19911916326751        9.04380137510778
C           20.93231241092494       67.34329147655514       -0.05927693853298
H           21.89807959215184       67.21403533099821       -0.55096201921277
H           20.30858633730573       67.97829543722303       -0.68507466925366
H           20.45662187378901       66.36535857213342        0.01556801809480
C           20.06698564356559       70.25973749930904        0.88920114652662