78
 energy: -115.968618232685 gnorm: 0.252491372404 xtb: 6.7.1 (edcfbbe)
Fe          28.28200000000000       91.05300000000000       52.25000000000000
N           29.32000000000000       92.66000000000000       51.62200000000000
N           29.49400000000000       90.91799999999999       53.87400000000000
N           27.31700000000000       89.40200000000000       52.82399999999999
N           27.20200000000000       91.09999999999999       50.58400000000000
C           29.07300000000000       93.38300000000000       50.45799999999999
C           29.90200000000000       94.54600000000001       50.48600000000000
C           30.68700000000000       94.54300000000001       51.61300000000000
C           30.29900000000000       93.34600000000000       52.31800000000000
C           30.49200000000000       91.80700000000000       54.25500000000000
C           31.10400000000000       91.36199999999998       55.46100000000000
C           30.52200000000000       90.19699999999999       55.80600000000000
C           29.47400000000000       89.92199999999998       54.82400000000000
C           27.52400000000000       88.65500000000000       53.98099999999999
C           26.48200000000000       87.66800000000001       54.15699999999999
C           25.64100000000000       87.78100000000001       53.09800000000000
C           26.16600000000000       88.83000000000000       52.25700000000000
C           26.16600000000000       90.22999999999999       50.21900000000000
C           25.72700000000000       90.52500000000001       48.86500000000000
C           26.45799999999999       91.59000000000000       48.43800000000000
C           27.33400000000000       91.95999999999999       49.53000000000000
C           28.20499999999999       93.05599999999998       49.44900000000000
H           28.19100000000000       93.67100000000001       48.55000000000000
C           30.80900000000000       92.95699999999998       53.55600000000000
H           31.53100000000000       93.62800000000000       54.02000000000000
C           28.56000000000000       88.90000000000001       54.89600000000000
H           28.64700000000000       88.21700000000000       55.74099999999999
C           25.65600000000000       89.18500000000000       51.02399999999999
H           24.80300000000000       88.62200000000000       50.64599999999999
C           31.71700000000000       95.57299999999999       52.07099999999999
H           31.77000000000000       96.39900000000000       51.33000000000000
H           32.71700000000000       95.09500000000000       52.14899999999999
H           31.41800000000000       95.99100000000000       53.05600000000000
C           29.92700000000000       95.52999999999999       49.36199999999999
H           28.89500000000000       95.68199999999999       48.97900000000000
H           30.56400000000000       95.14300000000000       48.53800000000000
H           30.32400000000000       96.50300000000000       49.72299999999999
C           32.17700000000000       92.16900000000000       56.16700000000000
H           31.91500000000000       93.24800000000000       56.12899999999999
H           33.15400000000000       92.01799999999999       55.66099999999999
H           32.24700000000000       91.85200000000000       57.23000000000000
C           30.76600000000000       89.35299999999998       56.94700000000000
H           29.92800000000000       88.77900000000000       57.36699999999999
C           32.02800000000000       89.19999999999999       57.58599999999999
H           32.91000000000000       89.74500000000000       57.21800000000000
H           32.13700000000000       88.53500000000000       58.45500000000000
C           26.40700000000000       86.83300000000000       55.41600000000000
H           26.46600000000000       87.49700000000000       56.30499999999999
H           27.25700000000000       86.11799999999999       55.44299999999999
H           25.44400000000000       86.27900000000000       55.44199999999999
C           24.37800000000000       87.13500000000001       52.83500000000000
H           23.53700000000000       87.71500000000000       52.42700000000000
C           24.18100000000000       85.78700000000001       53.08200000000000
H           24.99500000000000       85.16900000000000       53.49000000000000
H           23.20799999999999       85.31699999999999       52.87299999999999
C           24.68300000000000       89.69199999999999       48.15200000000000
H           23.73300000000000       89.71700000000000       48.72700000000000
H           25.03100000000000       88.64000000000000       48.07500000000000
H           24.50100000000000       90.10699999999999       47.13799999999999
C           26.41200000000000       92.27099999999999       47.09800000000000
H           25.95900000000000       93.27900000000000       47.21000000000000
H           25.79300000000000       91.67399999999999       46.39500000000000
H           27.44200000000000       92.38100000000000       46.69799999999999
O           27.21099999999999       92.11199999999998       53.10699999999999
H           27.53100000000000       92.99900000000000       52.94400000000000
H           26.50600000000000       91.88999999999999       53.60100000000000
C           30.75400000000000       87.23500000000000       48.81399999999999
H           31.03500000000000       86.26100000000000       49.26899999999999
H           31.59400000000000       87.59200000000000       48.18000000000000
H           29.84300000000000       87.09299999999999       48.19300000000000
N           31.44300000000000       88.60199999999999       50.83900000000000
H           32.37100000000000       88.23500000000000       50.89500000000000
C           30.47600000000000       88.24100000000000       49.90600000000000
C           30.88100000000000       89.52900000000000       51.63399999999999
H           31.40100000000000       89.99900000000000       52.46800000000000
N           29.62800000000000       89.77600000000000       51.25599999999999
C           29.35900000000000       88.97999999999999       50.15600000000000
H           28.39900000000000       89.01600000000001       49.65700000000000
78
 energy: -116.021459762394 gnorm: 0.104028601813 xtb: 6.7.1 (edcfbbe)
Fe          28.32970349774659       91.00007406895102       52.21464482831677
N           29.31093461072479       92.66581540164574       51.63492122714503
N           29.48630516531858       90.92201915280904       53.87925798671944
N           27.29957642267226       89.40041635069623       52.83943308340804
N           27.18208431722497       91.10416414818934       50.58740639069293
C           29.08194284369025       93.38090526181048       50.47958327252639
C           29.91580233699752       94.54908541603969       50.47698511882976
C           30.67855884791028       94.54035396206083       51.61138200782336
C           30.28113333444778       93.34842790927900       52.32352610574569
C           30.47357369118894       91.80722156263633       54.25040989878703
C           31.10833405999709       91.36930299960541       55.46006193550726
C           30.52343191731914       90.19016491284123       55.81869617730871
C           29.47321290273385       89.93657880063604       54.82745346940818
C           27.51935863500030       88.67436227116291       53.98468022236101
C           26.49149066184980       87.67890792539222       54.16615941311201
C           25.63899763828664       87.79028998154860       53.10119445704677
C           26.17057983955313       88.84827921615096       52.26540028654235
C           26.17687299561349       90.22855662504730       50.22294386917436
C           25.72847899095967       90.51647033608523       48.87497856697759
C           26.45572482893739       91.58290714277670       48.44139372814715
C           27.33750263146243       91.94927986960127       49.52986061944310
C           28.20525106836161       93.03757832227286       49.46779849899549
H           28.18654707684004       93.65243821907158       48.57412157949422
C           30.79857204923466       92.95671557150185       53.55158479153958
H           31.53255662515676       93.61615794886970       54.00341725599639
C           28.56095908637377       88.90507779394638       54.88685206718458
H           28.64481992499480       88.22196300096883       55.72541339234341
C           25.67025426718891       89.20441468404948       51.02514247326986
H           24.82411717847844       88.63853884330103       50.64621414457397
C           31.69958826250397       95.55553906245983       52.06392793904841
H           31.76793746707785       96.37850137487794       51.34386554716179
H           32.69316739963435       95.09931080479214       52.15100496708191
H           31.42369239499755       95.97770712553155       53.03828470096916
C           29.92873619461071       95.53721791578904       49.36091547046703
H           28.91387224431063       95.69154611528108       48.97835736683027
H           30.55558421318178       95.16230507881097       48.54265158992140
H           30.32237499800725       96.49809819590077       49.70463850729885
C           32.17073663525107       92.16365070169137       56.16375173601424
H           31.92265837495594       93.23055309812592       56.13138185639539
H           33.14207070433334       92.02172732197977       55.67462745311532
H           32.24790365665619       91.85699494261706       57.21189376123274
C           30.79373367983330       89.34956529055182       56.96036034209699
H           29.95717682206611       88.77927088460170       57.36190439401712
C           31.99593861800605       89.20849060797916       57.57135234554661
H           32.87932706148022       89.72509075992615       57.21417064917446
H           32.11815370966318       88.55443070479286       58.42831159752025
C           26.40535984186709       86.83703215898973       55.40560366372053
H           26.46447264065540       87.48096840337193       56.29170440690373
H           27.23856181228341       86.12487256038702       55.44407366654432
H           25.45992454473125       86.28635679650696       55.44049559837777
C           24.38545003025566       87.11094280629943       52.83943628679984
H           23.56209241174776       87.69632393728098       52.42824382905930
C           24.18302564086877       85.80547107508252       53.08326402646612
H           24.97890124912511       85.18176831481904       53.47337721062513
H           23.22777587663863       85.33239841806486       52.87989946871940
C           24.68984664672305       89.70123850007981       48.15967077010076
H           23.74556928266373       89.71535427340089       48.71625853326864
H           25.02159362570447       88.65949873169232       48.07365880047691
H           24.50330098013737       90.09683185060020       47.15586074545229
C           26.41031088497666       92.26720290508685       47.10960988166656
H           25.96631663758826       93.26631985062571       47.20442467820843
H           25.80617247383065       91.68821900742509       46.40388555109735
H           27.42104746996909       92.37841366058136       46.70016761626589
O           27.21247728996739       92.12274006928274       53.09927023727820
H           27.51742795704601       93.02409842158207       52.95792835031558
H           26.46387107724677       91.90103672735472       53.63044687138373
C           30.75849705419887       87.23344497380764       48.81761956177369
H           31.03453547422793       86.26839819157645       49.25719781433639
H           31.58160542108313       87.57929974342120       48.18233472004943
H           29.86314099919442       87.09773210794945       48.20497414298737
N           31.43599581881592       88.59434087117047       50.82578992501519
H           32.36861938221247       88.22634874521155       50.88777706320413
C           30.48606192229155       88.23413208374063       49.89212635273424
C           30.87714395265717       89.52550465332926       51.62229110708293
H           31.38643288397552       89.99221981774572       52.44957741977792
N           29.64474903666410       89.77464406686781       51.24747521465437
C           29.37900741231042       88.97766579599927       50.16395442649701
H           28.42238238550857       89.01271279600948       49.67428496684422
78
 energy: -116.037254976811 gnorm: 0.048143287059 xtb: 6.7.1 (edcfbbe)
Fe          28.35957775562292       90.97189561614672       52.19755357444729
N           29.31930154066311       92.65955121635596       51.63128380466902
N           29.49266027514963       90.91496644129121       53.87347139946917
N           27.29938430829195       89.39605765278607       52.84362511796917
N           27.19055107153392       91.08627892560263       50.57705132028052
C           29.09485850688957       93.37110989770989       50.49179661721895
C           29.92596238333325       94.54927847845616       50.46610952031592
C           30.66799938509805       94.53720097459083       51.60956051538528
C           30.27080230317674       93.34470773192659       52.32460748296080
C           30.45944304677977       91.80330225491792       54.24153025382787
C           31.10700070530004       91.37612110723015       55.45662965625676
C           30.51754449328737       90.19133931863065       55.82255972131564
C           29.47703449732330       89.94604764275279       54.82468533569317
C           27.51996870113139       88.69422951520549       53.98553611792546
C           26.49973444514201       87.69400198144533       54.17462912017387
C           25.64349121964605       87.80562558063409       53.10705998698942
C           26.18402023437699       88.86616901122154       52.27493347438445
C           26.19448166585322       90.22515907138741       50.22576497675661
C           25.73207824413816       90.50821164456832       48.88290306555117
C           26.45616161762461       91.57418423184158       48.44333557588443
C           27.34853224920022       91.93285530791356       49.52682497472198
C           28.20826634061710       93.01709254518381       49.48519213771404
H           28.18319774806510       93.63476062333014       48.59902464285213
C           30.79353416228109       92.95402682018862       53.54548746520201
H           31.53999105927562       93.60128185388700       53.98553929529361
C           28.56381029578329       88.91044818462039       54.87815797033099
H           28.64377393823928       88.22614171668818       55.71057169253638
C           25.68561904784505       89.22266422373977       51.03123993624163
H           24.84589197466381       88.65399745441820       50.65300834337813
C           31.68218802973984       95.53698184168904       52.06130388562286
H           31.75647008229662       96.35554768967125       51.34978549670591
H           32.66944918001418       95.08558391084296       52.15211526106452
H           31.41695426114868       95.95689534412232       53.03127369349594
C           29.93166491165295       95.54369073889382       49.35686526181044
H           28.92564412595615       95.70108735211183       48.97829018570634
H           30.55175061508937       95.18145248831557       48.53767465257540
H           30.32570953341789       96.49698544727225       49.69277962833573
C           32.16288382186882       92.15892940687795       56.15975479566324
H           31.92661632491132       93.22046201929798       56.13058686742321
H           33.13373225367370       92.01944070960054       55.68419391979558
H           32.24033755496782       91.85454870612124       57.19891294699732
C           30.80501692160262       89.34985028331741       56.96427613355227
H           29.96477230506139       88.78186191904524       57.34743083449249
C           31.97550436657145       89.20985244948064       57.55355411725262
H           32.86304588696100       89.70944195387727       57.20853247403844
H           32.10474101369827       88.57146220707125       58.41137881010478
C           26.40260577087155       86.84208888858188       55.39565809987851
H           26.46324263294923       87.46900745335302       56.28485302463202
H           27.22329945963872       86.12677213717733       55.43625055328216
H           25.46483579488605       86.29704879264420       55.42540769202839
C           24.40069242373309       87.09861401252550       52.84388852810888
H           23.59618469077554       87.69331939731779       52.42324185657645
C           24.19185047299989       85.81460743015504       53.08115095629686
H           24.97026431163967       85.18030368833924       53.46505468596764
H           23.24351572135648       85.34325594063409       52.88814992087809
C           24.69459858005535       89.70847127507143       48.16843090693760
H           23.75366908550740       89.71913924024093       48.71550831844410
H           25.01600007337071       88.67150173694965       48.07552514817626
H           24.51143689454272       90.09917615348874       47.17180705096231
C           26.40753017666211       92.26272172231572       47.11979631986225
H           25.97072432218495       93.25699749459554       47.21178398633732
H           25.80973393017316       91.69462878100911       46.41314851274340
H           27.40887287274642       92.37295088979346       46.70759627598704
O           27.17898275709442       92.14897759427258       53.10681823118258
H           27.46164457001687       93.06552983248240       53.00569232059971
H           26.42170343989710       91.93629401370852       53.66215345246169
C           30.76223423769046       87.23234820948396       48.81991956366325
H           31.03627268388691       86.27194917548648       49.25055106357176
H           31.57653323289414       87.56738390136547       48.18086575354086
H           29.87468933413831       87.10099089650359       48.21276375699823
N           31.43136272030758       88.59043667247222       50.81395230801301
H           32.36640400645197       88.22126660290408       50.87988985649665
C           30.49263291402432       88.23135306660119       49.88260380812174
C           30.87417142010321       89.52595427467814       51.61446677393629
H           31.37964820656891       89.98924288450037       52.43494720863166
N           29.64542315295073       89.77458453263927       51.25260589224987
C           29.39098156173910       88.98090831119998       50.17362088177133
H           28.43810414317831       89.00939350522923       49.68851523127888
78
 energy: -116.043073708107 gnorm: 0.038398010273 xtb: 6.7.1 (edcfbbe)
Fe          28.36815992175786       90.96819559478823       52.19495218578342
N           29.32461029835558       92.65313268192973       51.62400381744516
N           29.49210678779391       90.91554228879859       53.86913581970392
N           27.30507043371021       89.40045190087444       52.84711927153388
N           27.20489937394472       91.07278881846534       50.56986899651853
C           29.10566941779194       93.35918331804507       50.48865071469420
C           29.92996545986489       94.54583541738423       50.45585098149647
C           30.66027904257949       94.53273466207018       51.60507269354275
C           30.26821749644854       93.33890535897326       52.32065398048730
C           30.45486508024411       91.80163707392376       54.23212232851868
C           31.10395764460082       91.38117609976720       55.45087563373995
C           30.51074100662182       90.19699475247033       55.81727777195604
C           29.47903196223895       89.95153530387968       54.82022971729771
C           27.52428017025508       88.70664479108659       53.98889777513524
C           26.50543841401408       87.70552007094348       54.18048407484328
C           25.65291152289884       87.81601868164718       53.11089670258011
C           26.19695759570890       88.87535566781126       52.28029584347084
C           26.21204506553574       90.21730614430659       50.22548388877061
C           25.73708446944004       90.50152687817871       48.88698328557356
C           26.45999331009098       91.56501494331258       48.44382480959706
C           27.36260096880761       91.91789353600440       49.52100223008286
C           28.21782030900050       92.99974257851352       49.48582810897434
H           28.18439271166089       93.62360315005591       48.60667485646957
C           30.79747082966570       92.95032501936865       53.53649569437240
H           31.55478127087723       93.58800406187474       53.96762153481642
C           28.56832479978373       88.91372891695735       54.87592948742195
H           28.64770794110573       88.22730746508365       55.70426950340889
C           25.69834890902245       89.22594945737548       51.03517371434262
H           24.85782996796199       88.66027980089510       50.66130752781271
C           31.67169600629663       95.52301494434154       52.06377881631694
H           31.75011967987124       96.34204932765961       51.35550158092033
H           32.65426413012575       95.06424855730360       52.15586422369804
H           31.40621327457783       95.93654316972095       53.03505954245832
C           29.93460722667045       95.54716922949719       49.35191893638527
H           28.92924320274160       95.71191744716816       48.97739288652874
H           30.55030721035055       95.19483764882256       48.52562797477879
H           30.33325185955532       96.49799828858130       49.68895316602267
C           32.15742974353739       92.15742453030376       56.15751822056008
H           31.92984096837862       93.22019860506343       56.12916023272866
H           33.13121790009949       92.01336510032127       55.69020445132112
H           32.22757423095837       91.84958811744094       57.19528032418305
C           30.79643251050040       89.35368663231948       56.95848835362536
H           29.95216302354021       88.78766192156499       57.33299279035196
C           31.97212289887134       89.21297062648243       57.55026537383499
H           32.86573901446517       89.69515778147885       57.19809328808462
H           32.10265730159918       88.57207360361068       58.40463503487655
C           26.39950718600086       86.84457267968824       55.39011631812360
H           26.46260256089727       87.45757011594542       56.28810953316289
H           27.21180434309915       86.12030711580491       55.42482377018386
H           25.45771405426918       86.30811282785743       55.40616714448898
C           24.41825042815952       87.09906220718773       52.84315042745827
H           23.62572956591528       87.69918016859381       52.41084583983855
C           24.20056777866895       85.81656342801551       53.08569180224971
H           24.97179550376041       85.17075876191963       53.46392958852428
H           23.25279678655208       85.34925478039949       52.88717020980558
C           24.69409491839220       89.71205948084328       48.17640327235830
H           23.75404118099760       89.72628111124638       48.72294896149602
H           25.00765662968894       88.67375836499713       48.07892553058497
H           24.51487629648681       90.10721402528529       47.18215838442624
C           26.40512552548170       92.25909212645645       47.12638354258449
H           25.97269028880580       93.25334561372129       47.22567169418948
H           25.80393333921318       91.69759398808777       46.41886786264854
H           27.40429513453658       92.36808318930557       46.71124958756111
O           27.12742186212728       92.18083610040544       53.11769823234747
H           27.39602276415409       93.10797205265705       53.06803597714858
H           26.37876396952973       91.97499816314227       53.69674264300819
C           30.76366095166287       87.23129488174654       48.81933865820855
H           31.03805925341184       86.27137974352171       49.24952681442394
H           31.57627652409546       87.55949078289480       48.17494654825754
H           29.87548146135638       87.10017500735633       48.21452454814983
N           31.43566140073368       88.59205276683618       50.80605878330281
H           32.37060742767309       88.22191646445631       50.87211728035233
C           30.49711016369876       88.23214403159507       49.87896340034953
C           30.88040713241774       89.52700413343224       51.61160502452115
H           31.38821613742656       89.98904713281371       52.42869603521132
N           29.64747832783064       89.77684724102663       51.25700995802295
C           29.39530928473479       88.98038954358515       50.18108829745078
H           28.44259945430002       88.99940200270879       49.69831618249385
78
 energy: -116.048208610262 gnorm: 0.033453879243 xtb: 6.7.1 (edcfbbe)
Fe          28.37427513418256       90.96781098618736       52.19308439720502
N           29.32924307036858       92.64303825987888       51.61322421445918
N           29.48935407048029       90.91848656092519       53.86370786423927
N           27.31600267381133       89.40681823469697       52.84888006735719
N           27.22651565853213       91.05601297819474       50.56008609281720
C           29.11446808085963       93.34553192057380       50.47886229539361
C           29.93274044770845       94.53928412561206       50.44446309690392
C           30.65405520736832       94.52698250593684       51.59808394372618
C           30.26764845011582       93.33127972578083       52.31382208730113
C           30.45440945634356       91.80128487558996       54.22180212300856
C           31.10457486516886       91.38545675966378       55.44165800766903
C           30.50849824553610       90.20331661882274       55.80787781323848
C           29.47966615724538       89.95766459367769       54.81806552269021
C           27.53057958813877       88.71670505084433       53.99469569162959
C           26.51215755327011       87.71385133775705       54.18452712286978
C           25.66575391516246       87.82193256291512       53.11235196734963
C           26.20988431429983       88.88144675812021       52.28365907970078
C           26.22823953009906       90.20774113656979       50.22441535978078
C           25.74316938414847       90.49306018222288       48.88885153173536
C           26.46584635821580       91.55320290678841       48.44181493964722
C           27.37821179574886       91.90223620733697       49.51178420598335
C           28.22921290952944       92.98409740370107       49.47784237342033
H           28.19119322268550       93.61358271291316       48.60337454438240
C           30.80617199602612       92.94638773880408       53.52483069400865
H           31.57376455009778       93.57477498000998       53.94768084032959
C           28.57294029330845       88.91693740839315       54.87956090542305
H           28.65376481218945       88.22676005504937       55.70354005853208
C           25.70788637066111       89.22357050716998       51.03877831723506
H           24.86551996024913       88.66057341468503       50.66959090056742
C           31.66489832460154       95.51053101786259       52.06925260341329
H           31.75033807258790       96.33453852146619       51.36653421749028
H           32.64368873539132       95.04125952399787       52.16242364040531
H           31.39483372629293       95.91500111252262       53.04396940657120
C           29.93750461210702       95.54774333035517       49.34670701971902
H           28.92932732957959       95.72477011943202       48.97978201269510
H           30.54600181658602       95.20264252202615       48.50987688459750
H           30.34567494111830       96.49512227145256       49.69032801915560
C           32.15496042131839       92.15739426469572       56.15533769740156
H           31.93542770888884       93.22319982436004       56.12613361264464
H           33.13380043385702       92.00551313991939       55.69762874883224
H           32.21127176161838       91.84442371833089       57.19443747786391
C           30.78805210814574       89.35617492703662       56.94597342196709
H           29.94049802005374       88.80052878777285       57.32581168061191
C           31.97012206470543       89.20342566230990       57.53360085912951
H           32.86123998761690       89.69170429011311       57.18594328061866
H           32.09075875036463       88.57264160410627       58.39795032047198
C           26.39588301742673       86.84430566136199       55.38501607538475
H           26.46575186098015       87.44206463889307       56.29406434869172
H           27.19706032325899       86.10497138247433       55.40983489071013
H           25.44345091947732       86.32278824530611       55.38597684577159
C           24.43982113651701       87.10032638104896       52.83666631057572
H           23.65456023699741       87.70265085399838       52.39497703155165
C           24.21499078787057       85.81581588977949       53.08133667212307
H           24.97406690144828       85.16415817458440       53.47666574788393
H           23.26138036100282       85.35804555430630       52.88157844221651
C           24.68968490637390       89.71363656425079       48.18475372232226
H           23.75059383392022       89.73758822398399       48.73488493997716
H           24.99221605442895       88.67102791112110       48.08432523694710
H           24.51335100065088       90.11546249831180       47.19122206145838
C           26.40244219629331       92.25573490484328       47.13073307481266
H           25.97419784987210       93.25155512402149       47.24355308337135
H           25.79246985910523       91.70184375056800       46.42262374851850
H           27.40065996705869       92.36412489891639       46.71025099872002
O           27.04586484938581       92.23161769255309       53.12621218865827
H           27.30876736954230       93.16564527278432       53.16628001024539
H           26.32867981984310       92.03744253488307       53.75111739720658
C           30.76452058418104       87.22887070624454       48.81773884514113