78
 energy: -116.058047406366 gnorm: 0.000156930906 xtb: 6.7.1 (edcfbbe)
Fe         109.43894120940652       24.10812773119860       84.41040556564323
N          109.56570729922865       22.81183645536243       82.90251761402948
N          108.36064218267798       22.77176273591613       85.46742124633323
N          109.35357758751510       25.38922220331830       85.96378581699763
N          110.55357750634157       25.41079057900821       83.39902215580170
C          110.18846808981318       23.00601754083961       81.71295821325282
C          110.05101268839218       21.84130342438105       80.86476992803273
C          109.32921767994669       20.93511473347167       81.57513509775487
C          109.03271132221070       21.56153872770551       82.84601693626539
C          107.97421838563993       21.52930637399092       85.06163691358307
C          107.16646723959327       20.88997589611835       86.06578943490055
C          107.05488214976384       21.78486262629451       87.09863577998371
C          107.81651346279067       22.95174996324316       86.70093292109686
C          108.66768213767554       25.21758018337334       87.12940253115856
C          108.79242883131958       26.37800430539769       87.97199930961709
C          109.57151612551712       27.27191323275902       87.28432129202325
C          109.91011533336238       26.62639495560861       86.03230190569154
C          110.96229000583810       26.63784050247340       83.81556294345064
C          111.74894991495154       27.29191963514244       82.79092500933329
C          111.79995326463796       26.42861315385959       81.74301995123275
C          111.04694466490614       25.25882874953529       82.14377064628788
C          110.87660622588906       24.14600921792230       81.34432622598274
H          111.32637329990827       24.16203750057286       80.36338923249629
C          108.29342806269328       20.95490266671334       83.84188337367938
H          107.92143070406867       19.96029185387962       83.64823107146658
C          107.94431658044510       24.08923358522531       87.47437599197396
H          107.42834348486684       24.10505622977404       88.42189547669383
C          110.66712445574876       27.21567583485531       85.03560789599814
H          111.04452370911496       28.21030806039260       85.21766923406446
C          108.89741455589849       19.56050727305493       81.19299926590337
H          109.24193402584321       19.31179290901290       80.19234852529324
H          107.81011497776944       19.47806537709656       81.21135900586245
H          109.30359188001000       18.82473421857092       81.88742582407609
C          110.62373217730126       21.72744320096574       79.49385535654957
H          111.70929092598928       21.82150818477716       79.52513753688908
H          110.23464443708771       22.51560816671146       78.84890317680620
H          110.37620925315478       20.76678295586686       79.04874187250702
C          106.64008390886676       19.49924464489593       85.98601243477221
H          107.35824288321867       18.84267740175139       85.49711293817477
H          105.70961491675584       19.46495926119858       85.41646294147758
H          106.44349311347717       19.11728343014280       86.98581374485715
C          106.36724573822298       21.64031167856949       88.36218896724516
H          106.82381554918923       22.14718325774308       89.20459066754883
C          105.24388206674814       20.95703799117488       88.55710376411565
H          104.71946037767691       20.47312154875376       87.75180537609904
H          104.79392391509391       20.88053229056477       89.53304687307529
C          108.23210292307091       26.50529501904302       89.34554108291150
H          108.30561612503287       25.56031331163422       89.88201991812511
H          107.17975933362979       26.79209666233360       89.31152835887880
H          108.77761197881216       27.26453491408249       89.90235660170556
C          110.02265607858587       28.58756935214412       87.68044053276425
H          111.00517111088770       28.87273110862328       87.32201018306439
C          109.33382963061347       29.44826545152486       88.42281686049527
H          108.33563668133247       29.23856578943684       88.76557574390461
H          109.73878140131842       30.40967034542007       88.69224593817104
C          112.35325782070298       28.64699250174253       82.93144985328156
H          113.04849430379866       28.67103723616979       83.77089656746087
H          111.58116551641307       29.39593459734917       83.11043280547176
H          112.89565838574309       28.92351078253706       82.03073473317474
C          112.47709324601614       26.58111619481029       80.42447135643182
H          112.97331047101535       27.54590667738711       80.35314112832759
H          111.75472320744892       26.50534306670342       79.61140209173324
H          113.22462527687435       25.79974565067498       80.28670114874896
O          111.28851770873575       23.21128233672972       85.43086474495898
H          111.41489159269943       23.84989382455248       86.14114476985338
H          110.89507901731184       22.42430882601600       85.82337757423427
C          105.38466330363379       27.52584336850897       82.69528227593665
H          104.44452524820618       27.51150820950316       83.24648375596293
H          105.15494776545511       27.56185107740251       81.63037905591490
H          105.93190456208835       28.42391433724611       82.96392017358146
N          105.76158772061325       25.05207086003897       82.79682536202577
H          104.86860273560390       24.79724623708918       82.40795184702991
C          106.20336923351806       26.33011710296437       83.01841674511685
C          106.73717954813006       24.20601248874410       83.19735808883401
H          106.66716950740204       23.13925682935887       83.14163212614540
N          107.76907833470874       24.87032826411977       83.65837198252468
C          107.45228856188510       26.19286672823181       83.55291093004834
H          108.13804336211591       26.95185839871939       83.86769767712569
