77
 energy: -118.455793276654 gnorm: 0.386456671799 xtb: 6.7.1 (edcfbbe)
Fe          48.01800000000000       55.91900000000000       33.77800000000000
N           47.27400000000000       54.93800000000000       32.21000000000000
N           49.88800000000000       55.72199999999999       33.09900000000000
N           48.83700000000000       56.76200000000000       35.39200000000000
N           46.26500000000000       56.08100000000000       34.52399999999999
C           45.95800000000000       54.57800000000000       32.01500000000000
C           45.84800000000000       53.85100000000000       30.76600000000000
C           47.06500000000000       53.78500000000000       30.25900000000000
C           47.97400000000000       54.48599999999999       31.14500000000000
C           50.18700000000000       55.15200000000000       31.86300000000000
C           51.56100000000000       55.19300000000000       31.63400000000000
C           52.13699999999999       55.74900000000000       32.72800000000000
C           51.08800000000000       56.11599999999999       33.63300000000000
C           50.16700000000000       56.87500000000000       35.70600000000000
C           50.30700000000000       57.37400000000000       37.01700000000000
C           49.04100000000000       57.56200000000000       37.51100000000000
C           48.15699999999999       57.20900000000000       36.48500000000000
C           45.90800000000000       56.72200000000000       35.70900000000000
C           44.48100000000000       56.66199999999999       35.89900000000000
C           43.97800000000000       56.00399999999999       34.84300000000000
C           45.07200000000000       55.63900000000000       34.00000000000000
C           44.95000000000000       54.84200000000000       32.88700000000000
H           43.97800000000000       54.39099999999999       32.69000000000000
C           49.29500000000000       54.64299999999999       30.98800000000000
H           49.70100000000000       54.31800000000000       30.03100000000000
C           51.23999999999999       56.55000000000000       34.92000000000000
H           52.24399999999999       56.64000000000000       35.33300000000000
C           46.79600000000000       57.26800000000000       36.55100000000000
H           46.38100000000000       57.82600000000000       37.38900000000000
C           47.51600000000000       53.07100000000000       28.97200000000000
H           46.64000000000000       52.58700000000000       28.49000000000000
H           48.26800000000000       52.29099999999999       29.21900000000000
H           47.95300000000000       53.81000000000000       28.26700000000000
C           44.55700000000000       53.09400000000000       30.30900000000000
H           43.66100000000000       53.69700000000000       30.57000000000000
H           44.49400000000000       52.11300000000000       30.82600000000000
H           44.58100000000000       52.94200000000000       29.20900000000000
C           52.27799999999999       54.55800000000000       30.42100000000000
H           51.88900000000000       55.00900000000000       29.48300000000000
H           52.08599999999999       53.46400000000000       30.40200000000000
H           53.37000000000000       54.74999999999999       30.48800000000000
C           53.65100000000000       55.89299999999999       32.98400000000000
H           54.36900000000000       55.11399999999999       32.69100000000000
C           54.15000000000000       57.18800000000000       33.67800000000000
H           53.43800000000000       57.97300000000000       33.97400000000000
H           55.22099999999999       57.33499999999999       33.88099999999999
C           51.70300000000000       57.60499999999999       37.63500000000000
H           52.26500000000000       58.33899999999999       37.01800000000000
H           52.26600000000000       56.64800000000000       37.65799999999999
H           51.59600000000000       58.00700000000000       38.66500000000000
C           48.49300000000000       57.84700000000000       38.93500000000000
H           47.48199999999999       57.54600000000000       39.24400000000000
C           49.38700000000000       58.55200000000000       39.89100000000000
H           50.33100000000000       58.99999999999999       39.54600000000000
H           49.11500000000000       58.63300000000000       40.95400000000000
C           43.74100000000000       57.30299999999999       37.09499999999999
H           43.92499999999999       58.39899999999999       37.10100000000000
H           44.11800000000000       56.86899999999999       38.04600000000000
H           42.64900000000000       57.12100000000000       37.00200000000000
C           42.58500000000000       55.48599999999999       34.58000000000000
H           41.89100000000000       55.88000000000000       35.35299999999999
H           42.58300000000000       54.37599999999999       34.62500000000000
H           42.24100000000000       55.82600000000000       33.58000000000000
O           48.06800000000000       54.23100000000000       34.42400000000000
O           47.98199999999999       54.07000000000000       35.58100000000000
C           47.45600000000000       59.99200000000000       29.84800000000000
H           48.01400000000000       60.95100000000000       29.90200000000000
H           46.39700000000000       60.20499999999999       29.58800000000000
H           47.91700000000000       59.35100000000000       29.06700000000000
N           47.03900000000000       59.84399999999999       32.35200000000000
H           46.60499999999999       60.74200000000000       32.42800000000000
C           47.52200000000000       59.29699999999999       31.18100000000000
C           47.25300000000000       58.96699999999999       33.36200000000000
H           46.95700000000000       59.15199999999999       34.39400000000000
N           47.85699999999999       57.88800000000000       32.91000000000000
C           48.03099999999999       58.08400000000000       31.50700000000000
H           48.50400000000000       57.32600000000000       30.89500000000000
77
 energy: -118.563552521516 gnorm: 0.175574803200 xtb: 6.7.1 (edcfbbe)
Fe          48.03164785582324       55.89099438400273       33.78696824047726
N           47.25860079981575       54.95807961355924       32.19423452554860
N           49.89851404127958       55.73366408508782       33.07663811662270
N           48.83827709310067       56.76067647563755       35.39986616377188
N           46.24784221628218       56.09697498531689       34.52151311322734
C           45.95877503822982       54.56912962586541       32.00931263850220
C           45.83201060448502       53.82152919738498       30.77214192119659
C           47.06783347108174       53.77121814806739       30.23700938148739
C           47.95686336033258       54.48661952717652       31.13347124951553
C           50.20177842635513       55.16781462256157       31.85840893711336
C           51.60175196839432       55.17912512936201       31.63510206461765
C           52.18433608006909       55.75649097996317       32.73719634695190
C           51.09844339804789       56.09857095952921       33.62764250214386
C           50.16386123426660       56.87626583577748       35.72049593190046
C           50.31763426247439       57.38146905671914       37.04548149375509
C           49.04439098047249       57.57169374267736       37.55365234220807
C           48.15993888164193       57.20713851467110       36.49458600489208
C           45.89533429585983       56.73149024569042       35.69706741394678
C           44.46928759667616       56.67398699352382       35.90576087451529
C           43.96433596781900       55.98682403890861       34.85100510423167
C           45.06979923043269       55.63029457448033       34.00841861346949
C           44.94308050404575       54.83999975290339       32.88452891409602
H           43.97540623981493       54.40093614338010       32.68384095627429
C           49.30014129604948       54.64177099883290       30.96726168729041
H           49.70751366083371       54.30305308972681       30.02490369977694
C           51.23988115073701       56.55177861879236       34.91791536824343
H           52.23788317358323       56.64523677330222       35.32623355628526
C           46.78813829217109       57.28149019450981       36.56321687320557
H           46.37604162095180       57.81996452016012       37.40521923718809
C           47.51357229995069       53.07482235139970       28.97527113984661
H           46.65473381133975       52.59313417386030       28.49603475387389
H           48.25850734385514       52.30548212128210       29.21407326708978
H           47.94978105662057       53.79842034256720       28.27559372586375
C           44.56655978089265       53.10707591327981       30.31341173971267
H           43.67448428343189       53.69119602946288       30.56603808097498
H           44.49942474710711       52.13310113916802       30.81654092926339
H           44.58302599582332       52.94611438153832       29.22918898121246
C           52.27875316532177       54.56538004401819       30.42881699892931
H           51.89589560349063       55.00429568525003       29.49784879893264
H           52.09035546938441       53.48352228155574       30.40439952973350
H           53.35600203441551       54.74618563637814       30.48568657954962
C           53.64158119043788       55.96442400229719       33.01576011614239
H           54.33761272249987       55.17202806795522       32.70819444088886
C           54.12428383591197       57.12531872624184       33.65174817612980
H           53.44879771809101       57.93040398069218       33.94633001044407
H           55.18280192686414       57.29871077474012       33.85856371568958
C           51.69158528959594       57.60500022005013       37.63712853215403
H           52.25251764160106       58.32811500698413       37.02846904765489
H           52.25379690056092       56.66260967877125       37.65930507781583
H           51.60675785519781       57.99334158657540       38.65330325752592
C           48.55569843485032       57.87993097086402       38.94003814581350
H           47.54717804229081       57.55496385367565       39.23015150406472
C           49.35716415238431       58.53068888379461       39.86077930027720
H           50.29637916727840       58.98253224472779       39.55163115981169
H           49.09654010895299       58.62771659225081       40.91421701588085
C           43.74819321033931       57.29829462380113       37.08339694013706
H           43.92277049534080       58.38254367002385       37.09988737666595
H           44.11193540211464       56.87395212622048       38.02823896610398
H           42.66938325949886       57.12187868026528       37.00433042035596
C           42.58015374998290       55.49204778440604       34.58413996203021
H           41.89140905283808       55.87467584134905       35.34313884433359
H           42.57721661362984       54.39465599429002       34.62414936545508
H           42.24061524784454       55.81918269512331       33.59341077237125
O           48.08288584606424       54.24593851971262       34.41703029495616
O           47.97672908465547       54.05473166037144       35.62694642610269
C           47.45645881634312       59.99103530622018       29.85765893074020
H           48.00552870152271       60.94080156439654       29.89928039954864
H           46.41304558925486       60.20317011552007       29.58920108041114
H           47.90716865576971       59.36130669791142       29.08199461862611
N           47.04037330760740       59.84342336835715       32.34760599692172
H           46.60440521745598       60.74603783424794       32.42757310917711
C           47.52310577927185       59.29764085398616       31.18069528461075
C           47.25620062786118       58.96280059212270       33.34803135158604
H           46.96585464062954       59.14467698723823       34.37479436557519
N           47.84727427151711       57.88106369723854       32.89481261026809
C           48.02808479931319       58.08245001258885       31.52116278760450
H           48.49907431186655       57.33189585765761       30.91090279868727
77
 energy: -118.591456633516 gnorm: 0.110847367065 xtb: 6.7.1 (edcfbbe)
Fe          48.04737835999021       55.85205179676060       33.80755318136629
N           47.25029019941638       54.97652244672621       32.17753945669857
N           49.90754032874271       55.74307238454620       33.05082934261000
N           48.83992395017081       56.75840628676713       35.41481175271302
N           46.22935026224373       56.11573792866388       34.52282041546477
C           45.96374015966052       54.56286634035726       32.00468812790388
C           45.82707444847707       53.79886866982068       30.78073967924609
C           47.07369240052626       53.76427431424786       30.22272918290445
C           47.94879829828072       54.49413675980987       31.12004294941132
C           50.21308972746557       55.18345771199076       31.84995501209318
C           51.63531371516324       55.17343043718394       31.63746029028861
C           52.21468592985676       55.76361186928909       32.74548419138917
C           51.10118444230542       56.08610884400724       33.62210482885569
C           50.16067184229645       56.87507636619301       35.73511281390230
C           50.32492117439170       57.38975406911209       37.06734409689565
C           49.04876025012647       57.58306182798400       37.58249198421870
C           48.15940969555403       57.20428843788148       36.50491393158622
C           45.88661935156134       56.74723777361987       35.68606229957926
C           44.46128812801098       56.68665586404494       35.90830576674570
C           43.95469362118546       55.96824782552201       34.86144360260244
C           45.06782078453491       55.62106936354685       34.01721767741904
C           44.93746527930599       54.84145579848984       32.88050756466783
H           43.96980820893029       54.41516897796653       32.67409044726828
C           49.30902471903278       54.64358261816501       30.94556105917761
H           49.71886302993475       54.28007919422470       30.01838539155474
C           51.23295571773505       56.55440435173189       34.91474776932890
H           52.22832789656815       56.65307173627185       35.31685510414242
C           46.78081629192414       57.29509502161415       36.57823835034227
H           46.36876372248514       57.80756309317152       37.43123629803989
C           47.51057081297808       53.07965766682910       28.97985970773474
H           46.66507751208791       52.59753353152269       28.49840239390948
H           48.25316205888559       52.31691483719439       29.20974628306840
H           47.95009836736687       53.79024426338578       28.28138920832469
C           44.58295084414033       53.11906180770823       30.32171627670878
H           43.69202254725052       53.69238333880431       30.56585497561227
H           44.50116119360564       52.14643509277107       30.81078193235374
H           44.59376708706168       52.95298718896759       29.24671198761472
C           52.28651174014842       54.57522104107086       30.44151807888850
H           51.90213946055381       55.00625087769028       29.51679228782792
H           52.09695574911563       53.50086372031785       30.40913484082175
H           53.35710499281129       54.74213556040750       30.48115780560007
C           53.62910919290647       56.01607328145641       33.04368915283676
H           54.30750915820310       55.22161650658974       32.71706200669224
C           54.08600337856448       57.07156936640828       33.61224428117219
H           53.44868367601477       57.89541978081749       33.91985328466231
H           55.13500390923643       57.24779178173698       33.83218909990028
C           51.67823406051006       57.60459620194960       37.64493063234537
H           52.23805785178664       58.31964377082649       37.03934390709608
H           52.24046951434359       56.67067760895626       37.65960049249379
H           51.61769545369329       57.98210523986950       38.65579187249406
C           48.61019705325101       57.89750063566796       38.93546385091304
H           47.60954731157351       57.54830078734835       39.20788758141985
C           49.34011798364056       58.51738074862231       39.82786447221692
H           50.28507172906708       58.96750400316101       39.56366036311248
H           49.06619967053676       58.63557360942898       40.86766940269696
C           43.75433757334038       57.29473915247738       37.06960505307285
H           43.92290498615243       58.37167534210388       37.09795056711395
H           44.11101558315379       56.87393370704342       38.00936064708617
H           42.68386628605544       57.11993807129303       37.00234695567133
C           42.57398726744989       55.49628304807064       34.59237457829001
H           41.88569225896180       55.87331224567195       35.33942012559784
H           42.56250093776892       54.40665726564378       34.62457019329848
H           42.23903809726415       55.81613185186755       33.60681204182929
O           48.10506424765734       54.27520589315363       34.42844272257378
O           47.96725045656832       54.04603021887057       35.66116249936891
C           47.45810819681828       59.99058098468120       29.86667615559738
H           48.00037653275182       60.93475334909452       29.90079016867865
H           46.42434446492888       60.20160415305126       29.59413351906706
H           47.90062192021454       59.36637975711287       29.09560682395428
N           47.04332981145867       59.84204151993733       32.34320112593848
H           46.60750861865014       60.74778240553012       32.42741400432234
C           47.52504296886462       59.29773883205184       31.17958003223684
C           47.25484967961054       58.95626059881666       33.33485763477775
H           46.97339343130363       59.13425615043066       34.35721703139372
N           47.83841810481917       57.87260387839770       32.87812105369124
C           48.02044518609150       58.07652013794714       31.53378857275734
H           48.49320914490504       57.33477107753330       30.92297974674842
77
 energy: -118.599629671356 gnorm: 0.031634520046 xtb: 6.7.1 (edcfbbe)
Fe          48.05182642693747       55.83137373356234       33.81997820412482
N           47.25276847455197       54.98619052079875       32.16568096334053
N           49.90391998118146       55.74716247299471       33.03055666671621
N           48.83727631380858       56.75244709237768       35.42307355301166
N           46.22173001973523       56.12573453753641       34.52355960110333
C           45.96836485347643       54.56331715366097       32.00358611164184
C           45.83391030386640       53.79156926755682       30.78696735426808
C           47.07736723756125       53.76242524991250       30.21944546845496
C           47.95056338621538       54.50348121354974       31.10509769453157
C           50.21297479998842       55.18987448708223       31.83081030781549
C           51.63869996102204       55.17077815182715       31.63029631320243
C           52.20272051274231       55.75316358723962       32.74167401167308
C           51.09247032541442       56.08021490847099       33.61497822287711
C           50.15852801344305       56.87130663351914       35.73663992110732
C           50.32910906830569       57.38953833723881       37.06731800309518
C           49.05734744197005       57.58492267986902       37.57747065386631
C           48.15599872268621       57.20176211989419       36.50967044184590
C           45.88196798812811       56.76024142665446       35.68295383774425
C           44.45718337910752       56.69118963276190       35.90422254455985
C           43.94941533684840       55.95903468142170       34.86716522482334
C           45.06407716549844       55.61611998651301       34.02074214556447
C           44.93754630929806       54.84427980375373       32.87823720930388
H           43.96477943896114       54.43442293088840       32.65892745658667
C           49.31252217660308       54.64654045969661       30.92405901794102
H           49.72769918894905       54.24852618548028       30.00970643979028
C           51.22376893976315       56.55267969308639       34.90669237678918
H           52.22041674157264       56.66399637853698       35.30093084180249
C           46.77646907538642       57.29938318294916       36.58735219815510
H           46.36320949009059       57.78372051031704       37.46015641884892
C           47.51251688924881       53.08082475927813       28.97683258821079
H           46.67009207873941       52.59684530815619       28.49426937993673
H           48.25704008789196       52.32094854826159       29.20473105673973
H           47.95397969405445       53.78922688961292       28.27871384692271
C           44.59037738482303       53.12413316613888       30.32694081703255
H           43.70502919442209       53.70462530039971       30.56915003057131
H           44.49973616520450       52.15145468110144       30.81129390150298
H           44.60796733258729       52.96143818519111       29.25329878647683
C           52.30080595666950       54.58100104294172       30.44216382226933
H           51.91479765468110       55.01673139332189       29.52245863796174
H           52.10879704195767       53.50879622933619       30.40830313595530
H           53.37191539281616       54.74255510335332       30.47915544318173
C           53.60428975746429       55.99431837017093       33.03003045666254
H           54.28159233024493       55.21303652608344       32.69812342515785
C           54.08767349157943       57.08663638042889       33.62970350268037
H           53.45568372033319       57.91856711470675       33.90894130606673
H           55.13830609783721       57.23371171403296       33.82265419705789
C           51.67674659251136       57.59815911041264       37.65249168698190
H           52.23275472381511       58.31784858149794       37.05208667196766
H           52.23482672512828       56.66364223694030       37.65503954457876
H           51.63127599063654       57.96123197165581       38.66954033301571
C           48.63146204194579       57.89884882866230       38.91923620646078
H           47.64778660540068       57.52095304478775       39.18651079610414
C           49.34326031434068       58.54011144383051       39.83841874072014
H           50.29555940662939       58.98568360519356       39.60326750586380
H           49.01516848616034       58.66971734957167       40.85723496954911
C           43.75448833057892       57.29513442810881       37.06343190267453
H           43.92223078231960       58.37080002953579       37.09618591256477
H           44.11481710842541       56.86928024976901       37.99770539150587
H           42.68623003243156       57.11649628776896       36.99927205907587
C           42.56348085794065       55.49891531353048       34.60204132930190
H           41.87317760282337       55.87986423728348       35.34497731971732
H           42.53668567478569       54.41066322195478       34.63119020917124
H           42.23064016269287       55.81913408957436       33.61705222700506
O           48.12469316217994       54.29044099157978       34.47016425921419
O           47.96546815740489       54.05454407326503       35.70305377601769
C           47.46050735043311       59.99109432797732       29.87232028454421
H           48.00150792561994       60.93471198849056       29.90598603806973
H           46.42825945716602       60.20298666666903       29.59989561733208
H           47.89955926294076       59.36699070644696       29.10180080712140
N           47.04640963307862       59.83721104080519       32.34170374317268
H           46.61651342723460       60.74582982787704       32.42876318145038
C           47.52675941947628       59.29388510317863       31.17909109874634
C           47.24858971801832       58.94503394778945       33.32871518952187
H           46.97438488623663       59.12057242042609       34.35007487998310
N           47.82320147049887       57.85747202369890       32.86944188273245
C           48.01284396549908       58.06744860483614       31.53231552599313
H           48.48647938197874       57.32804651521496       30.92227737086938
77
 energy: -118.602476255147 gnorm: 0.021622295633 xtb: 6.7.1 (edcfbbe)
Fe          48.05763682610672       55.81727553053280       33.83073180484175
N           47.26164560471830       54.98302887605011       32.16327716973911
N           49.90074270286357       55.74318489742533       33.01466140157505
N           48.83461066830201       56.74881549868855       35.43052498750012
N           46.21708071344290       56.12953381283469       34.52781605522583
C           45.97730043712860       54.56394289083504       32.00487280866135
C           45.84324746659308       53.79047953436225       30.79224962023928
C           47.08336839584406       53.76255213034037       30.21746436608290
C           47.95771911018583       54.50344245115402       31.09713187853505
C           50.21503387552394       55.18683923406557       31.81572932092009
C           51.64248833742764       55.16937378684920       31.62380381790464
C           52.19307260951847       55.75336688045770       32.73754381617351
C           51.08198864220658       56.08026076255666       33.60664487140003
C           50.15665293193158       56.86824592486307       35.73595802642722
C           50.33409831232876       57.38470339043668       37.06604217874876
C           49.06682475528196       57.57728579894422       37.57757850489571
C           48.15215560467274       57.19284338455018       36.51828219482699
C           45.87999780984693       56.76273238978452       35.68524435750103
C           44.45447299522658       56.69291043161709       35.90167581733546
C           43.94580117370706       55.95187815684552       34.87229850553193
C           45.06179249070503       55.61192497376900       34.02361580283047
C           44.94045418279615       54.85188978106967       32.87472915822982
H           43.96367273823880       54.45706963836152       32.64241779232547
C           49.31904782070816       54.63903239371444       30.90802300396985
H           49.73473264492122       54.22110327973333       30.00216827653631
C           51.21384497812605       56.55576038873071       34.89498459512759
H           52.21301093385772       56.67863794465622       35.27993740000637
C           46.77415329243087       57.29122653331641       36.60220825199971
H           46.35930483048591       57.75253752368511       37.48790813227358
C           47.51616950109590       53.08208099592847       28.97197606181189
H           46.67390887623527       52.59898404448348       28.48681605654997
H           48.26112171474180       52.32041164937810       29.19728041315051
H           47.96027890193633       53.79136709846136       28.27515579295725
C           44.59700865205022       53.12970752415457       30.32973371812296
H           43.71809538065742       53.72191208147417       30.56921879207726
H           44.49126211301810       52.15665432456178       30.81209037891935
H           44.62130611322884       52.96912497847814       29.25543836526451
C           52.31781292502483       54.58840088628020       30.43822254428641
H           51.93460838557661       55.02924827823066       29.51960715672602
H           52.13074683460506       53.51493745209171       30.39866867023722
H           53.38934917938384       54.75142354168274       30.47990578263016
C           53.59038801316150       55.99382713914407       33.01825746866182
H           54.27344288147326       55.22250247414492       32.69203786903813
C           54.07496406054236       57.08892540908818       33.60395535616973
H           53.44270369947466       57.90695578063185       33.90270990193098
H           55.12593479818128       57.19852031563041       33.80390790491071
C           51.68035135361192       57.58406710294726       37.65804861858582
H           52.23537245017179       58.31814290714411       37.07342456281220
H           52.23738293262748       56.64798567080405       37.64073131966686
H           51.63663924114856       57.92370661391757       38.68485137287279
C           48.64567016939016       57.89886402891342       38.91697005181815
H           47.67020371863974       57.51143065033271       39.18144359474766
C           49.33723391813180       58.57037750539807       39.84490338604784
H           50.28529292633581       59.03583301523500       39.63595187104816
H           48.96187975184063       58.70183028352493       40.84653638655091
C           43.75185725210503       57.29599619752398       37.06108983596753
H           43.92147921257130       58.37151187594211       37.09901929331314
H           44.11430920725157       56.86356327666297       37.99225789219870
H           42.68319796609543       57.11738545906258       36.99724785407921
C           42.55334226038908       55.50380729499243       34.61282536974217
H           41.86677351407374       55.89361359488274       35.35663167290758
H           42.50666089680584       54.41511077532434       34.64046771014846
H           42.22092602265903       55.82992641517616       33.62880034268444
O           48.14322198723990       54.31785508707641       34.51558665444443
O           47.97017394637081       54.07188160445897       35.74600263636223
C           47.46474008082190       59.99317632137007       29.87525353110100
H           48.00680996995543       60.93639040751203       29.91322077094968
H           46.43162318460245       60.20758360863937       29.60595076766947
H           47.90171053190812       59.37019637425614       29.10200358417237
N           47.05128443348384       59.83104239337307       32.34114531842592
H           46.62782510265917       60.74208632162512       32.43191027910731