87
 energy: -128.467560102701 gnorm: 0.000041750683 xtb: 6.7.1 (edcfbbe)
Fe          17.25224285251666       54.41221845136906       35.36815843656652
N           16.94017972256912       56.38343903189849       35.20469485084166
N           15.39269901489963       54.05998182858266       34.71080470898728
N           17.58393287243636       52.43870099398666       35.49692114579738
N           19.09712584737850       54.76509081269946       36.06247985533503
C           17.79768059747762       57.37760888040728       35.54712497346760
C           17.22425829765133       58.67319573530525       35.25090606463755
C           15.99904796906256       58.43365467436908       34.71310423923157
C           15.83647472187570       56.99534560636974       34.70037090281608
C           14.48471034734796       54.98579919517420       34.30393272255728
C           13.24595870915686       54.35572581498270       33.93114430891607
C           13.40974737570265       53.01473965673480       34.15653407736619
C           14.77617383938790       52.85371661260809       34.61649717072495
C           16.70575633408567       51.44480149962343       35.19028043944504
C           17.31981337859128       50.15221566495219       35.34790484795041
C           18.60342309147656       50.38488417586756       35.77019327501482
C           18.74147363143216       51.82624691435653       35.84911907744214
C           20.03345718339263       53.83994938972035       36.39715253241589
C           21.23047501749381       54.48155466063562       36.89631802083613
C           20.99077871615082       55.81947129726085       36.85502748656128
C           19.65388282779195       55.97566478436865       36.32454336579939
C           19.05689382779942       57.20095946085281       36.09139132393612
H           19.62429898859217       58.08682990073027       36.33463131186394
C           14.69196949540277       56.35555193177985       34.26777165978285
H           13.88521773608509       56.97005881781775       33.89683021258742
C           15.38954396139149       51.62945375367136       34.80077407239659
H           14.79850227922256       50.74788368257121       34.60596545997512
C           19.88585674209277       52.46999747266507       36.28636703275748
H           20.72619627768928       51.85627591942507       36.57454533633902
C           14.97608337572210       59.40082785257531       34.22257481932769
H           15.33663291771090       60.42310306967509       34.30861031973876
H           14.05522121612014       59.31287052472276       34.80023050238623
H           14.73745458156548       59.20812178668510       33.17633627878284
C           17.90561211423266       59.97403539936372       35.50790592158341
H           18.83874707126768       60.03669920278168       34.94705934428928
H           18.14107702525287       60.08028222659016       36.56718796657588
H           17.27293975787835       60.80786156420113       35.21306979707304
C           12.02803203692470       55.07301527227056       33.45896244916212
H           12.26080876812828       55.70037647491137       32.59804775145308
H           11.63072027896062       55.71583561963219       34.24562359907532
H           11.25211035009274       54.36608144810990       33.17546551850516
C           12.41657464446010       51.97740845480835       33.97452902989296
H           11.75146540887678       52.11600117638125       33.12806015051471
C           12.23653543801191       50.92568917064079       34.76626187162078
H           12.83062317366561       50.76837412858336       35.65035599505794
H           11.46855565035317       50.19586192468417       34.56870282819821
C           16.67104509590859       48.84848452439924       35.03458271604695
H           16.01346829597118       48.94110315426164       34.17141512460808
H           16.07149647346269       48.49856395615619       35.87684275499624
H           17.42804582628469       48.09704644823395       34.81784869596276
C           19.65668218027590       49.43945197432600       36.06296932416215
H           20.66297758659664       49.78062529050798       35.84739565835356
C           19.48791083612020       48.22214772843230       36.57070460042844
H           20.32351602728608       47.56550702282585       36.74926842835617
H           18.51920680222733       47.84603431839562       36.84953126097339
C           22.45019633706377       53.75363934005863       37.34929656450836
H           22.86978313661584       53.16480430725203       36.53305991856227
H           22.21157411899018       53.07311134930484       38.16731763416445
H           23.21114081770408       54.44969423571298       37.69420992311579
C           21.87707016841408       56.95087245698307       37.25141796171216
H           22.81891603133382       56.58350353795759       37.65199371623928
H           21.39651139484363       57.56578459433929       38.01275422538802
H           22.09546278724309       57.58694547468336       36.39289411910852
C           19.94802875605565       55.45633625076720       30.58207837667742
H           19.36186748177772       55.79085971206355       29.72600108868084
H           20.67093063072366       54.71904873302779       30.23268117233658
H           20.48690119742083       56.30663312928445       30.98823325528610
N           18.27144836719153       53.78702896660563       31.40344978766509
H           18.20011432815366       53.27975787048423       30.53679554414130
C           19.06926324918225       54.87835618753139       31.63046228584100
C           17.60705335402118       53.52064678589461       32.55088704055604
H           16.90952877686926       52.71699252200958       32.66769389773211
N           17.93512272510943       54.37504559287981       33.48818678395293
C           18.84324308530279       55.22585625429237       32.93128548584426
H           19.26979361192035       56.02483565201628       33.50123311343342
C           14.29919583700014       55.30967610435630       40.02930479423777
H           14.77178630312934       55.86159567503481       40.84194336072972
H           13.76270048138638       54.46357517416943       40.45890779513027
H           13.58394696213203       55.96059624030310       39.53627944281666
N           16.34365412752854       54.01351326908951       39.38674173130332
H           16.51849913684683       53.63791474646222       40.30427073516616
C           15.31132340123431       54.84826287588718       39.04541881646660
C           17.07410960829150       53.78915286483141       38.27091364008990
H           17.94639540835166       53.16949606772921       38.23881247184485
N           16.56816301301766       54.42993008208355       37.24649287947422
C           15.47176101174160       55.09325039414692       37.71194134827385
H           14.87619976392158       55.69785721782893       37.06000947003074
