87
 energy: -128.223225123599 gnorm: 0.497671989809 xtb: 6.7.1 (edcfbbe)
Fe           2.77800000000000       -5.16600000000000       35.41699999999999
N            1.03900000000000       -6.14600000000000       35.75200000000000
N            3.68600000000000       -6.74300000000000       36.40700000000000
N            4.64000000000000       -4.49700000000000       34.83000000000000
N            1.85300000000000       -3.58800000000000       34.49100000000000
C           -0.22000000000000       -5.53100000000000       35.39100000000000
C           -1.29500000000000       -6.55700000000000       35.57399999999999
C           -0.66700000000000       -7.69800000000000       35.93800000000000
C            0.78200000000000       -7.39800000000000       36.14600000000000
C            3.12900000000000       -7.94500000000000       36.66700000000000
C            3.93600000000000       -8.62800000000000       37.48000000000000
C            5.24400000000000       -7.91000000000000       37.57500000000000
C            5.03900000000000       -6.81000000000000       36.58700000000000
C            5.83600000000000       -4.78500000000000       35.37400000000000
C            6.77000000000000       -4.22800000000000       34.59100000000000
C            6.03900000000000       -3.16800000000000       33.86400000000000
C            4.78900000000000       -3.29200000000000       34.21500000000000
C            2.45900000000000       -2.63400000000000       33.77000000000000
C            1.43200000000000       -1.63600000000000       33.33600000000000
C            0.25100000000000       -2.11900000000000       33.71700000000000
C            0.52400000000000       -3.35600000000000       34.48800000000000
C           -0.46400000000000       -4.17700000000000       34.79800000000000
H           -1.49000000000000       -3.85900000000000       34.61600000000000
C            1.67700000000000       -8.25900000000000       36.64099999999999
H            1.33300000000000       -9.21500000000000       37.03500000000000
C            6.03300000000000       -5.97900000000000       36.24200000000000
H            7.03500000000000       -6.18800000000000       36.61500000000000
C            3.75100000000000       -2.48900000000000       33.53700000000000
H            4.06600000000000       -1.74100000000000       32.81000000000000
C           -1.29900000000000       -8.93400000000000       36.54499999999999
H           -2.38900000000000       -8.93600000000000       36.33100000000000
H           -1.14800000000000       -8.93100000000000       37.64600000000000
H           -0.84300000000000       -9.84500000000000       36.10100000000000
C           -2.68900000000000       -6.36800000000000       34.97899999999999
H           -2.60200000000000       -5.92500000000000       33.96400000000000
H           -3.28200000000000       -5.68200000000000       35.62199999999999
H           -3.20000000000000       -7.35100000000000       34.90100000000000
C            3.67100000000000       -9.95400000000000       38.16300000000000
H            3.66000000000000      -10.76600000000000       37.40500000000000
H            2.68400000000000       -9.92300000000000       38.67200000000000
H            4.47400000000000      -10.16200000000000       38.90200000000000
C            6.38400000000000       -8.54000000000000       37.74400000000000
H            6.82600000000000       -9.07600000000000       36.89200000000000
C            7.15000000000000       -8.58300000000000       39.05199999999999
H            6.76300000000000       -8.06700000000000       39.94300000000000
H            8.10100000000000       -9.13100000000000       39.12400000000000
C            8.28700000000000       -4.26600000000000       34.72400000000000
H            8.58100000000000       -5.12100000000000       35.36999999999999
H            8.64700000000000       -3.32300000000000       35.18800000000000
H            8.74900000000000       -4.39600000000000       33.72200000000000
C            6.65300000000000       -1.95400000000000       33.26400000000000
H            6.06900000000000       -1.02600000000000       33.17500000000000
C            7.90700000000000       -1.95000000000000       32.82300000000000
H            8.47300000000000       -2.89000000000000       32.74000000000000
H            8.39500000000000       -1.00700000000000       32.53500000000000
C            1.69200000000000       -0.32000000000000       32.59800000000000
H            1.84100000000000       -0.52500000000000       31.51600000000000
H            2.60700000000000        0.16300000000000       33.00200000000000
H            0.82000000000000        0.35700000000000       32.72000000000000
C           -1.10900000000000       -1.62600000000000       33.31400000000000
H           -1.00700000000000       -0.88800000000000       32.49000000000000
H           -1.60100000000000       -1.13300000000000       34.17899999999999
H           -1.72800000000000       -2.47800000000000       32.96000000000000
C            1.63800000000000       -1.39400000000000       39.54000000000000
H            2.45200000000000       -0.66900000000000       39.75500000000000
H            1.24400000000000       -1.78900000000000       40.50100000000000
H            0.83000000000000       -0.87400000000000       38.98300000000000
N            3.19700000000000       -3.34400000000000       39.13300000000000
H            3.63100000000000       -3.28000000000000       40.03200000000000
C            2.18500000000000       -2.53500000000000       38.70300000000000
C            3.50400000000000       -4.21300000000000       38.17800000000000
H            4.27600000000000       -4.97700000000000       38.26100000000000
N            2.70600000000000       -3.97700000000000       37.12300000000000
C            1.88700000000000       -2.93800000000000       37.40699999999999
H            1.16900000000000       -2.56800000000000       36.68599999999999
C            3.74700000000000       -8.35600000000000       30.75800000000000
H            3.64800000000000       -7.82600000000000       29.78700000000000
H            3.24000000000000       -9.34200000000000       30.68400000000000
H            4.82600000000000       -8.50000000000000       30.98100000000000
N            1.79700000000000       -7.20600000000000       31.81200000000000
H            1.14500000000000       -7.48500000000000       31.10700000000000
C            3.11400000000000       -7.54400000000000       31.83500000000000
C            1.53200000000000       -6.43400000000000       32.90200000000000
H            0.55200000000000       -6.02500000000000       33.14600000000000
N            2.69000000000000       -6.27400000000000       33.61000000000000
C            3.66700000000000       -6.94400000000000       32.99300000000000
H            4.67300000000000       -6.96100000000000       33.39300000000000
87
 energy: -128.373587444037 gnorm: 0.254568557666 xtb: 6.7.1 (edcfbbe)
Fe           2.75833300190787       -5.17567958499564       35.40535432414786
N            0.99837461808728       -6.10053954035296       35.74615424182413
N            3.66991185502539       -6.73448238768003       36.34581437631126
N            4.58924355142061       -4.46651890587281       34.88611433975058
N            1.85083969370761       -3.59541849728788       34.49087991930919
C           -0.23032887597978       -5.53342954130362       35.38292216218893
C           -1.28434585505309       -6.55022398804611       35.54448329351162
C           -0.67214624963003       -7.68748802437982       35.97066023785938
C            0.76260514479687       -7.37587253211789       36.13438278483907
C            3.09644397926272       -7.91260958931217       36.70953940963789
C            3.96607863318391       -8.64170152203315       37.50075747383934
C            5.21388021288623       -7.93461295731227       37.55642941342482
C            5.01177161302848       -6.80220847819871       36.62057570410142
C            5.82704758810315       -4.83643065056450       35.34208191172956
C            6.79754805662313       -4.18406188933133       34.59546147178030
C            6.09285290582052       -3.15161844907223       33.87295349971631
C            4.76588723097941       -3.31455877100299       34.17078650328100
C            2.44786743182054       -2.61423824678637       33.78358704283978
C            1.43510291553278       -1.63357345754783       33.32379332886774
C            0.24629425456534       -2.12236538719989       33.71308798637009
C            0.52318241684789       -3.36602333338955       34.46468469899528
C           -0.46821844508732       -4.22073125383459       34.82248231217213
H           -1.48573350346070       -3.89077668450832       34.63414398101484
C            1.68815778854525       -8.24258204979009       36.63345030368076
H            1.35270757237083       -9.20235500295335       37.02188128698704
C            6.02071256230319       -5.96860524076538       36.23462222766497
H            7.02267382283936       -6.17807084448631       36.60549584536203
C            3.76350801198752       -2.49533071695082       33.53922851844899
H            4.07882924749962       -1.74413045003557       32.82549597855848
C           -1.29995809330640       -8.93147998592695       36.53756786123423
H           -2.37825570919678       -8.93956021973275       36.33315173114543
H           -1.15167688773820       -8.93526935666595       37.62849595275545
H           -0.84851074240456       -9.83727711794870       36.10868602631714
C           -2.67910694851502       -6.36833835408467       34.98627758765692
H           -2.60569486085113       -5.93213010864295       33.97890107410127
H           -3.27555654446076       -5.69062888799342       35.61413393098322
H           -3.19407887535853       -7.33594241716325       34.90645938326816
C            3.67963430753819       -9.95414097845727       38.16610067005942
H            3.65947843854724      -10.75896721288031       37.41568969283496
H            2.70159733660525       -9.92575316337283       38.66986606776863
H            4.46701914732410      -10.16553655527722       38.89719791163669
C            6.43736837999136       -8.55727137085974       37.79471269908645
H            6.86087633611533       -9.07595158539332       36.92644531423032
C            7.13140272529508       -8.58552926793995       39.00987283924054
H            6.76021531774915       -8.07946685576636       39.90492802324380
H            8.07517799597298       -9.12157860146726       39.11058650865891
C            8.28916018573407       -4.26871219092509       34.72938867686536
H            8.57877495946803       -5.11449933944550       35.36504771626262
H            8.65155833234757       -3.33438108071917       35.18073121559677
H            8.74977127803235       -4.40198858129208       33.74240582132447
C            6.66937202551172       -1.96148140800378       33.25978523628464
H            6.07343794314319       -1.04594407812384       33.19021998975995
C            7.91829921334731       -1.94229908826460       32.81459151636814
H            8.48048571799147       -2.86336642257404       32.73594866940406
H            8.39534465406240       -1.01368638616242       32.52280822503565
C            1.69463784387241       -0.33215232469887       32.59874469255378
H            1.84220080514657       -0.52103726882391       31.52587110530987
H            2.59440577949114        0.15654266984257       32.99649124265594
H            0.83673845632875        0.34559363910042       32.71905080538512
C           -1.10827021434223       -1.62410068255105       33.32049857656948
H           -1.01206483967489       -0.89706968606433       32.50237619121577
H           -1.60485043059132       -1.13800980160356       34.17087081721139
H           -1.72413274939679       -2.46301570519073       32.96593555763781
C            1.64119836219073       -1.39894451923060       39.53607147402695
H            2.44102300433475       -0.67605521456417       39.75405199559641
H            1.24713899990533       -1.78176585882854       40.48895440507992
H            0.84099869367478       -0.88329022375071       38.99151811670492
N            3.19156706250788       -3.33605216365232       39.13678563083030
H            3.63009761035510       -3.27558769993817       40.03876509771280
C            2.18297117345489       -2.52456600975473       38.70141493583456
C            3.49578228919216       -4.21142312734122       38.16908972206154
H            4.26256195916845       -4.96774262084053       38.25332876649469
N            2.71297999052824       -3.99295012770985       37.11932465266684
C            1.89837887825960       -2.94589510261992       37.41924726030982
H            1.18075594453957       -2.57487397073056       36.70369962417514
C            3.74817664803047       -8.35516287882912       30.75981622733635
H            3.65137445668305       -7.83520997866781       29.79510389520930
H            3.25008929106277       -9.33301454804459       30.68178709218240
H            4.81266608782320       -8.50125772964103       30.97650908281666
N            1.80656330770530       -7.20282799545224       31.82013755494918
H            1.14797506899176       -7.48344466770331       31.11131519230135
C            3.12542673762998       -7.54211689274543       31.83925444868370
C            1.54625848972053       -6.43181451765420       32.90295679062795
H            0.57265991560394       -6.02944252280597       33.14416594429361
N            2.67211832134643       -6.27135843297632       33.60760279655732
C            3.65310671674980       -6.94602227071766       32.98081430309517
H            4.65624952682775       -6.96251317361591       33.38114108257582
87
 energy: -128.431342885409 gnorm: 0.088060724624 xtb: 6.7.1 (edcfbbe)
Fe           2.75307132935889       -5.18427343159325       35.39015559978719
N            0.96508096637193       -6.05609366224551       35.73564787738120
N            3.65537141652785       -6.72608611516860       36.30285266237458
N            4.54930057334888       -4.44117940672542       34.92145867799712
N            1.84692085691385       -3.60893570153971       34.48417749228596
C           -0.23527332626513       -5.53676457541235       35.36974100425169
C           -1.27362551675209       -6.54256576440251       35.51860747005783
C           -0.66946849574913       -7.67049704429031       36.00082143888169
C            0.74590107171203       -7.34536770138566       36.13507645419828
C            3.06180369412061       -7.87220652891758       36.75487344161048
C            4.00154216389616       -8.64677477429070       37.50492969574798
C            5.18331831993544       -7.96544581395797       37.51175524785867
C            4.98408893245127       -6.80005400566050       36.64602462404260
C            5.80336619534301       -4.88402184628489       35.31070429344189
C            6.80236319698860       -4.13554386908262       34.61201286514422
C            6.13410715498810       -3.14105165193900       33.90334073700794
C            4.74504604779047       -3.34243864793319       34.13351275715994
C            2.43814468322272       -2.59982269054135       33.79561150179821
C            1.44189182515597       -1.63811513798448       33.32339652331090
C            0.24152230239675       -2.13678452007920       33.70938737319762
C            0.51806047216713       -3.37847834063102       34.43811133146088
C           -0.46506197849684       -4.26476177905793       34.84572321553835
H           -1.47781058876112       -3.92674258186807       34.65395910483546
C            1.70527638642544       -8.20688720035691       36.63697943856750
H            1.37606653028047       -9.17628036212089       37.00447930257904
C            5.99661822409909       -5.95610660610023       36.20903498010878
H            6.99893537798710       -6.16450555178567       36.58183838765853
C            3.78117081496413       -2.51507165459380       33.54800214024882
H            4.09724947733327       -1.75083321324824       32.85140774466368
C           -1.29705353174597       -8.92252078104483       36.52963752422198
H           -2.36714682564654       -8.93865896700832       36.33099739398726
H           -1.15508296916851       -8.94278291641003       37.61418932146011
H           -0.84966482474430       -9.82411087933824       36.11014084774694
C           -2.66868710750231       -6.36881411750557       34.99293675529273
H           -2.61243864536058       -5.93645836162167       33.99069753340935
H           -3.26610164748748       -5.69857798249476       35.61278174710935
H           -3.18561067928805       -7.32540187838551       34.91591679957609
C            3.69028109451921       -9.94806512560648       38.16557251843742
H            3.66008510946594      -10.75172675222750       37.42495359538503
H            2.72003323560377       -9.92318987466941       38.66717020399763
H            4.46249447721180      -10.17363835694746       38.89488618036173
C            6.47959470815404       -8.55508147026575       37.84190748929775
H            6.88196620460099       -9.07088008836807       36.96375795477149
C            7.10599330268533       -8.58345543187064       38.96583561781556
H            6.75300288068095       -8.09047576759896       39.86845201380862
H            8.04881757016854       -9.10738921863253       39.09506861178132
C            8.28060276048236       -4.27279886131086       34.73794417033444
H            8.56927080460181       -5.10997642809944       35.36738958549588
H            8.66490631651427       -3.34679860944202       35.17282396716598
H            8.74815833401331       -4.41358312275236       33.76384746785698
C            6.68393478453573       -1.97508118714818       33.26472371007030
H            6.07666615214890       -1.07237396138141       33.21147870236085
C            7.93167727914680       -1.93343503100483       32.80604644811255
H            8.50001420370010       -2.83638658866213       32.73174130471003
H            8.39449483908062       -1.01542262515114       32.49747024054792
C            1.69870336278588       -0.34964225415683       32.60302009184306
H            1.84565069198422       -0.52142668670526       31.53465699741090
H            2.58660847965314        0.14700144467023       32.99355401055798
H            0.85188189517438        0.33041578649869       32.71985297241213
C           -1.10770800846246       -1.62591111971316       33.32664115113748
H           -1.01574196100176       -0.90383525617220       32.51552030628751
H           -1.60804258773192       -1.14455021294959       34.16667566099544
H           -1.72597271360813       -2.45144440911104       32.97250691268587
C            1.64436894412586       -1.40414364085224       39.52965630262779
H            2.43294853530770       -0.68245820469351       39.75217086838731
H            1.25057344202050       -1.77882220052364       40.47649562013323
H            0.84866972966935       -0.89172726633778       38.99598855639513
N            3.19017149123493       -3.32939981198795       39.14230722668186
H            3.63267437738966       -3.27257194275891       40.04492714366758
C            2.18277051175931       -2.51600971552547       38.69720507972249
C            3.48578708485861       -4.21114934595499       38.16359516951999
H            4.24951967149760       -4.95992352876420       38.24798659760828
N            2.71574751980213       -4.01314242352309       37.12098140880263
C            1.90707366578446       -2.95559793017482       37.43028572521742
H            1.19046196791774       -2.58270186429432       36.72150457009489
C            3.75013063618811       -8.35446763644124       30.76206837092797
H            3.65390444719794       -7.84217249743612       29.80259558592647
H            3.25804268916745       -9.32537018296768       30.68217028569289
H            4.80398185725003       -8.50356039692019       30.97366643776503
N            1.81234662226372       -7.20041944969155       31.82387929495245
H            1.14980172893023       -7.48155768435325       31.11506154496110
C            3.13699838329708       -7.53926721476636       31.84351045321434
C            1.56179503066633       -6.43059207716476       32.90365722185019
H            0.59343937326727       -6.03248064514470       33.14049020088074
N            2.65631046674590       -6.26518410929972       33.60657666828821
C            3.64277681248320       -6.94739066051901       32.96927868059534
H            4.64113991825630       -6.96372229811961       33.36952179444385
87
 energy: -128.444522222379 gnorm: 0.038096396056 xtb: 6.7.1 (edcfbbe)
Fe           2.74254883542290       -5.18065577221673       35.37627964042292
N            0.95138062829689       -6.02770769975185       35.74394468885701
N            3.63767984033448       -6.70845669060059       36.30209170568720
N            4.53009022385795       -4.43366125581522       34.91759863715070
N            1.83622429715946       -3.62396594149938       34.46208795743227
C           -0.24834457812390       -5.53789653599721       35.35780643590572
C           -1.28027628700011       -6.53881437632504       35.51193288434047
C           -0.67175711533969       -7.64969169299950       36.02206593397280
C            0.73193207808729       -7.31136045697418       36.15419504289029
C            3.03629467456675       -7.83571817615015       36.78745473832635
C            3.99732403328492       -8.64047076988232       37.50662248140000
C            5.18518969839725       -7.98214085493135       37.45133400671181
C            4.95973286343722       -6.79265086229632       36.63723708506556
C            5.77568856024086       -4.89514708541504       35.29456370758783
C            6.79884676034749       -4.12231320185166       34.63294262115407
C            6.15245098735738       -3.13988960677153       33.91840005602721
C            4.74209053650410       -3.35474179273449       34.11783994082993
C            2.43308815118182       -2.59962006395349       33.79735633576515
C            1.44118692199459       -1.65174522182982       33.32208345485844
C            0.23442148830388       -2.15284522693986       33.69870522441577
C            0.50445565106641       -3.39405442580758       34.40793498747015
C           -0.47566131012152       -4.28071803034518       34.83330771767536
H           -1.49306159822074       -3.95775428418875       34.66603809789935
C            1.69881478765889       -8.16422178020822       36.65682681964821
H            1.38281653546139       -9.14416521059401       36.99467893039981
C            5.96586288946819       -5.94905832003292       36.18430127732770
H            6.97044912736476       -6.16104759134125       36.53837303388431
C            3.78616464328423       -2.52025604450900       33.55861398128425
H            4.11611018434137       -1.73911938384473       32.88830343910962
C           -1.29378106551673       -8.91253619788629       36.52414679122509
H           -2.36049334576979       -8.93440779274349       36.31636521165913
H           -1.16257243694176       -8.95705254528642       37.60755600838915
H           -0.83779621639035       -9.80386700987192       36.09649179118011
C           -2.67256170526061       -6.36997012177843       34.99979397749477
H           -2.63227467530397       -5.94122498748087       33.99704207449679
H           -3.26029842221191       -5.70036412998122       35.62562824005502
H           -3.18481435785592       -7.32669740798005       34.93778552429946
C            3.69861493149595       -9.94460727864623       38.16598679693863
H            3.65736280592808      -10.74663255771427       37.42670031113008
H            2.73724140423425       -9.91499259476132       38.67648077564684
H            4.47175248692661      -10.18511183143546       38.89067462775665
C            6.49519014573923       -8.55877487619832       37.80327186101616
H            6.92275352584502       -9.07383384028909       36.94477988073261
C            7.11563636307981       -8.57671495773811       38.98385691740526
H            6.73448560840221       -8.08975233158185       39.87006260844791
H            8.05764794268166       -9.09122090872663       39.11958090673998
C            8.27562284969553       -4.28770007017755       34.76719487211423
H            8.54408385365832       -5.12030273963279       35.40785437969619
H            8.69614851941679       -3.36382413952583       35.17519478563009
H            8.74476402883426       -4.46309601644032       33.80012383175120
C            6.71144720287453       -1.97980275041380       33.27578507874781
H            6.08827834612042       -1.09132846413634       33.24433234252588
C            7.95184129707815       -1.91076432751442       32.79151430574179
H            8.55263462943147       -2.79214188170698       32.71528709795904
H            8.37909778387700       -0.99223461960375       32.42714621377274
C            1.70701882154934       -0.36883752070354       32.60492362980502
H            1.85778919420774       -0.53433665476589       31.53719894719118
H            2.59178038781915        0.12670658526530       32.99846094853461
H            0.86420953172899        0.31123472373769       32.72223662888356
C           -1.11411979924435       -1.62853398658138       33.33511291044024
H           -1.02437554655046       -0.90104537610464       32.53174468017476
H           -1.61210277663386       -1.15300493288425       34.17874806728044
H           -1.74327438123656       -2.44270007102296       32.97969370055110
C            1.64844728156709       -1.40816599541101       39.52278910572458
H            2.43066948580994       -0.68325659019475       39.74863460775713
H            1.25320716816215       -1.78232975764797       40.46685568294610
H            0.85123673725708       -0.90109565063639       38.99021360640091
N            3.19745271972395       -3.32932412265311       39.14783422565450
H            3.64172063098559       -3.26910989484552       40.04955712597624
C            2.19044846681345       -2.51761274389432       38.69613273718098
C            3.48207581852464       -4.21909605803173       38.17024958877044
H            4.24392067826482       -4.96578329186388       38.25196839474625
N            2.71231610990678       -4.03207325521308       37.12920427838757
C            1.90899179602343       -2.97018289980269       37.43845144700027
H            1.19049490356541       -2.59881554700729       36.73716873335820
C            3.75520713841562       -8.35610272841650       30.76359890779464
H            3.65997593925932       -7.84887825062510       29.80356279826295
H            3.26458041033425       -9.32539732364276       30.68513679159306
H            4.80729738210246       -8.50938557191598       30.97326613723040
N            1.81685881776234       -7.19839723146540       31.81850022954943
H            1.15336802900476       -7.48087906782879       31.11384008789646
C            3.14359857332238       -7.53700562341518       31.84085307199405
C            1.57130698362128       -6.42494379246279       32.89606005356577
H            0.60652373100924       -6.02590125030367       33.13012812269719
N            2.65867414144661       -6.25672631534912       33.60302630916608
C            3.64523743561965       -6.94285174881636       32.96292107023877
H            4.63970918117597       -6.96132332043753       33.36036929719423
87
 energy: -128.450736786470 gnorm: 0.023363616943 xtb: 6.7.1 (edcfbbe)
Fe           2.73499597238789       -5.17811487219825       35.36811269406132
N            0.94635684028776       -6.01519570746273       35.74205395054278
N            3.62855312983946       -6.69281841570018       36.31880536452218
N            4.52072114771746       -4.42956109962508       34.90575531218128
N            1.82609018360087       -3.64012223470744       34.44216739507027
C           -0.25952786543183       -5.53659652861535       35.34725092580867
C           -1.28828125516165       -6.53641115852667       35.51084268529443
C           -0.67476429588085       -7.63165600792214       36.04175925286632
C            0.72204962608976       -7.28620904181223       36.17532619126845
C            3.02446889941421       -7.80644597408445       36.81905604922047
C            3.99373746516702       -8.63212041795495       37.51355083148063
C            5.19585277342748       -7.98980546609096       37.41230599443794
C            4.94796367046616       -6.79462035558050       36.62377884500624
C            5.75249788954802       -4.89766282227914       35.28505157560306
C            6.79576693853915       -4.11894836095955       34.65414368054928
C            6.16599678097298       -3.13595203115876       33.93295812024557
C            4.74418247383620       -3.35617054963359       34.11439589680685
C            2.42774916461098       -2.60762372524398       33.79350091684476
C            1.44043880973014       -1.66514632347252       33.31973840060946
C            0.22796965298813       -2.16718418886196       33.68304798111364
C            0.49126694191347       -3.40559582250429       34.37982803065495
C           -0.49063107144665       -4.28242572816439       34.81203243516005
H           -1.51412057208466       -3.97657040767838       34.65746317814298
C            1.68973880574238       -8.13057003250298       36.68490152213433
H            1.37861940673276       -9.11122599536251       37.01320023806132
C            5.94704965232225       -5.95257175525724       36.16029694959510
H            6.95590749874168       -6.17437410194742       36.48712033092429
C            3.78712415475934       -2.51801897727721       33.57154262400650
H            4.12811955676514       -1.71592500017751       32.93030533236650
C           -1.28961775601248       -8.90520998818975       36.51968414856950
H           -2.35377900871202       -8.92988064462887       36.29645032964155