78
 energy: -115.978733816181 gnorm: 0.258604911447 xtb: 6.7.1 (edcfbbe)
Fe          35.24499999999999        4.16900000000000       10.32200000000000
N           37.12499999999999        3.92700000000000        9.76000000000000
N           34.97999999999999        5.48500000000000        8.83500000000000
N           33.39500000000000        4.55000000000000       10.94400000000000
N           35.53500000000000        2.97900000000000       11.86900000000000
C           38.04899999999999        3.07500000000000       10.33900000000000
C           39.27300000000000        3.12000000000000        9.57600000000000
C           39.08700000000000        3.98000000000000        8.54700000000000
C           37.73000000000000        4.46800000000000        8.63900000000000
C           35.90199999999999        5.80700000000000        7.85300000000000
C           35.32700000000000        6.77900000000000        6.95800000000000
C           34.04400000000000        7.00400000000000        7.36500000000000
C           33.82800000000000        6.18400000000000        8.53900000000000
C           32.50000000000000        5.44200000000000       10.39000000000000
C           31.32800000000000        5.53100000000000       11.23200000000000
C           31.52700000000000        4.71000000000000       12.30000000000000
C           32.81600000000000        4.07000000000000       12.10200000000000
C           34.61699999999999        2.67900000000000       12.86200000000000
C           35.23400000000000        1.77800000000000       13.81100000000000
C           36.52200000000000        1.61300000000000       13.42700000000000
C           36.69800000000000        2.30600000000000       12.17300000000000
C           37.88100000000000        2.26700000000000       11.45200000000000
H           38.68300000000000        1.59800000000000       11.76200000000000
C           37.18400000000000        5.32100000000000        7.70200000000000
H           37.77200000000000        5.61400000000000        6.83300000000000
C           32.63500000000000        6.18700000000000        9.23200000000000
H           31.79700000000000        6.77800000000000        8.86600000000000
C           33.32300000000000        3.13500000000000       12.98500000000000
H           32.69200000000000        2.75400000000000       13.78700000000000
C           40.08000000000000        4.36300000000000        7.44800000000000
H           39.74400000000000        3.93500000000000        6.47900000000000
H           41.08500000000000        3.95700000000000        7.69200000000000
H           40.12900000000000        5.46900000000000        7.35600000000000
C           40.53600000000000        2.27900000000000        9.86300000000000
H           40.24099999999999        1.31300000000000       10.32600000000000
H           41.20100000000000        2.82700000000000       10.56500000000000
H           41.07399999999999        2.07300000000000        8.91300000000000
C           36.03700000000000        7.42000000000000        5.76300000000000
H           36.64900000000000        6.65400000000000        5.24000000000000
H           36.70500000000000        8.23500000000000        6.11600000000000
H           35.28500000000000        7.82600000000000        5.05300000000000
C           32.98600000000000        7.82700000000000        6.87200000000000
H           31.94200000000000        7.48600000000000        6.92400000000000
C           33.26200000000000        9.12400000000000        6.29500000000000
H           34.29500000000000        9.49700000000000        6.22700000000000
H           32.44200000000000        9.75300000000000        5.91700000000000
C           30.11600000000000        6.42600000000000       10.93300000000000
H           29.89300000000000        6.39800000000000        9.84500000000000
H           30.34100000000000        7.47300000000000       11.22800000000000
H           29.23000000000000        6.05700000000000       11.49200000000000
C           30.78300000000000        4.38300000000000       13.46900000000000
H           31.01400000000000        3.45200000000000       14.00600000000000
C           29.74000000000000        5.19500000000000       14.00000000000000
H           29.46200000000000        6.13900000000000       13.50800000000000
H           29.20100000000000        4.88800000000000       14.90800000000000
C           34.52600000000000        1.16900000000000       15.02700000000000
H           33.65700000000000        0.56600000000000       14.68700000000000
H           34.16299999999999        1.97900000000000       15.69500000000000
H           35.22899999999999        0.50900000000000       15.57900000000000
C           37.66100000000000        0.93400000000000       14.21800000000000
H           37.80600000000000       -0.10200000000000       13.84400000000000
H           37.39700000000000        0.89400000000000       15.29600000000000
H           38.60500000000000        1.50300000000000       14.07900000000000
O           35.78600000000000        5.75500000000000       11.69600000000000
H           34.96200000000000        6.14500000000000       11.98600000000000
H           36.60200000000000        6.00300000000000       11.94700000000000
C           32.48400000000000        0.02900000000000        7.48200000000000
H           32.77600000000000       -1.00600000000000        7.76100000000000
H           32.43500000000000        0.10400000000000        6.37500000000000
H           31.48900000000000        0.25300000000000        7.92200000000000
N           34.82099999999999        0.94600000000000        7.64300000000000
H           35.18800000000000        0.28400000000000        6.99000000000000
C           33.50800000000000        1.00200000000000        8.01400000000000
C           35.52300000000000        1.88000000000000        8.26500000000000
H           36.58800000000000        2.06100000000000        8.12900000000000
N           34.69300000000000        2.52100000000000        9.05400000000000
C           33.42900000000000        1.99100000000000        8.93600000000000
H           32.59800000000000        2.36800000000000        9.51800000000000
78
 energy: -116.033217142362 gnorm: 0.095370452115 xtb: 6.7.1 (edcfbbe)
Fe          35.24538664325088        4.16795713327708       10.31638711217788
N           37.13417043201183        3.91976599551065        9.75583214822932
N           34.97622862330918        5.48019660938062        8.82192979926052
N           33.39010258535323        4.55177582794628       10.95220884778396
N           35.53702323537755        2.96661084642190       11.86657859516127
C           38.05484175167535        3.07565844755720       10.32450323633791
C           39.28619890760054        3.10467471120537        9.56744111392781
C           39.09763237564243        3.97061905151064        8.53807620229979
C           37.74073945776998        4.45917139540549        8.64796856299622
C           35.88733354962621        5.81577533603656        7.85094512574270
C           35.32411245417807        6.78731384483384        6.94630036865517
C           34.03955167605748        7.01589946336184        7.35680677911576
C           33.83558641015535        6.17567779615072        8.52708412775484
C           32.49025494419175        5.43154472738283       10.40533003007114
C           31.31520342822064        5.53535287275451       11.23642934571401
C           31.51150941466949        4.70457944665484       12.30792526085305
C           32.80742809141012        4.07112860246875       12.09330376381135
C           34.63167251374914        2.65441658006816       12.84933372573286
C           35.23940289826342        1.77258938869720       13.82382338033723
C           36.53072585828758        1.60428038560808       13.44041063310206
C           36.69327321909806        2.30990278402969       12.18760529039386
C           37.86602742041283        2.28690490073367       11.44916270447963
H           38.66503882701821        1.62521715214469       11.76292765270191
C           37.17432818803805        5.31940361582273        7.72356862042695
H           37.76211955841963        5.61460547552232        6.86182344610914
C           32.65180229846037        6.16701823621708        9.24113852862929
H           31.82303059606685        6.76736368811822        8.88621642644874
C           33.34122774111039        3.13150177722061       12.96055538817973
H           32.72825347260792        2.76219173716810       13.77297291937101
C           40.07120518259805        4.35863866656076        7.45504102500421
H           39.74992862008236        3.94405545973156        6.49129263400621
H           41.06714829983365        3.96907198661768        7.68622072199230
H           40.13036436764520        5.44842247617151        7.35952230768409
C           40.52359526613568        2.28481182715524        9.86271003623061
H           40.24785717545795        1.32829659153216       10.31768295341240
H           41.18912421734661        2.81812309780019       10.55201452816707
H           41.06587317261231        2.07934116352355        8.93422460853415
C           36.03264094511850        7.40923396334597        5.77067664828233
H           36.64215873620699        6.66497516340056        5.24638024407761
H           36.69201587155003        8.21917164483445        6.10765902412011
H           35.29903625022710        7.81792285276047        5.06799932062300
C           33.00481252137796        7.87043696337273        6.84324245125084
H           31.97385861229258        7.52368577543491        6.91264887651265
C           33.25250164650187        9.09145604639343        6.29812263450757
H           34.26241474996358        9.47984737697384        6.24180583548935
H           32.45237193398110        9.72428176347015        5.93041322777862
C           30.12724797960836        6.41588873573370       10.93210543274012
H           29.89808884435639        6.39867711278482        9.86115905863019
H           30.33506238516074        7.45307410880355       11.22376091407489
H           29.24682749887648        6.06167397369991       11.47598911670543
C           30.73708921675708        4.40592555358018       13.47564588459483
H           30.97854667871773        3.48803340892298       14.00703989047507
C           29.75164674637695        5.18004401369396       13.98960670390633
H           29.47835666059356        6.12000590902006       13.52895177884125
H           29.21871498797919        4.88696703763124       14.88651498058440
C           34.53261795941562        1.17835717194141       15.01749033512245
H           33.67377743418130        0.57913006558433       14.69093869681916
H           34.16909086168873        1.96630721773941       15.68683659382799
H           35.21363863358103        0.52467097101763       15.57110078077898
C           37.64913885301890        0.93075633317845       14.20573502524313
H           37.80664451556253       -0.09311107015076       13.84790421871390
H           37.40299003402234        0.89355385517288       15.27172530080214
H           38.58199561632186        1.49134933842308       14.08201654238617
O           35.77274870899875        5.76314890519814       11.68095578927294
H           34.96707094100955        6.16410160060835       12.00387803384161
H           36.62787819814088        6.02666252807032       11.96715366693690
C           32.48951751569671        0.03001409632836        7.48478803507625
H           32.76671780378288       -0.99589194015512        7.75379539312692
H           32.43047869531900        0.10012221001594        6.39249966699661
H           31.50842189683728        0.25157281283040        7.91249637836603
N           34.81451611913929        0.93290595600176        7.62831863791331
H           35.18759660008703        0.27080358838158        6.97123970903324
C           33.50630900181846        0.98760783673608        8.01686402598337
C           35.50579012646593        1.88378721549807        8.27354356153557
H           36.55969731914713        2.06310728794417        8.13967983100773
N           34.69281690055985        2.54024040054772        9.06943849539329
C           33.44349725331292        1.99575341221034        8.93428469595446
H           32.61635387250129        2.37088970471818        9.50729661183709
78
 energy: -116.044945170722 gnorm: 0.035767598398 xtb: 6.7.1 (edcfbbe)
Fe          35.24370685147515        4.16141355499026       10.30889351148215
N           37.14231975577663        3.91096618781473        9.74972068242818
N           34.97140115120860        5.46784078221692        8.80511785582510
N           33.37943020210245        4.54356714934942       10.95477041588335
N           35.53867172471713        2.95057994972925       11.86319646360733
C           38.05875391925508        3.07452074930007       10.31185119606290
C           39.29337009860424        3.08976513158602        9.55795592976191
C           39.10305210951127        3.96136060756783        8.52966933358399
C           37.74783845773573        4.45057884912227        8.65348479007072
C           35.87635426049299        5.81556042566361        7.84775768546540
C           35.31995680372532        6.78766616590269        6.93865169807422
C           34.03541370200190        7.01294878193476        7.35429645496879
C           33.84073003900720        6.16375493805128        8.51908155191200
C           32.48200804316910        5.41966745923568       10.41605249006648
C           31.30558393099003        5.52957661811714       11.23908647707317
C           31.50286798721272        4.69007069301963       12.30865663107879
C           32.79909771972946        4.06467652792072       12.08506809507309
C           34.64173774187707        2.63275132786286       12.83600457784357
C           35.24327271060550        1.76567967186718       13.82734276299945
C           36.53838309568911        1.59802022176831       13.44749527353301
C           36.69195347703945        2.31195787092514       12.19684486459806
C           37.85617345602720        2.30880166606155       11.44859653520619
H           38.65969231084826        1.66549792233808       11.77540666836824
C           37.16650990873035        5.31849942015446        7.74568160759800
H           37.75998573589227        5.62828472738257        6.89813459631476
C           32.66890225973839        6.14846505493575        9.25165484520451
H           31.85071812435761        6.76345523016157        8.90916053515891
C           33.35623502006917        3.12717999761479       12.93945027102117
H           32.76028952808335        2.77372840207605       13.76666960719907
C           40.06422201640478        4.35417262101188        7.45894810151885
H           39.75047399451518        3.95119480814030        6.49537727259403
H           41.05714026530726        3.97484203871491        7.68300405732035
H           40.12452905247801        5.43674717177758        7.36783915702566
C           40.51368172665681        2.28699755232630        9.86106486274234
H           40.24862608960299        1.33576922003532       10.31456084698060
H           41.17364071839056        2.81798291185188       10.54682642785113
H           41.06594022513836        2.08483373278006        8.94632748929002
C           36.02728164208661        7.39832951106589        5.77709001633657
H           36.63692660846912        6.66325877204709        5.25616448367230
H           36.68297846743224        8.20564136818042        6.10619554776587
H           35.30480625265598        7.80855214244957        5.07588602586418
C           33.01902413997191        7.89798816622651        6.82806504589403
H           31.99769203493082        7.54040973765382        6.90313474859268
C           33.24991419255211        9.08155878050264        6.30550738200633
H           34.24537328366473        9.48438681712686        6.24507343901298
H           32.45996303850512        9.70662409403208        5.92600442802583
C           30.13545856610689        6.40156323737326       10.93194728132055
H           29.91224896368224        6.39330017209855        9.86716922357719
H           30.33427029159276        7.43381707236515       11.22443976230798
H           29.25449026719711        6.05515737766103       11.46375665882757
C           30.70517099164480        4.41873825534742       13.47870625685944
H           30.94905216752259        3.50072036545593       13.99789705286335
C           29.75344234305014        5.18052341829939       13.98668459828697
H           29.48020456700526        6.12441782725816       13.55328312040240
H           29.21764646940090        4.89062480047649       14.87359380443396
C           34.53902121543312        1.18779829140860       15.00881152562368
H           33.68402041898386        0.59351848807442       14.68689133641173
H           34.17532659144448        1.96786726558367       15.67600578656060
H           35.20792836932903        0.53863055686691       15.56723710446377
C           37.64054745085638        0.92465455332851       14.19390175604620
H           37.80378613870177       -0.09217297547379       13.83964602180335
H           37.40300881501641        0.88328861768979       15.25426545210262
H           38.56832721916078        1.48063749600885       14.07789886360579
O           35.77543741693435        5.80638452809014       11.63687843875618
H           34.99479511396369        6.19315147426914       12.04817712665783
H           36.63386955839198        6.04092068156613       11.99467500579794
C           32.49117321927215        0.03286357192978        7.49191254636822
H           32.75764717496417       -0.99108041443798        7.75127476191317
H           32.42881146177254        0.10298787167898        6.40684724941018
H           31.51734583111375        0.25584121512894        7.91233827342537
N           34.81180023649486        0.92603831592429        7.62024055645880
H           35.19012232159828        0.26680831578223        6.95947263802241
C           33.50565903525536        0.97898316596145        8.02322425977360
C           35.49162264535700        1.88908825007405        8.27868676092543
H           36.53792769287755        2.06802601699438        8.14726069893631
N           34.69175223150793        2.55450200691449        9.07726888579418
C           33.45399613771123        1.99975955497504        8.93305956862440
H           32.62546520222077        2.37351509473261        9.49672488368249
78
 energy: -116.047907539612 gnorm: 0.043694511659 xtb: 6.7.1 (edcfbbe)
Fe          35.24359232020999        4.16098463525622       10.30546485773831
N           37.14443072112128        3.90258640927031        9.74303694001010
N           34.96599216512831        5.45163754955820        8.79152241793170
N           33.37203470723797        4.53136527532293       10.95532897628392
N           35.54243345420816        2.94505804630956       11.86022491983092
C           38.06119460734035        3.07253070982045       10.30620526783768
C           39.29391773184093        3.08112554635969        9.55053177117910
C           39.10285279394282        3.95417935063532        8.52327223188921
C           37.74959216459107        4.44500884145935        8.65215304767989
C           35.87240472053951        5.80902373974742        7.84421718026499
C           35.31704243957310        6.78308915350397        6.93715538035506
C           34.03327745745878        7.00535813444348        7.35526201054435
C           33.83907506983699        6.15150827282583        8.51440132279283
C           32.47772289012667        5.40760971967720       10.41880680532308
C           31.30159260391223        5.51776943014086       11.23997307011299
C           31.49570800705975        4.67271531569795       12.30600681842831
C           32.79153402500455        4.05033479225403       12.08191563362344
C           34.64600879480000        2.62177851975565       12.82724618581728
C           35.24763192437774        1.76246667940550       13.82354596936009
C           36.54375767558480        1.59643722063243       13.44646110408727
C           36.69705093150866        2.31594057429737       12.19969433525098
C           37.86007549668592        2.32537110938285       11.45354493916018
H           38.67374375109798        1.70491890847107       11.79763485612104
C           37.16567021719620        5.32081929119869        7.75607286255546
H           37.76901062348126        5.65347113313670        6.92499187037462
C           32.67514935454971        6.13628920795400        9.25743606300435
H           31.86628216404470        6.76981848624326        8.92880331433149
C           33.36213589491573        3.11766017573691       12.93093362193619
H           32.78100276076182        2.77488412218734       13.77195936328240
C           40.06120967860045        4.35275878612164        7.45640086822000
H           39.74969463628164        3.95790868356041        6.48921906264804
H           41.05536038416121        3.97628438193667        7.67705198799785
H           40.11903660926706        5.43557373968702        7.37371093800484
C           40.51240492874800        2.28549343235889        9.86179488480725
H           40.25091700660897        1.33350172205012       10.31466854293541
H           41.16364313524581        2.82105461066904       10.55197895339889
H           41.07593745879529        2.08632978661354        8.95362219898589
C           36.02498284733882        7.38840872469238        5.77774995124355
H           36.63558065140315        6.65201443050872        5.26088507576001
H           36.68043244065159        8.19565071597897        6.10543498075152
H           35.30545460999284        7.79867941055717        5.07459936557441
C           33.02384047880979        7.89706158410869        6.82063004913813
H           32.00480308728181        7.53700910138088        6.89487907286097
C           33.25355866990780        9.08905585902811        6.28974891348075
H           34.24248904759790        9.51113639604600        6.24826623350495
H           32.45962198941292        9.71098521476886        5.91521594187919
C           30.13606105172155        6.38738135678753       10.92837642232417
H           29.92528387030202        6.38634996280580        9.86140118256123
H           30.33060561466850        7.41777727464005       11.22882065817714
H           29.24996254056159        6.03843413243080       11.44884057786818
C           30.68164410552968        4.41338795459397       13.47153181834425
H           30.90844862927440        3.48851680766524       13.98407148058680
C           29.74158079408958        5.19358180322433       13.98946992846787
H           29.48680919364810        6.15437932419115       13.58045422973986
H           29.20242289550648        4.90200993454422       14.87346172606784
C           34.54208517086919        1.19537569145735       15.00493248152136
H           33.68556638805181        0.60370800536876       14.68489228769520
H           34.17968482484886        1.97989718108597       15.66701020867206
H           35.20618597096778        0.54830142754752       15.57037264810728
C           37.64004800724852        0.91105454601013       14.18342269576730
H           37.80130977324747       -0.10252116408850       13.81973484514845
H           37.40409938054804        0.85888937935323       15.24318719356436
H           38.56936351862608        1.46450120847975       14.07370278035516
O           35.78975547080567        5.89316164039434       11.56018013625540
H           35.02669398818470        6.19711057543508       12.11569838225059
H           36.64002248861368        6.03461135044632       12.03944898265096
C           32.48808382267798        0.03736826498717        7.50028794401198
H           32.74726258585284       -0.98938167884825        7.75487245650975
H           32.42422710447944        0.10980485575515        6.41593873658370
H           31.51613718347453        0.26479795687780        7.92070665935348
N           34.81087120372997        0.92651278845437        7.62164023819006
H           35.19043005151317        0.27061319377203        6.95729263448946
C           33.50514047118498        0.97862759637925        8.03095317584123
C           35.48604733338291        1.89442487812574        8.28147796891604
H           36.53045082799311        2.07506888485920        8.14975795117882
N           34.69077350850023        2.56156262093143        9.08161643989814
C           33.45603663893379        2.00333003257866        8.93635266524428
H           32.62402046272023        2.37771528300195        9.49343230535865
78
 energy: -116.049457446004 gnorm: 0.022222125797 xtb: 6.7.1 (edcfbbe)
Fe          35.24456644258569        4.16109664979958       10.30470014104570
N           37.14609981225149        3.89689999989074        9.73846479427499
N           34.96102707410168        5.43577713564638        8.78189601507403
N           33.36662511100464        4.51958754816387       10.95732014294568
N           35.54789243839842        2.94511659576919       11.86136263554641
C           38.06433841118539        3.07123515156948       10.30415987205016
C           39.29402267152621        3.07624134527602        9.54527594346161
C           39.10225202586122        3.94923686004342        8.51856823577250
C           37.75055672846484        4.44161375149275        8.64962907310955
C           35.87090698003637        5.80195100204784        7.84254593854667
C           35.31569044504423        6.78001260567034        6.94013383951180
C           34.03274759720225        7.00104148062195        7.35998075114227
C           33.83597347952109        6.14116325930176        8.51254715047958
C           32.47527303041145        5.39718516901980       10.42054784693228
C           31.29885689923730        5.50476791537447       11.24081983155665
C           31.48926162452246        4.65638084034888       12.30403868656282
C           32.78449950511911        4.03529908577547       12.08249692088101
C           34.64880974105746        2.61619775652189       12.82401061910982
C           35.25173259436186        1.75852223891819       13.81880470792628
C           36.54846816304228        1.59476298584151       13.44414197992316
C           36.70457086569370        2.31979801055117       12.20218979221178
C           37.86913685908227        2.33980534975663       11.46116678387033
H           38.69388040687307        1.74201748897963       11.82158144982004
C           37.16732568472368        5.32517826310280        7.76330812454702
H           37.78080116293606        5.68252485503500        6.94866239957246
C           32.67831374476508        6.12847152522131        9.26312183145592
H           31.87775705216724        6.77991007002417        8.94721386521692
C           33.36444928762987        3.10891680552986       12.93006637701242
H           32.79366843619405        2.77224039959371       13.78058491978616
C           40.05982811626884        4.35286077256973        7.45192432872840
H           39.74759809309650        3.96537054498104        6.48074299228778
H           41.05585162836429        3.97580609550856        7.66935686038331
H           40.11499638411925        5.43783971469130        7.37863206944235
C           40.51416599389820        2.28314456051732        9.86334963281471
H           40.25283519121238        1.32835729253164       10.31375331868397
H           41.15564279906705        2.82331887106038       10.56148895070044
H           41.08875550540442        2.08812257202807        8.95952969289005
C           36.02423766081867        7.38086808984382        5.77849563413551
H           36.63447674944329        6.63926665820855        5.26581649321741
H           36.68134349460856        8.18841368762624        6.10513619803981
H           35.30484397409629        7.79040030225320        5.07292898674859
C           33.02814492499804        7.89513716909897        6.82125392913980
H           32.00882539182944        7.53519522055597        6.88419713541452
C           33.25952272456972        9.09862616852885        6.28675779149482
H           34.24610757925607        9.52780084004301        6.24763244158194
H           32.46007086615545        9.70884155764100        5.90122174816580
C           30.13280126964469        6.37250162534192       10.92522017411396
H           29.93604541021417        6.37870517200522        9.85404368071756
H           30.32313187720666        7.40171858848711       11.23631034679870
H           29.24161783021022        6.01633588016306       11.43521947176722
C           30.66287728042788        4.40452147287536       13.46327603546161
H           30.86028724440511        3.46596209605267       13.96574501902976
C           29.73435951190309        5.20772938481887       13.99154696998563
H           29.50053632276070        6.18339242480945       13.59953184981735
H           29.18531538461851        4.91043749791442       14.86955972432376
C           34.54330694246628        1.19942285711103       15.00274950551831
H           33.68335863173508        0.61037170839711       14.68409640462623
H           34.18375097608726        1.99247200794107       15.65860235108877
H           35.20470999985780        0.55356915361214       15.57495918009351
C           37.64185147771817        0.89222816721517       14.17255171273197
H           37.79662936359573       -0.11772442932750       13.79165099897111
H           37.40513631614392        0.82388622708344       15.23264879493936
H           38.57556339885259        1.44219793218305       14.07019919428362
O           35.80080725917681        5.89715703371948       11.58722922852976
H           35.06277069480902        6.25778115590856       12.07382111313620
H           36.63642534488265        6.06255614986058       12.04298550396229
C           32.48184134361336        0.04513424179088        7.50842721594630