78
 energy: -116.057577819081 gnorm: 0.000045894961 xtb: 6.7.1 (edcfbbe)
Fe          14.53830282558873       54.81864782719250       18.94728261983981
N           13.14302813867901       56.16189927758354       18.39641077419009
N           14.10356093870888       53.72035424562429       17.31536353823950
N           15.98321882848670       53.53750986411939       19.42855491207121
N           14.96493315111776       55.92388859718499       20.54649949586709
C           12.77118532773771       57.27713410452314       19.07961654763667
C           11.72904220690266       57.98593192114536       18.37259939831720
C           11.47637418080577       57.27053528047296       17.24296675540982
C           12.36043908282000       56.12776394555113       17.28065329539131
C           13.16464275805718       53.99480212093893       16.36629440321220
C           13.08482866649161       52.92795959190621       15.40610729098609
C           13.97457003069052       51.96984024407158       15.81584660983092
C           14.61839862503976       52.50219067964299       16.99899843406398
C           16.33561766138997       52.41105756479385       18.75053024064522
C           17.46276953487565       51.76636694739684       19.37728365457375
C           17.78028555388480       52.52649376690232       20.47073649886606
C           16.83973518269691       53.63166114368035       20.47470121950206
C           15.91581209454439       55.66708157369140       21.48074380171793
C           15.89228689700569       56.66864756942621       22.52580371978896
C           14.90177625954219       57.53850844685921       22.19618410371947
C           14.33663134416191       57.05727831594587       20.95315509045700
C           13.31313614545379       57.69613973049025       20.28034412594553
H           12.91215988556252       58.59677328503224       20.71935098065950
C           12.37081323806051       55.13023754462748       16.32492768561729
H           11.68573073416485       55.22613392628294       15.49632078225360
C           15.69221157926198       51.90883909256119       17.63404563204926
H           16.06305934878958       50.98659507936614       17.21535805349027
C           16.80316916027466       54.60866703861191       21.45240842010312
H           17.52037804196947       54.54020658826012       22.25616218764113
C           10.50068548045639       57.54329556172220       16.14950889548772
H            9.96927117002246       58.47450718528693       16.32932589199357
H            9.76748929364621       56.73914720626903       16.07781613716022
H           11.01127725713608       57.62001848472394       15.18920518331490
C           11.10381026776167       59.25280405007367       18.84662900429904
H           11.85555881774638       60.03546622413396       18.95107237345279
H           10.63227296119156       59.10639790513849       19.81861333089332
H           10.34613117264803       59.59687174040510       18.14679289571984
C           12.15454731141327       52.89119522654072       14.24271486729559
H           12.28393301241100       53.77544256943903       13.61792836116452
H           11.11696820326143       52.86622861042206       14.57862570319741
H           12.33559083425912       52.00731421843471       13.63640037660963
C           14.21426972398943       50.68493297791738       15.19242199075416
H           14.16998512588926       50.67971781843841       14.10835459931853
C           14.43391558086269       49.54286595748591       15.83396440190915
H           14.43465808054884       49.48298521762531       16.90912132540062
H           14.59876892230248       48.62037862765825       15.30215140035483
C           18.15240592686377       50.55309813514935       18.85883220076762
H           18.19203654663017       50.56790577450710       17.77076152303812
H           17.62818962185178       49.64605731476999       19.16481319815355
H           19.16884679673102       50.50855744934022       19.24472231828095
C           18.83952475773672       52.34356360010518       21.43800829850718
H           19.26937450548538       53.25478839608114       21.83746179539419
C           19.30360068070100       51.17274595791499       21.86296978840953
H           18.88404864351299       50.23720307496391       21.53653514246041
H           20.10832245546948       51.11127064226260       22.57684974173103
C           16.81012874549648       56.68011915697868       23.69970919321546
H           17.84655529802608       56.76677580908159       23.37287297772611
H           16.71263593589608       55.75788943728605       24.27302673680650
H           16.58800078016241       57.51740176265179       24.35678276369359
C           14.44028795193783       58.76139225707793       22.91218143025848
H           15.00083734229770       58.90532061860203       23.83255396581624
H           13.38217676316429       58.68291078728734       23.16292914537767
H           14.57516221332324       59.64478759099277       22.28752102648139
O           15.98161802524504       56.00620937047719       17.61770074364285
H           15.41997244262228       56.76213329117898       17.41411670464843
H           15.98495032310277       55.43849192561197       16.83940312538774
C           11.86263441234956       51.83788156337324       22.82091878156365
H           11.60419081496802       50.80727575356676       22.57793724717185
H           11.00964929763097       52.29360932091095       23.32360908798582
H           12.70707931999133       51.83321253081719       23.50282958587723
N           11.34181592638438       52.77161763746981       20.55641575132827
H           10.39985850073221       52.41865118484495       20.51539034529647
C           12.21876535531234       52.59539063653119       21.59455258807191
C           11.97267325159413       53.49756168406257       19.60617644528433
H           11.52600738443379       53.78803253878281       18.67792378509416
N           13.19439633628663       53.79141423136723       19.97928012266989
C           13.36244537035841       53.23731294153441       21.21438438242788
H           14.28857763538737       53.33670272880156       21.74193304702474
