87
 energy: -128.386693605128 gnorm: 0.227273343300 xtb: 6.7.1 (edcfbbe)
Fe          17.32100000000000       54.92299999999999       35.48500000000000
N           16.92900000000000       56.89999999999999       35.34600000000000
N           15.39900000000000       54.55200000000000       34.90500000000000
N           17.72100000000000       52.98299999999999       35.61900000000000
N           19.12800000000000       55.28599999999999       36.04100000000000
C           17.83100000000000       57.90800000000000       35.64200000000000
C           17.27400000000000       59.15800000000000       35.30899999999999
C           16.01600000000000       58.92700000000000       34.81500000000000
C           15.83200000000000       57.53000000000000       34.82800000000000
C           14.55900000000000       55.51400000000000       34.48100000000000
C           13.35900000000000       54.87000000000000       34.10400000000000
C           13.51900000000000       53.53199999999999       34.42100000000000
C           14.88100000000000       53.33400000000000       34.86100000000000
C           16.77700000000000       51.98900000000000       35.49699999999999
C           17.36700000000000       50.78799999999999       35.84500000000000
C           18.70800000000000       51.05499999999999       36.12800000000000
C           18.89000000000000       52.42400000000000       36.01500000000000
C           20.09800000000000       54.40499999999999       36.24300000000000
C           21.33800000000000       55.09100000000000       36.63400000000000
C           21.07300000000000       56.39699999999999       36.64600000000000
C           19.67200000000000       56.51900000000000       36.24600000000000
C           19.07999999999999       57.78400000000000       36.16000000000000
H           19.61800000000000       58.66500000000000       36.50700000000000
C           14.68300000000000       56.89599999999999       34.42000000000000
H           13.85200000000000       57.49000000000000       34.04100000000000
C           15.44900000000000       52.11999999999999       35.16499999999999
H           14.82400000000000       51.22799999999999       35.14200000000000
C           20.10400000000000       53.03500000000000       36.20300000000000
H           21.02199999999999       52.46299999999999       36.31400000000000
C           14.98400000000000       59.91500000000000       34.31600000000000
H           15.38800000000000       60.94700000000000       34.39800000000000
H           14.06300000000000       59.83900000000000       34.93200000000000
H           14.74700000000000       59.70499999999999       33.25100000000000
C           17.89300000000000       60.49000000000000       35.49699999999999
H           18.99800000000000       60.39900000000000       35.42300000000000
H           17.63100000000000       60.88700000000000       36.50100000000000
H           17.53500000000000       61.18500000000000       34.70800000000000
C           12.08600000000000       55.57500000000000       33.71000000000000
H           12.27600000000000       56.21500000000000       32.82200000000000
H           11.73700000000000       56.21600000000000       34.54800000000000
H           11.30600000000000       54.82600000000000       33.45400000000000
C           12.59200000000000       52.38799999999999       34.21600000000000
H           12.80200000000000       51.59500000000000       33.48400000000000
C           11.51500000000000       52.33899999999999       34.92400000000000
H           11.29400000000000       53.12700000000000       35.65900000000000
H           10.80400000000000       51.50899999999999       34.80200000000000
C           16.61800000000000       49.47199999999999       35.77900000000000
H           15.85400000000000       49.52000000000000       34.97400000000000
H           16.10900000000000       49.28099999999999       36.74799999999999
H           17.32700000000000       48.64700000000000       35.55400000000000
C           19.78000000000000       50.12700000000000       36.47100000000000
H           20.84400000000000       50.39000000000000       36.39900000000000
C           19.40800000000000       48.94600000000000       36.87499999999999
H           20.14600000000000       48.13900000000000       36.99500000000000
H           18.35100000000000       48.74000000000000       37.10100000000000
C           22.62700000000000       54.36700000000000       36.85000000000000
H           22.92400000000000       53.85000000000000       35.91200000000000
H           22.50300000000000       53.61100000000000       37.65400000000000
H           23.42200000000000       55.09100000000000       37.12900000000000
C           22.03300000000000       57.50200000000000       37.08500000000000
H           22.62100000000000       57.85099999999999       36.21000000000000
H           22.73100000000000       57.10900000000000       37.85500000000000
H           21.45700000000000       58.35800000000000       37.49700000000000
C           19.54900000000000       56.60800000000000       30.56700000000000
H           18.85200000000000       57.03599999999999       29.81500000000000
H           20.22900000000000       55.89000000000000       30.06000000000000
H           20.13800000000000       57.43200000000000       31.02200000000000
N           17.92800000000000       54.82899999999999       31.35300000000000
H           17.76100000000000       54.45399999999999       30.44100000000000
C           18.76800000000000       55.90100000000000       31.62600000000000
C           17.39300000000000       54.39400000000000       32.49300000000000
H           16.68900000000000       53.56500000000000       32.56400000000000
N           17.86000000000000       55.13300000000000       33.49800000000000
C           18.74500000000000       56.06400000000000       32.98100000000000
H           19.27400000000000       56.75400000000000       33.62600000000000
C           14.09100000000000       55.41800000000000       40.07500000000000
H           14.26300000000000       56.34899999999999       40.65700000000000
H           14.01900000000000       54.56099999999999       40.77900000000000
H           13.14400000000000       55.52000000000000       39.50300000000000
N           16.52800000000000       55.05099999999999       39.54600000000000
H           16.81900000000000       55.00700000000000       40.50200000000000
C           15.23000000000000       55.20200000000000       39.13099999999999
C           17.32300000000000       54.97400000000000       38.47500000000000
H           18.39800000000000       54.80400000000000       38.51500000000000
N           16.57700000000000       55.13900000000000       37.38500000000000
C           15.27100000000000       55.31100000000000       37.78199999999999
H           14.48700000000000       55.49700000000000       37.05900000000000
87
 energy: -128.438206522540 gnorm: 0.093179291467 xtb: 6.7.1 (edcfbbe)
Fe          17.32203164096293       54.96372230474927       35.47918351918084
N           16.93833998685719       56.91386178010250       35.33502560429687
N           15.44036729952042       54.57298824379464       34.89293115380244
N           17.70172335659079       53.01403000003231       35.62847625561803
N           19.14271844308575       55.31409615478724       36.04163792520665
C           17.81574937502545       57.91663425446885       35.64419941237850
C           17.25323563020723       59.18165970803238       35.31136711662363
C           16.00758037412319       58.94353014753175       34.80988032562244
C           15.83449477333759       57.52940326423549       34.83050683405264
C           14.55446839354056       55.50260416843201       34.47466214496350
C           13.33012780544182       54.85043069471120       34.11955634264049
C           13.51068860372117       53.51868365982378       34.38464856601536
C           14.87377212199874       53.35688883162576       34.84684370635414
C           16.77928839227452       52.00417700016933       35.51451455039434
C           17.37371296500950       50.76253093837626       35.83620527072427
C           18.70075555730481       51.02663371278562       36.12300815854903
C           18.87078356373994       52.42430958056043       35.98716387636706
C           20.12527155659596       54.42043246672527       36.24094916364106
C           21.36014246660839       55.08835783072603       36.62655860326960
C           21.08629941627172       56.40652105289283       36.66496406184493
C           19.69016590426051       56.53631444691897       36.27652140822147
C           19.07850906898035       57.77368864594280       36.16983954978653
H           19.62136802059541       58.65263179665177       36.48787143715185
C           14.69051763609085       56.88013912290700       34.41850597988232
H           13.86273635683658       57.47082865073931       34.04685406627140
C           15.44741333541978       52.14491454207518       35.16609585038917
H           14.82609509914537       51.25701596318241       35.13626665917010
C           20.08607362085299       53.04941910499268       36.18835942916166
H           20.99059663978186       52.47391881626789       36.32412566575044
C           14.98723210324023       59.91927399148170       34.31528148890347
H           15.37378422544118       60.93960084653217       34.39391957929282
H           14.07379783375109       59.84431001414359       34.91613256014279
H           14.74310664438853       59.71265938314513       33.26678886345273
C           17.89786210642483       60.50319461562952       35.49754879939634
H           18.98715467690802       60.41663070241962       35.42407844947295
H           17.64196525002138       60.90191468245981       36.48668121398365
H           17.54769136024062       61.19469942766322       34.72594840478291
C           12.08138925347237       55.56253634476568       33.70609438212138
H           12.26748262059315       56.20298051156816       32.83442195089843
H           11.73229334025383       56.20043232991496       34.52827412387847
H           11.30407406816176       54.83630801015983       33.45551673158968
C           12.58390302274396       52.39701733266365       34.20320989524910
H           12.81774048180706       51.61040758283778       33.48768046746748
C           11.48839371795120       52.33314890159053       34.93010242229937
H           11.27109723021862       53.10630007722054       35.65817206836965
H           10.78771763478158       51.51411575651077       34.82048389835563
C           16.62185510486467       49.46686942972738       35.77048168281556
H           15.86161999639664       49.51323483556370       34.98506533274395
H           16.11820280532556       49.27143126991636       36.72698354014981
H           17.30107313397443       48.64380905397142       35.53669044912265
C           19.76265976689211       50.10753237564949       36.46946055531206
H           20.80971583657023       50.39082156031724       36.37052874262209
C           19.42329887267952       48.90451711882093       36.90146512752824
H           20.15452263129846       48.11970582095974       37.02987463107060
H           18.39167048627759       48.69306983796488       37.12751734653447
C           22.63913321307805       54.36661362048837       36.85276010557126
H           22.93487447285664       53.85438143297673       35.92941893798579
H           22.52081925337200       53.61957469938307       37.64602785103833
H           23.42394951570574       55.07546923421790       37.13051469254517
C           22.02634071494759       57.50389513499755       37.07976041240409
H           22.61262028187369       57.85309751482009       36.22170389164904
H           22.71700454708283       57.12267608764928       37.83930292760413
H           21.47287500278990       58.35007583810373       37.49628001118091
C           19.54403910567648       56.60352976546127       30.56642399887132
H           18.86572009645931       57.03251004196042       29.81902040523329
H           20.22407774904004       55.90761150811427       30.06074391206254
H           20.12744361042233       57.41307186493819       31.01346862738272
N           17.93290930482733       54.83784057676570       31.34392661493955
H           17.75968362697853       54.46221376494501       30.42797917926157
C           18.77419841717294       55.89224318561350       31.62313577864001
C           17.40646373660341       54.40019848677330       32.50000397340930
H           16.70531329314755       53.58456014586609       32.57297609725192
N           17.87758779722545       55.10743040756511       33.50628525642650
C           18.73278325077628       56.04396110313577       32.97811119658899
H           19.25275693774783       56.73706207054470       33.61518251078659
C           14.09456496646712       55.42120669124462       40.07941453664044
H           14.25054365650218       56.33814057919387       40.65946196070695
H           14.01264070326101       54.57628856397438       40.77340593513802
H           13.16214645287547       55.51561330133491       39.51623359945786
N           16.52159831057740       55.04444614337584       39.55848586813666
H           16.81630816432463       54.99808964861474       40.51766015195884
C           15.23123201981778       55.22734215469613       39.13883302114087
C           17.31267346800791       54.96967726279689       38.47293562717973
H           18.37659608631687       54.80743416891761       38.50991486662712
N           16.58840739870011       55.11007513685426       37.38169784795715
C           15.29154943333570       55.30227366863280       37.78056363852102
H           14.51081380317000       55.48150749820451       37.06424122081510
87
 energy: -128.454504708459 gnorm: 0.028654546483 xtb: 6.7.1 (edcfbbe)
Fe          17.31372803646054       54.98845218328752       35.47149165820767
N           16.95124607634747       56.92486836756784       35.32777324333860
N           15.47085592866970       54.59110284058397       34.87170336231091
N           17.68339053302128       53.02891013094980       35.63779306270062
N           19.15395018602122       55.33929287086109       36.04502106380659
C           17.80734584312843       57.92676622519867       35.64642730932179
C           17.23727645169307       59.20418207180208       35.31738490932103
C           16.00167310763214       58.95597020266306       34.80681239646803
C           15.84089738568714       57.52694037359073       34.82835791829659
C           14.54567955934999       55.49573613193390       34.46575309290982
C           13.30444159438458       54.83892252386764       34.13507992609433
C           13.50451060071541       53.51094417995184       34.36090521652735
C           14.87093814121555       53.37666067452781       34.82004294965996
C           16.77409177297848       52.01698268867358       35.52853883702961
C           17.36862589868282       50.74652299782992       35.82614061158149
C           18.68884521986928       51.00230835707094       36.11139739007745
C           18.85181278566181       52.42249552254867       35.96600869686518
C           20.14801321796386       54.43634122547912       36.23660891251993
C           21.37710999129240       55.09084624916026       36.61833820768243
C           21.09790147254410       56.41637787909120       36.68761930749218
C           19.70798844996289       56.55305514278130       36.30495448024909
C           19.07691704904345       57.76974479210691       36.17459900839511
H           19.62408909799392       58.65289175334844       36.46219915322248
C           14.70021730102384       56.86810248370338       34.41398390981505
H           13.87357617784864       57.45966296306228       34.05275950568586
C           15.44644774576298       52.16946066973208       35.15912691245114
H           14.82350159582240       51.28774702377312       35.12548855205058
C           20.05937383583057       53.06396303974605       36.17581918854063
H           20.95227838662312       52.48303771141488       36.33800802991721
C           14.98537568903076       59.92337261167701       34.31352675890049
H           15.36115110104796       60.93891721262371       34.38940197200629
H           14.07376262654356       59.84927673536237       34.90447472018472
H           14.73570403144313       59.71923186461399       33.27339809630519
C           17.90070499624554       60.52213407818618       35.50112282477006
H           18.98014048111653       60.43148953067825       35.42412877261066
H           17.65560655457386       60.92685793848333       36.48261782255853
H           17.55743511387554       61.21714044852921       34.74070179246828
C           12.07130442048197       55.55134025307306       33.70301025177780
H           12.26362357889445       56.18622748800839       32.83841471865442
H           11.71777298270353       56.19045789885439       34.51299536052959
H           11.29431867485308       54.83683175055135       33.45377617959544
C           12.57546237704343       52.40212763805076       34.20923395419541
H           12.82681594096886       51.62476158257253       33.49781474042074
C           11.46712538751629       52.32769100265523       34.93213225383303
H           11.24293502451322       53.09179157836844       35.65446354231401
H           10.77258040264931       51.51440523983345       34.82947557895403
C           16.61962718201701       49.46185641676378       35.75757421466479
H           15.85611035008647       49.51034944073175       34.98635710443602
H           16.12564197146010       49.25708395712120       36.70935824384154
H           17.28584262454700       48.63920819976082       35.51898639778183
C           19.73708313790887       50.07941738320337       36.45708143257475
H           20.76891656655489       50.38365847488118       36.32653573752910
C           19.44447143091493       48.86480075535362       36.92596155455701
H           20.18867115791250       48.10980530160582       37.08894203724604
H           18.42946034840045       48.62753232444582       37.15890319185415
C           22.65443074042565       54.36983858178795       36.85409891197460
H           22.95559358363204       53.85465261044416       35.94312113641172
H           22.53833769300360       53.62793633663300       37.64254960600697
H           23.43845592870397       55.06380751995276       37.13595035522729
C           22.02626987169993       57.50992575786078       37.08256729517019
H           22.60482305866184       57.85902621397299       36.22755272968467
H           22.72068059268215       57.14113277111007       37.83408084388225
H           21.48363849921636       58.35239890398960       37.49888587964087
C           19.53994198719615       56.60077595821773       30.56797538914431
H           18.86888729193616       57.02895260924589       29.82484013239540
H           20.22028635143948       55.91814318950553       30.06015749311165
H           20.12022602530795       57.40144006836443       31.01347702063878
N           17.93554868278472       54.84131005612565       31.33816520952393
H           17.75398779072991       54.46809099536448       30.42043559721699
C           18.77923118232881       55.88308882311479       31.62330996882622
C           17.42188233261002       54.39721885569206       32.50727428425558
H           16.72197743906978       53.59081171631213       32.58237821704160
N           17.88724911170071       55.09045408113039       33.51340593901523
C           18.73226256395327       56.02098521466058       32.98022458509876
H           19.24340267828645       56.72153233757717       33.60819332559089
C           14.09886604988312       55.42792858381621       40.08024668313655
H           14.23745333602372       56.33466596097750       40.66748706171971
H           14.01629480776519       54.58539522509538       40.76475883371409
H           13.17392434588304       55.51369016024393       39.52084379684017
N           16.52118586031798       55.04149248477476       39.56921408074002
H           16.81721127292706       54.98995702878399       40.52993730588594
C           15.23670551476818       55.25111257700117       39.14237592632373
C           17.30886883531048       54.95553229140416       38.47387370754458
H           18.36577022254078       54.79629127590693       38.50919027685894
N           16.60440727384186       55.09264652458623       37.38106207234618
C           15.31265830152202       55.29018629035530       37.77864079116594
H           14.53117317731362       55.46052261369390       37.06819947676335
87
 energy: -128.459005399973 gnorm: 0.021080488303 xtb: 6.7.1 (edcfbbe)
Fe          17.31050968602673       54.99510282849290       35.46686571079183
N           16.95907268019426       56.93450497646451       35.32280522595552
N           15.47641863650786       54.60188878140619       34.85505145393272
N           17.67199255870830       53.02606689834494       35.63948232447987
N           19.16252584725222       55.35159664349752       36.05110978959576
C           17.80894248491206       57.93869705726284       35.64776134650768
C           17.23234611392528       59.22066619889167       35.32330748043634
C           16.00047846492116       58.96537025122250       34.80627854435398
C           15.84587374253811       57.53117863744163       34.82281280121406
C           14.53839293071480       55.50079848748573       34.45813649846558
C           13.29139793269697       54.84292217468428       34.14261572183938
C           13.49894047513254       53.51417728129621       34.35499070986959
C           14.86909373153116       53.38724610882523       34.79983973184865
C           16.76178662175107       52.02013583004317       35.52898351448052
C           17.35278999735162       50.74005668985001       35.81662061662915
C           18.67487607532525       50.98654009745869       36.09889885946536
C           18.84021001029965       52.41736897540717       35.95918610544382
C           20.15777004784960       54.44296658416867       36.23653206205880
C           21.38683731267634       55.09370763159617       36.61744675607141
C           21.10625027137039       56.42145861664483       36.70213256026514
C           19.71885371675178       56.56346141012378       36.31997965087651
C           19.07953972167064       57.77689954559208       36.17472611978793
H           19.63081142509967       58.66585104769268       36.44030411100970
C           14.70549260177078       56.87132253799047       34.40836118068513
H           13.87816355620414       57.46576073542069       34.05446698088887
C           15.44023819092495       52.18205713967783       35.14797652180877
H           14.81110760794408       51.30618205377501       35.11020623619176
C           20.04031419436790       53.06942959965258       36.17428453951966
H           20.92628272380270       52.48304687781609       36.35441354372390
C           14.97969311338904       59.92853373631468       34.31099768036795
H           15.34996544868052       60.94694358263154       34.38491516006759
H           14.06598078158011       59.85322350420202       34.89945158560806
H           14.72812503740071       59.72352237383559       33.27101012085495
C           17.89966509974844       60.54044943214206       35.50680077092038
H           18.97840054621125       60.44595349453722       35.42280260224202
H           17.66643114159836       60.95175384102722       36.48909329295238
H           17.55866935265793       61.24347119182190       34.75115985438055
C           12.05738687536279       55.54611211456449       33.70076624808093
H           12.25661534806712       56.17302009804200       32.83265261881115
H           11.69234638529230       56.19021654433965       34.50170792626245
H           11.28150257756214       54.82898528433442       33.44991599655610
C           12.56566565297460       52.40579196957002       34.21731782300094
H           12.83284339475526       51.62504177881033       33.51389185357429
C           11.44833105817154       52.32700141596957       34.92713028129292
H           11.20909839307179       53.08818879094840       35.64910405371391
H           10.75905537728589       51.50734623947070       34.82964908452492
C           16.60659291912970       49.45505025009266       35.73750777606635
H           15.83210485156723       49.51088688322050       34.97712525167746
H           16.12621509091921       49.23307627268222       36.69278936940330
H           17.26913024639941       48.63334107402916       35.47808106300129
C           19.71766948975825       50.05468775311886       36.44310816498268
H           20.74094253476443       50.37049516989991       36.27197027876253
C           19.47047095804698       48.84035090762040       36.95022772587311
H           20.24570593137058       48.11887701647639       37.15185389409181
H           18.47042760247347       48.56297305756689       37.22279543403266
C           22.66877606343254       54.37554392688092       36.85709124023469
H           22.97843273037659       53.85531732473901       35.95112641395462
H           22.55370971363441       53.63462849476338       37.64750033348363
H           23.45429310982377       55.06829905489808       37.14191504222028
C           22.03288975276919       57.52005874240302       37.08883094429892
H           22.60174684234694       57.87091116913863       36.22714479806960
H           22.73877758139758       57.16218915290600       37.83582570472704
H           21.49079956491640       58.36323095404416       37.50668406260396
C           19.53772086980418       56.59797069590854       30.57091965933317
H           18.86325296206281       57.02682373384313       29.83135414984796
H           20.22062840974504       55.92202405173774       30.05674066189482
H           20.11613098521244       57.39818986258509       31.01976256854850
N           17.93707565686325       54.83419613805857       31.33756162346203
H           17.74702907030449       54.46748922405033       30.41888527501400
C           18.78264684912196       55.87340023178705       31.62530131711142
C           17.43058622073675       54.38482465490889       32.50992074805335
H           16.72997668307056       53.58024324365660       32.58690430583087
N           17.90008108122067       55.07302683973560       33.51729128803541
C           18.74011285247714       56.00517063143275       32.98331184468549
H           19.24873679167532       56.71011901679451       33.60686193550118
C           14.10459923591113       55.43338695675753       40.07853628102200
H           14.23040603055441       56.33714852351988       40.67462728744405
H           14.02472929336403       54.58622201442359       40.75803697159542
H           13.18050501007012       55.51471665538521       39.51647661770055
N           16.52743430108116       55.04027069334911       39.57555760242074
H           16.82171225061193       54.98403751006617       40.53681330076712
C           15.24556707385016       55.26163103882917       39.14323175002129
C           17.31491197568787       54.93879670378391       38.47961944315679
H           18.37072187151890       54.77446344771956       38.51583475461781
N           16.61578574657287       55.07397364976783       37.38369421764106
C           15.32645515662827       55.28337785516320       37.77930504191151
H           14.54342369469691       55.44356233146564       37.06893020549013
87
 energy: -128.461158075743 gnorm: 0.014101908802 xtb: 6.7.1 (edcfbbe)
Fe          17.30979310182652       54.99625666939457       35.46314074379137
N           16.96513310796032       56.94520008181087       35.31836086531419
N           15.47194437306587       54.61163672187153       34.84152679663234
N           17.66335509399648       53.01729883875835       35.63604555741487
N           19.17211871696620       55.36034625784183       36.05885497677252
C           17.81438335832195       57.95147388309550       35.64646936370697
C           17.23088901951023       59.23635091392944       35.32784456954543
C           16.00134467204491       58.97593168462503       34.80632722176649
C           15.85023230987749       57.53923060631175       34.81770570391883
C           14.52880099983322       55.51104764506197       34.45279373095443
C           13.27895889055783       54.85302641499774       34.14963155483586
C           13.49005808812588       53.52265920510241       34.35607805139507
C           14.86455236122743       53.39610566778031       34.78388844575235
C           16.74882463671872       52.01817021901224       35.52036562720532
C           17.33656887420749       50.73496654727733       35.80596039253431
C           18.66024237277056       50.97334092329781       36.08590421839831
C           18.83153613861396       52.41109370077434       35.95683522381564
C           20.16454246638866       54.44671731338208       36.24214812737781
C           21.39506096573335       55.09698338176411       36.62148205344371
C           21.11464445750301       56.42588032800649       36.71270009674894
C           19.72881649289198       56.57237738228784       36.32850787639063
C           19.08567997155627       57.78615833251298       36.16968529069779
H           19.63981350763354       58.67894145274767       36.41951990816229
C           14.70809575150940       56.88114554712558       34.40424525345126
H           13.88123547468753       57.47988369848721       34.05460417399372
C           15.43166497869561       52.19004939368997       35.13344021556793
H           14.79431839683844       51.32025076375836       35.09136343597413
C           20.02411029932374       53.07264707764571       36.18207517987335
H           20.90457201018103       52.48069135916556       36.37737419328306
C           14.97452152816023       59.93483364769227       34.30927567540946
H           15.33887407074718       60.95682019257570       34.38016982284654