72
 energy: -105.916524969877 gnorm: 0.227662404821 xtb: 6.7.1 (edcfbbe)
Fe          29.37000000000000       30.46500000000000       44.30199999999999
N           29.04100000000000       29.75500000000000       42.44700000000000
N           31.01200000000000       29.25800000000000       44.50200000000000
N           29.67600000000000       31.13100000000000       46.25800000000000
N           27.78700000000000       31.53700000000000       44.14000000000000
C           28.08600000000000       30.14300000000000       41.59400000000000
C           28.21800000000000       29.41400000000000       40.34900000000000
C           29.23500000000000       28.54500000000000       40.51300000000000
C           29.72700000000000       28.73000000000000       41.84300000000000
C           31.37100000000000       28.29300000000000       43.63200000000000
C           32.54800000000000       27.62500000000000       44.11100000000000
C           32.82800000000000       28.20700000000000       45.31900000000000
C           31.78100000000000       29.21300000000000       45.57300000000000
C           30.78300000000000       30.95200000000000       47.02400000000000
C           30.70200000000000       31.78700000000000       48.16999999999999
C           29.47500000000000       32.42600000000000       48.10000000000000
C           28.83000000000000       32.01300000000000       46.87400000000000
C           27.12300000000000       32.19900000000000       45.11599999999999
C           25.85600000000000       32.82600000000000       44.63400000000000
C           25.71000000000000       32.44000000000000       43.35200000000000
C           26.89900000000000       31.60400000000000       43.07699999999999
C           27.09300000000000       31.05300000000000       41.84400000000000
H           26.43400000000000       31.34800000000000       41.02799999999999
C           30.76700000000000       28.02600000000000       42.39500000000000
H           31.15800000000000       27.18500000000000       41.82200000000000
C           31.76100000000000       30.04900000000000       46.70400000000000
H           32.60400000000000       29.97000000000000       47.39100000000000
C           27.62000000000000       32.42500000000000       46.40400000000000
H           26.98200000000000       32.98000000000000       47.09199999999999
C           29.76000000000000       27.53400000000000       39.50000000000000
H           29.44200000000000       27.83300000000000       38.47800000000000
H           29.34700000000000       26.52800000000000       39.72599999999999
H           30.87000000000000       27.50700000000000       39.53799999999999
C           27.39300000000000       29.56700000000000       39.05900000000000
H           27.96000000000000       30.18000000000000       38.32600000000000
H           26.43200000000000       30.07600000000000       39.28599999999999
H           27.19800000000000       28.56600000000000       38.61700000000000
C           33.33100000000000       26.48800000000000       43.43300000000000
H           34.22699999999999       26.90600000000000       42.92600000000000
H           32.68900000000000       25.98900000000000       42.67600000000000
H           33.66000000000000       25.75100000000000       44.19700000000000
C           33.88099999999999       28.00500000000000       46.32099999999999
H           33.73100000000000       28.40100000000000       47.33600000000000
C           34.99399999999999       27.38400000000000       46.09400000000000
H           35.20600000000000       26.96400000000000       45.09999999999999
H           35.74200000000000       27.26800000000000       46.89300000000000
C           31.77400000000000       31.88600000000000       49.25500000000000
H           32.50000000000000       32.68400000000000       48.98800000000000
H           32.31500000000000       30.91900000000000       49.33700000000000
H           31.30099999999999       32.14100000000000       50.22800000000000
C           28.87700000000000       33.50100000000000       48.89299999999999
H           27.79799999999999       33.70200000000000       48.81800000000000
C           29.57900000000000       34.24299999999999       49.69700000000000
H           30.66100000000000       34.08000000000000       49.80500000000000
H           29.10000000000000       35.04299999999999       50.28000000000000
C           24.89000000000000       33.69900000000000       45.43900000000000
H           25.45800000000000       34.50200000000000       45.95500000000000
H           24.37000000000000       33.07900000000000       46.20000000000000
H           24.14800000000000       34.16499999999999       44.75599999999999
C           24.58200000000000       32.80200000000000       42.38200000000000
H           24.84900000000000       33.73000000000000       41.83300000000000
H           23.64200000000000       32.97600000000000       42.94800000000000
H           24.43800000000000       31.97900000000000       41.65000000000000
O           28.22600000000000       28.77400000000000       45.05099999999999
H           28.85700000000000       28.20100000000000       45.48700000000000
H           27.35200000000000       28.63200000000000       44.97399999999999
C           30.86700000000000       32.32800000000000       41.89000000000000
H           31.76700000000000       32.89800000000000       41.57599999999999
H           29.97100000000000       32.87300000000000       41.52500000000000
H           30.90700000000000       31.32900000000000       41.40500000000000
S           30.79900000000000       32.14800000000000       43.67599999999999
H           31.82200000000000       31.30900000000000       43.74700000000000
72
 energy: -105.956130579100 gnorm: 0.081782726249 xtb: 6.7.1 (edcfbbe)
Fe          29.35006166914596       30.46809121174780       44.29470675894309
N           29.04146822674880       29.74477520232425       42.44519271970661
N           30.97168110377310       29.24870946526436       44.50539107790971
N           29.66155632570426       31.12851275119231       46.22554882727013
N           27.72784840414169       31.52536608394546       44.14423904520184
C           28.09803555006093       30.14405987449981       41.56866274322768
C           28.21860797037218       29.40883543466331       40.32796286534826
C           29.23715561498284       28.53010704306002       40.50416674681669
C           29.73767635095501       28.73356647858798       41.83909117929202
C           31.37648941925509       28.29195677118917       43.63041245468074
C           32.55193679555087       27.62353479705938       44.13157714531640
C           32.82697431796307       28.20930846460337       45.34353827298023
C           31.79638003772775       29.22591107506224       45.56440471561145
C           30.76548030832026       30.95493836490886       47.00308179857198
C           30.68854857383512       31.78975641437224       48.17079088141480
C           29.47291571424075       32.43247666307531       48.09677632652274
C           28.83793752694168       31.99943105471550       46.86714772270737
C           27.10897794091120       32.22410244753078       45.12681483699882
C           25.85167417950800       32.82133159474833       44.65042743183175
C           25.71665365263162       32.44566756247978       43.35680373307091
C           26.89336530959198       31.63238362807657       43.05683473070015
C           27.10226859595629       31.06690659050347       41.82404091199516
H           26.42644230942561       31.33037962697594       41.02291086988924
C           30.78063386477623       28.02893952710197       42.39932847785597
H           31.17246589453269       27.19851268235217       41.82612255810484
C           31.76289057748818       30.05446554276560       46.68714083416820
H           32.58846864372222       29.97031204877026       47.38315126873385
C           27.61458705780639       32.43082223028963       46.40233192919855
H           26.99069492898737       32.99472200514149       47.08372485703033
C           29.76015089754594       27.53714707889543       39.50610297821272
H           29.45080946883375       27.82421582324172       38.49680135925515
H           29.36180022222369       26.53966118357048       39.72170213652242
H           30.85302045505037       27.50007911241131       39.53659741806965
C           27.39732052630589       29.57095394863239       39.07226268929925
H           27.94875286587296       30.17169383285930       38.33956024921951
H           26.44597485925155       30.06656756001687       39.28045803377059
H           27.19608887840385       28.59022502400389       38.63028985836057
C           33.31357747939487       26.50929926886944       43.44628560525372
H           34.20289400110259       26.90358229427249       42.93814684806802
H           32.69657057432207       26.00343861049605       42.69693508642470
H           33.64188296191852       25.76826546613182       44.18259707715907
C           33.87596291563376       27.99145547558256       46.32222564903810
H           33.71564453251553       28.39503681765679       47.31922527234808
C           35.01616198609713       27.36457564944690       46.09099689408632
H           35.24216561087592       26.96246188527236       45.11426948870632
H           35.75695641667843       27.25439062912499       46.87315974361686
C           31.75242619194802       31.88269829140395       49.23845790668153
H           32.48149745956804       32.66516650878890       48.98923640054091
H           32.29695348354458       30.93741723256219       49.33178256739107
H           31.30770958085244       32.12423891007918       50.20905714560885
C           28.88489832016226       33.48297522226668       48.90994666189896
H           27.81819875393801       33.67735062550717       48.80706248557055
C           29.58871163965776       34.25384380551040       49.72246123824871
H           30.65607103926454       34.12173603361051       49.82020846254819
H           29.11913123461975       35.04945222818559       50.28692202623366
C           24.90958552677913       33.68814856900506       45.44314648852657
H           25.45345197539627       34.48907176001912       45.95319203079407
H           24.38009886474365       33.09077384351840       46.19320087112861
H           24.17326113241329       34.14767931868723       44.77619736762597
C           24.60656131592061       32.79388897943250       42.39469597589463
H           24.85045485000462       33.71089291767242       41.84452799790827
H           23.67076997256254       32.96427025418013       42.93673851359017
H           24.44230217742246       31.99270808925419       41.66802000458264
O           28.23997989574790       28.78017598582132       45.05788763103931
H           28.84582077569230       28.18494566271997       45.49579018817504
H           27.31852298725914       28.60906379350784       44.98346980738564
C           30.87281527819220       32.32569806283624       41.86914806136821
H           31.76154247120426       32.89645183340035       41.58024385880605
H           29.98026393116345       32.86109588726278       41.53478402637538
H           30.89889936925308       31.33742176671377       41.40248721964134
S           30.79772905986680       32.15946693051623       43.66638482702081
H           31.83673119573892       31.33143519004559       43.74601012690420
72
 energy: -105.966617624289 gnorm: 0.027286987071 xtb: 6.7.1 (edcfbbe)
Fe          29.33696456740636       30.45312144075092       44.30040649215220
N           29.04598662670613       29.74238308550107       42.44600229268426
N           30.94779561455716       29.24536155171675       44.51007982703425
N           29.64192203226419       31.13155309917860       46.19669219973470
N           27.69341577724666       31.52422610358485       44.14115320425235
C           28.10816985468103       30.14540758474215       41.55376206117315
C           28.22677780284476       29.40847119366516       40.31648727068032
C           29.24557202233930       28.52383435653828       40.50121837558309
C           29.74599308788958       28.73979408039053       41.84046628508472
C           31.37956294304139       28.29192652142594       43.63444247077383
C           32.55477258867491       27.62882090346934       44.14553221409378
C           32.83313181947295       28.22147271123846       45.35573178799316
C           31.80509492068838       29.23084270466759       45.56224316552670
C           30.74569941550492       30.95815771994056       46.97656513066211
C           30.67550721741553       31.78914812546968       48.15777610838023
C           29.47095057922294       32.44411384209772       48.08418839472826
C           28.83884457121672       31.99763629575796       46.85397093474219
C           27.09490906095962       32.23547823631441       45.13077916102995
C           25.85382800576861       32.82252092724936       44.65768162781494
C           25.72823992437824       32.45641371057118       43.35547617794840
C           26.88832955095737       31.64671184350853       43.04739629931751
C           27.10860765257687       31.06757270370711       41.81619529999394
H           26.42358888967961       31.31170780948540       41.02114090822997
C           30.79166868458343       28.03366547444109       42.40523609835551
H           31.19788662621054       27.22198481482439       41.82098171829871
C           31.75481782636509       30.05808791890323       46.67418085865196
H           32.56732894996738       29.98058771651900       47.37908514473122
C           27.60739838081954       32.43921820209634       46.39636108389800
H           27.00152540210074       33.02613264782878       47.06909018349339
C           29.76491940295766       27.53613993260531       39.51470161262530
H           29.45862710315398       27.81571224923720       38.51078166890921
H           29.37632326274219       26.54029137743758       39.72498318425057
H           30.85007683484051       27.49228733031854       39.54138184557435
C           27.40457446929710       29.57399485443365       39.08424103626926
H           27.94251133258594       30.17274048615994       38.34892718940558
H           26.45919513283764       30.06337035155133       39.29117854964973
H           27.19530730658514       28.60417921129521       38.63911183370904
C           33.29439374870866       26.52658980559891       43.46277181516054
H           34.17759692106421       26.91448230597392       42.95241175607951
H           32.67820735623890       26.02601274891155       42.72065533888525
H           33.62269049999833       25.78488856430091       44.18801385103979
C           33.88378087211116       27.98012729873723       46.31270890394390
H           33.70925546233524       28.36796463466054       47.30617219570073
C           35.03508927569128       27.35201023941724       46.08151709670773
H           35.27973946532407       26.95976982448469       45.11561322828282
H           35.76523344029150       27.23287961423777       46.86038688932058
C           31.72885089807243       31.87067996653981       49.21464182894426
H           32.45617775770742       32.64877501857568       48.97435991981153
H           32.27162068833957       30.93300366649568       49.30819221384809
H           31.29044047292151       32.10455646931240       50.18171984344422
C           28.90238161390941       33.47797986365606       48.91771144664636
H           27.83831540152621       33.64462839015098       48.81927122917220
C           29.59883024137960       34.26711190588483       49.73405476414589
H           30.65998386439676       34.16257401724916       49.83679002924632
H           29.12447827234442       35.04425006765381       50.30408524088590
C           24.92554945764259       33.67768065212296       45.44923383455555
H           25.46470488101756       34.47335196171043       45.95668426087909
H           24.39538426303181       33.09133992779223       46.19848141431251
H           24.19050273027872       34.13568107147279       44.79241823120240
C           24.62662643548369       32.79272132563657       42.40537026541924
H           24.86369572327174       33.70080933106392       41.85001975633205
H           23.69492804622584       32.96026123959410       42.94068492004409
H           24.45972536554797       31.99323761997899       41.68914742068943
O           28.22924980144816       28.78568624436786       45.08251070887757
H           28.80347672766860       28.14580541010881       45.50625535129487
H           27.29889062156692       28.57753528856487       44.99751595621004
C           30.87435553887825       32.32509214884693       41.84338509318196
H           31.75874007605753       32.89538125110082       41.57526359728084
H           29.98193503491894       32.85416168455718       41.52918461690686
H           30.89424931023505       31.34041506337127       41.39274209891403
S           30.78569403945423       32.16915178270879       43.65307750707076
H           31.85940045437171       31.37733447653689       43.75231767812732
72
 energy: -105.970103876107 gnorm: 0.021847218441 xtb: 6.7.1 (edcfbbe)
Fe          29.33752723469630       30.44255269604038       44.30648234348564
N           29.04701084973825       29.73585821481879       42.45287429497318
N           30.93962663703264       29.24552748464456       44.51585103120873
N           29.62703216894540       31.13762512487131       46.17894399455179
N           27.68080768702564       31.51964595978891       44.14121710622151
C           28.11272326780795       30.14221691788521       41.55360196216110
C           28.23692616559150       29.40734927003206       40.31704742008530
C           29.25665654568582       28.52295961196755       40.50355551415182
C           29.75254419974969       28.74254044056238       41.84458826712591
C           31.37877036965867       28.29379804619009       43.64088858648078
C           32.55269769798661       27.63483774537398       44.15281770677852
C           32.83634030135597       28.22870880931569       45.36061475732302
C           31.80665591272288       29.23078823757936       45.56518292812166
C           30.73149729412033       30.95986518374948       46.95621484823711
C           30.66792311673128       31.78902653433172       48.13829291668988
C           29.47096407601657       32.45544290942180       48.07002144400353
C           28.83692363162542       32.00971830699446       46.84010664521177
C           27.08792869199092       32.23952124629231       45.12970955652217
C           25.85389139125494       32.82413157178932       44.65777144596674
C           25.73259740755572       32.46166935702615       43.35258350882952
C           26.88701568705987       31.64985141607891       43.04614642366221
C           27.11336832543214       31.06275768653098       41.81681051920867
H           26.42431013493841       31.29649855504869       41.02138797692301
C           30.80259602837616       28.04051844603597       42.40711065805877
H           31.22745620026296       27.24683586988853       41.81053583522614
C           31.74547144488373       30.06104345269496       46.66916497116462
H           32.55071829869021       29.99151512895932       47.38221668518302
C           27.60574172566318       32.45728759044482       46.38854229622497
H           27.01465712689255       33.06814712828335       47.05376986724320
C           29.77637686563222       27.53157173232577       39.52285153048675
H           29.46862940000723       27.80474614965943       38.51753286773543
H           29.39137089523204       26.53455751540305       39.73706943132452
H           30.86184109774638       27.48599173548221       39.54817067277912
C           27.41026068130239       29.57722938484603       39.09133369279688
H           27.94010781789071       30.18062979473375       38.35328480383085
H           26.46565346111246       30.06489613668957       39.30744459814384
H           27.19619727530354       28.61020814310529       38.64165675293909
C           33.28119290110609       26.53254414498304       43.47292194179574
H           34.16286112876178       26.91670109230639       42.95774444168859
H           32.65491875193739       26.03630019987925       42.73725823343097
H           33.60924219456101       25.79181981893056       44.19877639051478
C           33.89156965266647       27.96582856460291       46.30630982495839
H           33.71157193468417       28.33890001119711       47.30477714502454
C           35.04507196053699       27.33894808957381       46.07272913441811
H           35.31559241185873       26.97218975356700       45.10134169793960
H           35.76985309289479       27.20630699234320       46.85531747697945
C           31.71323575772348       31.85612420904214       49.19504617810214
H           32.44171792675360       32.63457105033942       48.96225007962294
H           32.25032463858275       30.91525541143613       49.28193559878039
H           31.26769967343979       32.08356410150862       50.16021835388374
C           28.91421168317413       33.47312531355051       48.92889812182663
H           27.84651124178071       33.61950796913637       48.84299876120664
C           29.60242574905468       34.26685643091143       49.74975639370118
H           30.67263266320796       34.20885219852268       49.83232499874833
H           29.11770980465920       35.03284931850114       50.32744669767389
C           24.93344274075780       33.67544449094909       45.45765363813788
H           25.47898059712409       34.46785836209772       45.96416187976151
H           24.41187148372623       33.08739199189634       46.21190968422213
H           24.19197990886743       34.13510774636840       44.81017660633650
C           24.63446300749572       32.79649722164283       42.40512854440642
H           24.87293260410157       33.69933534273876       41.84244702849908
H           23.70537287612246       32.96759933482713       42.94238829201700
H           24.46823831742825       31.98985158146838       41.69703008170640
O           28.20362109890449       28.80290178187881       45.14018373749746
H           28.75680026623662       28.09235442170691       45.49705737268732
H           27.28352342728782       28.54545386976468       44.99505697108903
C           30.87044185447459       32.32440984655987       41.82042202754762
H           31.75456443673681       32.89522031496023       41.55923695464978
H           29.97613766583864       32.84943651350459       41.50865055056646
H           30.89165001914943       31.33600156368299       41.37989933414773
S           30.77369655882473       32.18548122665863       43.63871608326988
H           31.88512285582119       31.44034018407632       43.75943388210115
72
 energy: -105.971344108541 gnorm: 0.043950548873 xtb: 6.7.1 (edcfbbe)
Fe          29.33697367464194       30.43375926803048       44.31592357888492
N           29.04339412566503       29.72326658881418       42.46512605195768
N           30.93582009033652       29.24904296610049       44.52165338748717
N           29.61913122734284       31.15139337036442       46.16089585084102
N           27.67380870699013       31.51857072194721       44.14225113789687
C           28.11206098930753       30.13378332531295       41.56106591601519
C           28.24679108466850       29.40485390920687       40.32226425343903
C           29.26940168924071       28.52448501243021       40.50710608111517
C           29.75824369949822       28.74276249643317       41.84991118112328
C           31.37796389305893       28.29917192418165       43.64685528094586
C           32.55034969544695       27.64226171756827       44.15664348652636
C           32.83868957028736       28.23561392180955       45.36228059218254
C           31.80711441244881       29.23174531489764       45.56860402770394
C           30.72140011093177       30.96342719272176       46.93733785224424
C           30.66367859702803       31.79068307249558       48.11721118242514
C           29.47449507429457       32.47007590292299       48.05291455740232
C           28.83661040987492       32.02996809030859       46.82411165139743
C           27.08325146294915       32.24617235472648       45.12643437468282
C           25.85232436423973       32.83040831080390       44.65367032258296
C           25.73233697461777       32.46715432866348       43.34824216744225
C           26.88358406736918       31.64891363563263       43.04809355269144
C           27.11367372713816       31.05299578228505       41.82208228652112
H           26.42727411521929       31.28401415549040       41.02276241444167
C           30.81616703888501       28.04991885856477       42.40617368882015
H           31.26164015522157       27.27517531320586       41.79862430757179
C           31.73817319225247       30.06568948578139       46.66659972435427
H           32.53703472000398       30.00131735468171       47.38796838527902
C           27.60876623086660       32.48442885162333       46.37861532257870
H           27.03259811415566       33.11795121919204       47.03650980440953
C           29.79272349731754       27.52768997373056       39.53185027332691
H           29.48206739586315       27.79138611170988       38.52359926878767
H           29.41173271390001       26.52952058234810       39.75557773129100
H           30.87980073508644       27.48477253972757       39.55609541856109
C           27.41612705517338       29.58036263370863       39.09820349912796
H           27.94019449357187       30.19199932462073       38.36127925592454
H           26.47067032082453       30.06518261543691       39.32518382525162
H           27.20113714729967       28.61531895520409       38.64212216409905
C           33.27003211027536       26.53236217513131       43.48123231082022
H           34.15033875690603       26.90933821638332       42.95725973972150
H           32.63246943844407       26.03524133322787       42.75455356449079
H           33.59947125178728       25.79648339639302       44.21249618750746
C           33.89884824684002       27.95512199340159       46.29968526605754
H           33.71053155310446       28.30030384214526       47.30973267534113
C           35.05417937101183       27.33634508912492       46.05949620926540
H           35.34430737633216       26.98703047523349       45.08473519973446
H           35.76848507304768       27.17407915904644       46.85032231953591
C           31.69990097693832       31.84154364802323       49.18078975844308
H           32.43429418376837       32.61822997223166       48.95937630152560
H           32.22835470344594       30.89454713525206       49.26236384518225
H           31.24295390919013       32.06514324881364       50.14254367688523
C           28.92735391733154       33.47359099450117       48.93435435392708
H           27.84986407109093       33.58611150773424       48.88508548445269
C           29.60998377883141       34.27372249485286       49.75130584065398
H           30.68311211935958       34.24571070581452       49.83027641895561
H           29.10791813071348       35.00454828980551       50.36637256867240
C           24.93789346529687       33.67745881005469       45.46659677707940
H           25.49186999207895       34.46861553475216       45.96934189643209
H           24.43236295906646       33.08309070582634       46.22889650829351
H           24.18455645871035       34.13802826341022       44.83254663373688
C           24.63653224049663       32.80204269036471       42.39853621502430
H           24.88136036139223       33.69761590023073       41.82571364745630
H           23.71004156897910       32.98444861010301       42.93763898696453
H           24.46695957461175       31.98672530044576       41.69907671332760
O           28.16913623579977       28.82721498419016       45.22804173236071
H           28.70930590485595       28.03664465181041       45.47180608202308
H           27.27787978656199       28.48813536493846       44.96771465455644
C           30.86346926411132       32.32159946232132       41.79665679497842
H           31.74746173973716       32.89240746773451       41.53512599141762
H           29.96752124250285       32.84170502548140       41.47910268265292
H           30.88876052155500       31.32770951575757       41.36608903582206
S           30.75950367784588       32.20286501324357       43.62163200628094
H           31.90578146496166       31.50800183953457       43.76265806308754
72
 energy: -105.972233415349 gnorm: 0.021353337198 xtb: 6.7.1 (edcfbbe)
Fe          29.33567164455203       30.42874818705069       44.32068639521874
N           29.03992565286954       29.71420130098194       42.47215051420127
N           30.93711012419151       29.25137320639857       44.52424629228074
N           29.61836614317744       31.16094865599593       46.15167634850280
N           27.67359118260127       31.51802006023054       44.14366275115928
C           28.10915374262000       30.12690889433840       41.56815336625894
C           28.25239265168526       29.40356065232757       40.32639572655421
C           29.27806813350296       28.52793121964237       40.50793060821064
C           29.76202282348545       28.74214631195493       41.85135844701998
C           31.37829222276771       28.30367486063379       43.64856119737885
C           32.54949340045354       27.64644643672311       44.15575839034860
C           32.83937613341864       28.23730465824534       45.36097507391436
C           31.80638456471648       29.23154266196283       45.57037821569465
C           30.71813353771719       30.96516972983729       46.92843398236140
C           30.66270881540646       31.79091768830618       48.10554921489292
C           29.47748126269829       32.47709267083398       48.04329255804512
C           28.83756062860759       32.04527825498459       46.81389728591107
C           27.08244051847049       32.25011890890944       45.12307108436019
C           25.85063750594265       32.83570474038989       44.64888127665478