78
 energy: -115.990418909679 gnorm: 0.240227124382 xtb: 6.7.1 (edcfbbe)
Fe         -11.70200000000000        2.42200000000000        1.26500000000000
N          -12.23800000000000        0.63300000000000        2.13600000000000
N           -9.94600000000000        2.39100000000000        2.33700000000000
N          -11.01000000000000        4.00900000000000        0.19400000000000
N          -13.28200000000000        2.27800000000000       -0.00400000000000
C          -13.40800000000000       -0.05000000000000        1.87800000000000
C          -13.42100000000000       -1.24400000000000        2.67600000000000
C          -12.28800000000000       -1.22700000000000        3.41200000000000
C          -11.53700000000000       -0.05600000000000        3.09800000000000
C           -9.62700000000000        1.47200000000000        3.33900000000000
C           -8.46600000000000        1.95300000000000        4.01600000000000
C           -8.08100000000000        3.10900000000000        3.44400000000000
C           -9.00500000000000        3.39400000000000        2.36500000000000
C           -9.85400000000000        4.69700000000000        0.44200000000000
C           -9.68000000000000        5.71000000000000       -0.55700000000000
C          -10.73100000000000        5.62200000000000       -1.41100000000000
C          -11.61600000000000        4.57700000000000       -0.92800000000000
C          -13.66100000000000        3.23300000000000       -0.95500000000000
C          -15.02200000000000        2.95600000000000       -1.36200000000000
C          -15.48300000000000        1.89000000000000       -0.69600000000000
C          -14.37700000000000        1.45100000000000        0.15000000000000
C          -14.40200000000000        0.34600000000000        1.00500000000000
H          -15.30200000000000       -0.26900000000000        0.98000000000000
C          -10.33400000000000        0.31500000000000        3.60200000000000
H           -9.86900000000000       -0.38300000000000        4.29800000000000
C           -8.97400000000000        4.49200000000000        1.50200000000000
H           -8.20400000000000        5.24400000000000        1.67100000000000
C          -12.82600000000000        4.21500000000000       -1.44000000000000
H          -13.16700000000000        4.75700000000000       -2.32200000000000
C          -11.82600000000000       -2.28800000000000        4.43200000000000
H          -12.57900000000000       -3.10400000000000        4.48500000000000
H          -11.72600000000000       -1.82400000000000        5.43700000000000
H          -10.85200000000000       -2.71700000000000        4.11300000000000
C          -14.54200000000000       -2.28500000000000        2.62600000000000
H          -14.86800000000000       -2.42800000000000        1.57400000000000
H          -15.40800000000000       -1.93300000000000        3.22700000000000
H          -14.17200000000000       -3.25400000000000        3.02400000000000
C           -7.78700000000000        1.20200000000000        5.16900000000000
H           -8.08600000000000        0.13200000000000        5.14200000000000
H           -8.10300000000000        1.64000000000000        6.14000000000000
H           -6.68300000000000        1.27000000000000        5.06300000000000
C           -6.93500000000000        4.04400000000000        3.79500000000000
H           -6.58400000000000        4.77200000000000        3.04900000000000
C           -6.31500000000000        4.03200000000000        4.98600000000000
H           -6.62500000000000        3.32500000000000        5.77000000000000
H           -5.49000000000000        4.72900000000000        5.19300000000000
C           -8.44800000000000        6.60600000000000       -0.63700000000000
H           -7.53900000000000        6.00700000000000       -0.41700000000000
H           -8.53000000000000        7.42400000000000        0.11000000000000
H           -8.36000000000000        7.03300000000000       -1.65900000000000
C          -11.00000000000000        6.43200000000000       -2.69600000000000
H          -11.45700000000000        5.91900000000000       -3.55500000000000
C          -10.72000000000000        7.72300000000000       -2.85300000000000
H          -10.26200000000000        8.29900000000000       -2.03500000000000
H          -10.94300000000000        8.23100000000000       -3.80300000000000
C          -15.79400000000000        3.83400000000000       -2.36800000000000
H          -15.36000000000000        3.70500000000000       -3.38300000000000
H          -15.71200000000000        4.90200000000000       -2.07400000000000
H          -16.86200000000000        3.52800000000000       -2.39100000000000
C          -16.86300000000000        1.22400000000000       -0.75900000000000
H          -17.37100000000000        1.51200000000000       -1.70400000000000
H          -17.48200000000000        1.56100000000000        0.10000000000000
H          -16.74800000000000        0.11900000000000       -0.73400000000000
O          -10.46700000000000        0.77300000000000       -0.25700000000000
H          -10.78900000000000       -0.09700000000000       -0.02000000000000
H           -9.86200000000000        0.95700000000000       -0.88200000000000
C          -15.03500000000000        6.25000000000000        3.76100000000000
H          -14.57900000000000        7.22000000000000        4.05300000000000
H          -15.67000000000000        5.88500000000000        4.59600000000000
H          -15.65500000000000        6.40200000000000        2.85200000000000
N          -13.03700000000000        4.88900000000000        4.42100000000000
H          -12.98800000000000        5.25900000000000        5.34900000000000
C          -13.95600000000000        5.25800000000000        3.47600000000000
C          -12.24000000000000        3.97200000000000        3.89500000000000
H          -11.41100000000000        3.50400000000000        4.42400000000000
N          -12.62100000000000        3.73300000000000        2.64700000000000
C          -13.69700000000000        4.52600000000000        2.36700000000000
H          -14.18200000000000        4.49700000000000        1.40000000000000
78
 energy: -116.033753943496 gnorm: 0.095467472696 xtb: 6.7.1 (edcfbbe)
Fe         -11.65922929780731        2.38552898464043        1.21175493368677
N          -12.25398290422703        0.65918572310534        2.13941056187323
N           -9.96142694638221        2.40567650504169        2.34928936839810
N          -11.01222679156025        4.00687039835701        0.19081829350939
N          -13.30966974817882        2.30347770257187        0.02279964867993
C          -13.40252836894963       -0.03995042160130        1.88032929003965
C          -13.42603471353807       -1.24743950953408        2.67547042767392
C          -12.28633751102173       -1.24365853825835        3.41540975835276
C          -11.54973813072398       -0.05194402142019        3.07797059805210
C           -9.62546160039802        1.49244143645918        3.32877851034913
C           -8.44918853728594        1.94964449664310        4.01685135146466
C           -8.06853132330772        3.13050038958065        3.44511134082760
C           -9.02144893330034        3.39774565751020        2.37769522500699
C           -9.86581425062110        4.69898896865898        0.44110271789836
C           -9.67598736446230        5.71580696661555       -0.56733994388285
C          -10.73343594594019        5.63158659248558       -1.42834845316635
C          -11.59327566819517        4.56929509788881       -0.92808807235211
C          -13.66419423029394        3.22197121763224       -0.94752459538592
C          -15.02426292443227        2.96635619566635       -1.37159623885763
C          -15.47839536471576        1.88349156639380       -0.69382716768133
C          -14.38044320637226        1.46249320313524        0.16491377306584
C          -14.40030833690306        0.35443535573733        1.00469982426707
H          -15.29278820596809       -0.26206323616214        0.97718578110340
C          -10.33170828232471        0.32600211715720        3.59654061457960
H           -9.88009349106345       -0.36383113849417        4.30496192301356
C           -8.99023900709785        4.48130356303754        1.50435621934053
H           -8.20949022299794        5.21887397346442        1.65731233212323
C          -12.82251424823746        4.20820611106003       -1.43947652209356
H          -13.17271509730450        4.76283838312216       -2.30552308921111
C          -11.83156862141280       -2.27992602422780        4.42081757611171
H          -12.56396914769014       -3.08967061291066        4.48691537504796
H          -11.72448390302754       -1.83099787288515        5.41446479662847
H          -10.86805845953512       -2.70654046958895        4.12127835433553
C          -14.52909808746296       -2.27452277074886        2.62662432657398
H          -14.86010002751028       -2.42578392561211        1.59399717770367
H          -15.39005975451789       -1.94102078071963        3.21779299490757
H          -14.18254648577271       -3.23497617699073        3.01968180930893
C           -7.79154411785174        1.20472321365056        5.15480153809500
H           -8.07877077673370        0.14929229881954        5.14270571894091
H           -8.09598229567579        1.62753653200534        6.12028570826444
H           -6.70254703803062        1.26772163414425        5.06596285606372
C           -6.94517710512952        4.02562543116949        3.79970130199239
H           -6.61539321352567        4.74335377546653        3.05040242493211
C           -6.32103730666134        4.02621714691558        4.97719431522244
H           -6.61544696294708        3.35220700237871        5.76914736233996
H           -5.50834996375807        4.71438636947957        5.18542285677797
C           -8.45888864965302        6.59875971429959       -0.64077243351850
H           -7.55614133066286        6.01791821734106       -0.42204519549999
H           -8.52869633123451        7.41155909733486        0.09216075096480
H           -8.36194719386149        7.02852768274396       -1.64172655969537
C          -10.99513891111727        6.42177406804419       -2.66998800345627
H          -11.45243671416761        5.89709456524258       -3.50936982754233
C          -10.71487952134638        7.70957879272914       -2.83792423742761
H          -10.27424109311347        8.30008930969992       -2.04413167623908
H          -10.93314328530091        8.21607578143132       -3.77439432621372
C          -15.78156363411017        3.82559774336577       -2.36150255356083
H          -15.36369816548639        3.70852657108997       -3.36764820799036
H          -15.71304414692017        4.88132008762895       -2.07974456925753
H          -16.83657866251771        3.53720474149527       -2.38935817168070
C          -16.83934653068066        1.23080900039962       -0.75918424707173
H          -17.35566959311303        1.50581984000227       -1.68495872445546
H          -17.46189141382445        1.55085776894381        0.08535581934601
H          -16.74767227160353        0.14069508724209       -0.73143148183167
O          -10.50201660848698        0.79708300697543       -0.22765642219599
H          -10.78919510907436       -0.08921754471159       -0.01735439708241
H           -9.85420175050105        0.96578641121265       -0.88877841115469
C          -15.03158161301415        6.25166061329178        3.76176542644828
H          -14.59318406610727        7.21358761460210        4.05107521244748
H          -15.66800657411358        5.89983571958917        4.58164834874207
H          -15.64613561350375        6.39987725608481        2.87103411725122
N          -13.04093963007238        4.88941307288454        4.41556115076939
H          -12.98733463606293        5.26266813329735        5.34855553382226
C          -13.96306833247434        5.25534750901576        3.47565822146515
C          -12.24120439182490        3.95734510970610        3.87328783706092
H          -11.42069136568545        3.49922800433555        4.39847840525140
N          -12.60780106534133        3.70108601637533        2.63003184968951
C          -13.68234092811363        4.50958288789096        2.36892842864602
H          -14.16571694605615        4.49004960957554        1.41019344004805
78
 energy: -116.045807636180 gnorm: 0.023786446354 xtb: 6.7.1 (edcfbbe)
Fe         -11.64338042158623        2.36733104569245        1.19212407619355
N          -12.25257551748428        0.67057997375185        2.12446332525822
N           -9.97413003871171        2.40684405957585        2.34597867768650
N          -11.00208737690270        3.98114478913745        0.17538376259400
N          -13.31289186726000        2.31224575953065        0.03084856069981
C          -13.39506740850326       -0.02602884911937        1.87994728820812
C          -13.42535225258345       -1.24190355969142        2.67034844160992
C          -12.28070874838905       -1.24844322679895        3.41089051283754
C          -11.55663080891261       -0.04256040733065        3.05750747928385
C           -9.63430573709805        1.50761997885155        3.31532130719660
C           -8.44952551647675        1.94530931923208        4.01363538979424
C           -8.07579533384349        3.14385481232293        3.44641428863158
C           -9.04099784564571        3.39461280573242        2.38183034205532
C           -9.86878863965588        4.68551398108331        0.43403956366348
C           -9.67509278496969        5.71464105520182       -0.56725558594865
C          -10.73671989956095        5.62979273900936       -1.43191065633376
C          -11.57324170473499        4.54920746559083       -0.92570450433512
C          -13.66000892028984        3.21560979409215       -0.93029124639512
C          -15.01738781949948        2.97375958331758       -1.37499205968442
C          -15.46579306758340        1.88349081345093       -0.68822027162129
C          -14.37593540320075        1.47778604948373        0.18053616862459
C          -14.40052719012049        0.36895112752071        1.01050329623835
H          -15.28539938050283       -0.25171210115713        0.97556133257900
C          -10.33782218269527        0.33972933935969        3.59536805335403
H           -9.90168444240048       -0.33817346193613        4.31927785666942
C           -9.00179403745577        4.46487024756428        1.50070717617469
H           -8.21003366927619        5.18918476345683        1.63817825231743
C          -12.82046970012712        4.20493149398951       -1.42813699641609
H          -13.18086356196066        4.77206759551753       -2.27785075739096
C          -11.83182932324581       -2.26594295228783        4.40597960340740
H          -12.55479305978216       -3.07254199239956        4.48043969941011
H          -11.72192557881727       -1.82148583764812        5.39336463805897
H          -10.87190657656021       -2.69267933104350        4.12052395807394
C          -14.51670544482912       -2.25892116053715        2.62623097408924
H          -14.85092447970414       -2.41842244348989        1.60378317730245
H          -15.37534077265628       -1.93460308587855        3.21333876691001
H          -14.17928162144499       -3.21276340871655        3.02183547003302
C           -7.79795392088816        1.20609501060251        5.13460081280389
H           -8.07781436014448        0.15738188931293        5.12870498542259
H           -8.09674911562513        1.62117683177020        6.09799105441923
H           -6.71549242594695        1.27167927273355        5.05733705809334
C           -6.97318012287978        4.00916565957053        3.79934787502211
H           -6.65632268789868        4.71198401259457        3.03855106760523
C           -6.33608593189310        4.02515298070970        4.96814683638248
H           -6.61085496853884        3.37778735626085        5.77751822227908
H           -5.52090359626200        4.70119903122435        5.16259201395581
C           -8.47188623810059        6.59214734327380       -0.64211169154060
H           -7.57150000549198        6.02092149954818       -0.42497439982389
H           -8.53545347244864        7.40390348138434        0.08232351396993
H           -8.37439524819484        7.02306156788105       -1.63378953102632
C          -10.99484438406623        6.40128671561856       -2.63384052785126
H          -11.45849461094343        5.86388006556227       -3.45424119483119
C          -10.71287393552251        7.68835315589194       -2.81375893760391
H          -10.28303859453811        8.29601232950812       -2.03860206234783
H          -10.92180155245762        8.18919595291104       -3.74559968598067
C          -15.76329803019900        3.81628835272857       -2.35561853484535
H          -15.35312717137673        3.70712645001616       -3.35803284226604
H          -15.70257745453436        4.86684662364826       -2.07996230623817
H          -16.81204932642320        3.53554125379645       -2.38493682070966
C          -16.81118304461963        1.23780719627128       -0.75686167798124
H          -17.32874513177434        1.50947275978655       -1.67359189673808
H          -17.43365528022242        1.54828757620357        0.08303096495317
H          -16.72998782954609        0.15446632333277       -0.72754456738423
O          -10.56174692338858        0.84825490191566       -0.21707773618751
H          -10.77548775867053       -0.06609731711321       -0.01441368488932
H           -9.86276559142904        0.98262581410714       -0.86271050494000
C          -15.02885336253570        6.25146999213388        3.75835189030025
H          -14.59536582302874        7.20714307437112        4.04638699878410
H          -15.66610760713878        5.90824346828929        4.57165113997050
H          -15.64043773708242        6.39793977081142        2.87650123815109
N          -13.04112706308288        4.88514553194781        4.41189952715454
H          -12.98041554858261        5.25848002809439        5.34657937671167
C          -13.96841950952726        5.25097102918987        3.47403038093300
C          -12.24360887651710        3.94476383166087        3.85783683793715
H          -11.42762520621656        3.48833827548904        4.37720227152099
N          -12.60388681916046        3.68770298212561        2.62311162428308
C          -13.67651150490596        4.49769045971374        2.37107312478843
H          -14.15965409372544        4.48521069069061        1.41690042691369
78
 energy: -116.048705430598 gnorm: 0.038593840247 xtb: 6.7.1 (edcfbbe)
Fe         -11.64038320819633        2.36056023465536        1.19033314178167
N          -12.25430690203277        0.68130349333148        2.12125220683271
N           -9.98548166612135        2.40367950677816        2.34436489773364
N          -10.99437784679781        3.96161289561909        0.17374861406558
N          -13.31200146602630        2.32244452785300        0.04647411814928
C          -13.39438628262931       -0.01551644161823        1.87868056032398
C          -13.42496394849322       -1.23162713055967        2.66620997445871
C          -12.27949862398724       -1.24135464279629        3.40405009891738
C          -11.56023631651447       -0.03348197065710        3.04949353927928
C           -9.64630991415436        1.50931989918296        3.31137693866160
C           -8.46372321245230        1.94175814618237        4.01370014391374
C           -8.09293775338481        3.14301491020963        3.44917513270936
C           -9.05281715435579        3.38864453265756        2.38206306316175
C           -9.86256022647940        4.66820333882329        0.43155361197563
C           -9.67434301591122        5.70547767181548       -0.55826544255252
C          -10.73828439295608        5.61912983910839       -1.41949833690135
C          -11.56453565055486        4.53077861000874       -0.91945038323897
C          -13.65254259079840        3.21562702916908       -0.91807917040383
C          -15.00763165282470        2.97836872075998       -1.37021954102945
C          -15.45579169557472        1.88987999296780       -0.68106518769311
C          -14.37263084075177        1.48787791863038        0.19185708287133
C          -14.40353108201537        0.37715767446903        1.01510420540585
H          -15.28752740941814       -0.24230771638069        0.97916662552730
C          -10.34757871224371        0.34533423637483        3.59963188984943
H           -9.92634412668531       -0.32008692242943        4.34151743033825
C           -8.99858028807821        4.44958067073878        1.49534923982947
H           -8.19765501145047        5.16417218043071        1.62190626242815
C          -12.81671663951314        4.20319617124271       -1.41873794348566
H          -13.18673452004577        4.78656334597609       -2.25208853649734
C          -11.82563739495047       -2.25387682857360        4.39645885884432
H          -12.54664244736902       -3.06267130607436        4.47480458446145
H          -11.71508214492749       -1.80490090574704        5.38244508839430
H          -10.86349642459908       -2.67858939853309        4.11283450291010
C          -14.51392998128176       -2.24687798727889        2.62565320116662
H          -14.84738950367095       -2.41268153923681        1.60366502424253
H          -15.37260771136779       -1.91958364770533        3.21169868159125
H          -14.17406171747944       -3.19726565823205        3.02870878425751
C           -7.80401573265283        1.20052390109768        5.12241656629521
H           -8.07613054258550        0.14934738879485        5.11063841208150
H           -8.10086013313409        1.60977318927099        6.08940119565533
H           -6.72193412809608        1.27711124230350        5.04093229631391
C           -6.98988558630331        4.00084851580842        3.79199018391137
H           -6.68221967502642        4.69666829972405        3.02086357048985
C           -6.34108554618925        4.02907667931298        4.95522439908229
H           -6.61690905575519        3.40899693608055        5.78853983127917
H           -5.52219294513211        4.70533330672756        5.13017381111127
C           -8.47905774941611        6.58830780767624       -0.63928791212574
H           -7.57448894749358        6.02231438646911       -0.42446966655395
H           -8.54411361957797        7.40337864366503        0.08166396173357
H           -8.39032985392275        7.01734072232420       -1.63339818640374
C          -11.00363161616483        6.38553867053086       -2.61222147908209
H          -11.48001163971392        5.84194137203886       -3.42081605554038
C          -10.71392581298762        7.67042770691630       -2.79764890903819
H          -10.28943483699530        8.28497091786237       -2.02422951162159
H          -10.92030669812453        8.16742895526362       -3.73047564988747
C          -15.74496469938967        3.81519581655270       -2.35650017609443
H          -15.33044579109804        3.70423500183842       -3.35748733371012
H          -15.68597231437594        4.86733052587252       -2.08336072947618
H          -16.79377074467297        3.53345240274856       -2.38823522503232
C          -16.79415472062627        1.23994994097246       -0.75281733001136
H          -17.30949663090643        1.51489149439483       -1.66938390865493
H          -17.41475376997992        1.54590089200350        0.09045595169002
H          -16.70768350438723        0.15658848192343       -0.72602115902247
O          -10.66262307651223        0.90297143447613       -0.27208353984933
H          -10.73604847437681       -0.03708472496883        0.01065224340557
H           -9.85050858039522        1.01197879441604       -0.81579467264158
C          -15.02243913547810        6.24672979441003        3.75275823726924
H          -14.58543016390310        7.20147897256705        4.03940728307005
H          -15.66362431231630        5.91019084297656        4.56644970549752
H          -15.63394855675760        6.39484070786444        2.87048805651213
N          -13.03753797338591        4.87188440470476        4.40619866138725
H          -12.97026608897881        5.24500282228825        5.34019064101852
C          -13.96730510266606        5.24051460582852        3.46905436690041
C          -12.24398655351699        3.92912042631241        3.84705173536973
H          -11.42749166743288        3.46895114527742        4.36205177662965
N          -12.60781001681781        3.67562803589426        2.61617270378588
C          -13.67749509013572        4.48647136222997        2.36634850316403
H          -14.16244943652473        4.47858472638726        1.41323438881263
78
 energy: -116.049934136314 gnorm: 0.020974236700 xtb: 6.7.1 (edcfbbe)
Fe         -11.64321970061564        2.35787674921379        1.19384204717658
N          -12.25534936590340        0.69241292370715        2.11878175488825
N           -9.99648307581934        2.39681205806558        2.33989548095923
N          -10.98672369385652        3.94139448400557        0.17684769290431
N          -13.30847159202738        2.33364050273000        0.06599391228794
C          -13.39535907930379       -0.00408857933921        1.87802425950810
C          -13.42445297548776       -1.21921285424130        2.66195982809782
C          -12.27940485445582       -1.23048381781697        3.39650479551518
C          -11.56381530604675       -0.02306358396657        3.04505483672026
C           -9.66104154981042        1.50873401246569        3.31162121811799
C           -8.48340769922535        1.93957065574477        4.01638049962748
C           -8.11457683821739        3.13924579140863        3.45334932508527
C           -9.06380387604199        3.38105893580876        2.38145482229328
C           -9.85359059598066        4.64871069035686        0.43068384986764
C           -9.67278687771816        5.69251953782795       -0.54684946713644
C          -10.73941848896653        5.60490460383359       -1.40183168570463
C          -11.55876875345973        4.51280258385489       -0.90920219152542
C          -13.64345226745779        3.21863542907153       -0.90386067162309
C          -14.99459863651852        2.98140762907299       -1.36447852235291
C          -15.44417208011613        1.89736534144028       -0.67472401065524
C          -14.36892211129284        1.49887066080378        0.20455717808221
C          -14.40817232742077        0.38647528734927        1.02203372069814
H          -15.29211199733917       -0.23133552080751        0.98494949725659
C          -10.36097591715819        0.35094103152131        3.60963832408135
H           -9.95610435074026       -0.30031784455033        4.37140693112606
C           -8.99120016809222        4.43335967678913        1.48984456957134
H           -8.18118511596730        5.13791731039326        1.60638293833774
C          -12.81325799210890        4.20426276180013       -1.40612381659359
H          -13.19039896263366        4.80195872871831       -2.22470977884055
C          -11.81713684733682       -2.24013926350042        4.38841639960569
H          -12.53592212059701       -3.05318564520886        4.47025240732270
H          -11.70663795143978       -1.78473717365419        5.37365340929626
H          -10.85152300876729       -2.66069258117437        4.10322852494630
C          -14.51335613716861       -2.23437071046273        2.62487143421337
H          -14.84377573030011       -2.40782427112787        1.60155130529233
H          -15.37324809704801       -1.90065729282557        3.20838314875835
H          -14.16995657616544       -3.18127054727852        3.03816731875489
C           -7.81122655762084        1.19508832404100        5.11386629772574
H           -8.07194085420223        0.13895606524435        5.09162860755773
H           -8.10736024233449        1.59479571106445        6.08673975864985
H           -6.72875938370773        1.28747017060642        5.02484485266432
C           -7.00911746316883        3.99773819253823        3.78541991213455
H           -6.70354112125828        4.68015183490661        3.00007449543588
C           -6.35266413282223        4.04234579408963        4.94490920718684
H           -6.62392347864722        3.44201058450395        5.79827474142129
H           -5.52337459800436        4.71497801692138        5.09368151651305
C           -8.48523884675191        6.58466219300862       -0.63467531180363
H           -7.57403049237521        6.02571956830206       -0.42131532711734
H           -8.55508146593922        7.40465351063104        0.08250814873564
H           -8.40748105093338        7.00982611070850       -1.63388083942172
C          -11.01622798472092        6.36958245850388       -2.59186768454584
H          -11.50457910438148        5.81957479390173       -3.38960326971536
C          -10.71837315953162        7.65194176676691       -2.78094439914830
H          -10.29025891036240        8.26811319933118       -2.00844335230024
H          -10.92310918602346        8.14525004878204       -3.71614614034728
C          -15.72160515529566        3.81421552396911       -2.36211420903947
H          -15.29677549032617        3.69834684076406       -3.36020700094483
H          -15.66390168073265        4.86927100914511       -2.09175396843483
H          -16.77146078917805        3.53023329872324       -2.40006590606156
C          -16.77698687321429        1.23927723676684       -0.75045871545432
H          -17.29064120856658        1.51863801274619       -1.66770576772002
H          -17.39620010055107        1.53867665690369        0.09794642644640
H          -16.68002726460715        0.15498239461561       -0.72894405934667
O          -10.62940281140705        0.94569618551852       -0.21746739207235
H          -10.77844890304939        0.02842884568364       -0.02241401039559
H           -9.89420258502815        1.04008504010255       -0.82062822638147
C          -15.01523706462055        6.23909620353919        3.74311673465613