78
 energy: -116.058077710408 gnorm: 0.000057899642 xtb: 6.7.1 (edcfbbe)
Fe         -11.67371499652395        2.38324493275766        1.17241220103792
N          -12.29082378908208        0.72190727018429        2.12770093741501
N           -9.99686718616467        2.38693973806784        2.29277976458521
N          -11.02515518103761        3.99240676342473        0.19069220492162
N          -13.30836267285364        2.33112094688313        0.03654778873187
C          -13.46300013739987        0.05971365989767        1.93743881225629
C          -13.57048646757666       -1.06061293319166        2.84378373285394
C          -12.43385616961336       -1.05934424569925        3.59186050354704
C          -11.64911632295883        0.06509443693171        3.13478731819075
C           -9.66285842172615        1.50562179042303        3.27848142286829
C           -8.41322101698716        1.87124027077301        3.89067184666480
C           -7.99579798507455        3.01547132142712        3.26109927373895
C           -9.00089018037925        3.31135177813277        2.26034347950046
C           -9.88255650986242        4.69149990485366        0.43032351404371
C           -9.76860328256792        5.81314491010407       -0.46849696709591
C          -10.88091715265533        5.78008149570736       -1.26570023503454
C          -11.64722016137486        4.62633134002305       -0.83322155529415
C          -13.63096939895403        3.19161178163978       -0.96266243979457
C          -14.90825826747051        2.84302927662111       -1.54843844854780
C          -15.35010986081638        1.74984580568171       -0.87324596381891
C          -14.33555637053486        1.44567380818702        0.11382212131960
C          -14.42338168227642        0.38925656528682        0.99937885443706
H          -15.30652930228051       -0.22926902612247        0.95353384797445
C          -10.42395375037719        0.41521872228233        3.66872263820443
H          -10.04164573131764       -0.19598221237372        4.47199071904160
C           -8.94545168934880        4.39279784457319        1.40287449632112
H           -8.10356469931423        5.06080090626857        1.50044865946457
C          -12.86644879454781        4.26534790216506       -1.37595985343312
H          -13.25524575914783        4.87093105850387       -2.18044755947451
C          -12.01508245371127       -1.99259674584444        4.67618495838383
H          -12.76599842081593       -2.76265316589597        4.83433235623761
H          -11.87331864814414       -1.45477692426524        5.61419828916439
H          -11.07344669511750       -2.47994185691790        4.42159800984979
C          -14.72976574231042       -1.99575159251058        2.89015217821093
H          -14.85714742450062       -2.49604635010868        1.92987618988886
H          -15.64939432922157       -1.45432027907024        3.11287192688011
H          -14.58525921484581       -2.75496802971979        3.65495506345232
C           -7.71370597282799        1.08862782349782        4.94718520904431
H           -7.83841585072810        0.01932099738585        4.78230425032175
H           -8.10924660588097        1.32548786153572        5.93654862776331
H           -6.65049297344647        1.32007494393420        4.93943860183839
C           -6.79496114408461        3.79084622495230        3.47871542204564
H           -6.37872792432634        4.26602773208334        2.59801760976274
C           -6.18872732984819        3.96396873553987        4.64882832345487
H           -6.58134039227190        3.55728890111892        5.56442159090122
H           -5.28613387434043        4.54599830722125        4.73440802632881
C           -8.61134605160326        6.74774177329635       -0.53168484242550
H           -7.67491609158410        6.21206237003553       -0.38297445660701
H           -8.68746876550136        7.51517813958690        0.24052539825039
H           -8.58068130810246        7.23816257316233       -1.50244210195356
C          -11.25755443056539        6.66041237913412       -2.34958677565907
H          -11.78688479838283        6.19099812252200       -3.17067228862108
C          -11.01334737374541        7.96579638815241       -2.40308168021560
H          -10.53360684799311        8.49231320002112       -1.59643147697834
H          -11.31005138599324        8.56044951344309       -3.25120539261086
C          -15.54715136399999        3.58298609280282       -2.67308440435499
H          -14.90545868662616        3.56615797278216       -3.55415372482323
H          -15.71891917554798        4.62448388977035       -2.39984310418818
H          -16.50254405121332        3.13626468288732       -2.93722476481933
C          -16.60577099842737        0.96845631018368       -1.05696321425080
H          -17.21186119024583        1.39231030819266       -1.85382599187433
H          -17.19549219112002        0.96871729238998       -0.13989875858752
H          -16.37876165988083       -0.06675103428647       -1.31274714747979
O          -10.55071627389960        0.97970709895923       -0.25321975009366
H          -10.89640059555998        0.13434462824764        0.05355268643616
H           -9.65867507350713        1.06587929678901        0.10034240082493
C          -14.63652894135145        6.33779072950107        3.75185454155339
H          -14.09935513416937        7.04596039016331        4.38258839829283
H          -15.54655088713890        6.03973017991522        4.27252463664873
H          -14.91150257053663        6.83466421143426        2.82684792777146
N          -13.28466889962509        4.34052619232865        4.42639455625996
H          -13.42515133754265        4.45281869101680        5.41696017998322
C          -13.79087105941403        5.15577452991031        3.44818031112235
C          -12.56561990402688        3.36995145857491        3.81918522829202
H          -12.05280263119155        2.58818184673203        4.34017681621805
N          -12.58602427024769        3.52072485039916        2.51723911717820
C          -13.34480048562191        4.62727279201623        2.27080264681257
H          -13.51678762896973        4.96687073360316        1.27030728175029
