87
 energy: -128.468047019317 gnorm: 0.000094779876 xtb: 6.7.1 (edcfbbe)
Fe          17.45653241193451       55.13041697202561       35.44695549382116
N           17.11060941004769       57.09633316196241       35.28913115831770
N           15.56669879837483       54.74945033810134       34.89267167680698
N           17.81043502500264       53.16062027858879       35.60627162846246
N           19.34431410899903       55.51144900964626       36.00079751386527
C           17.97735005444364       58.10396743028218       35.56262459537307
C           17.35715763081908       59.39083552380760       35.32955520973126
C           16.09284708063094       59.13249964378483       34.90247785167505
C           15.95724442782935       57.69130693801525       34.88664799030297
C           14.62071036612187       55.66031999734250       34.53974731554423
C           13.37979140959971       55.00930478423147       34.20775932057150
C           13.59167557058771       53.66613569823119       34.37901674403479
C           14.97519251760764       53.53186941697307       34.79587636006996
C           16.91354322256881       52.15434187081068       35.41800559135064
C           17.52963711183417       50.87137961809152       35.63566230380036
C           18.83739820477249       51.12308158162005       35.96133373480404
C           18.98505498886467       52.56515512590162       35.93043071267085
C           20.31239815973738       54.60045763189583       36.27933271713040
C           21.54590705470921       55.26111244532495       36.64772849228823
C           21.29474626031362       56.59622225731322       36.58914414446308
C           19.91364325478796       56.73125993741299       36.18011930322478
C           19.28401956731995       57.94718832698279       35.98784940643993
H           19.86026877801681       58.84188555473441       36.17037787550166
C           14.79737770855667       57.03460930135648       34.52606267304630
H           13.95464436195069       57.64219563684843       34.23192391085581
C           15.58627363381907       52.32081892846431       35.05869091405695
H           14.98268644419760       51.42974866814009       34.97255224779525
C           20.15872521583540       53.22718223919283       36.24508070337401
H           21.01880182685407       52.62631224580497       36.50022336335294
C           15.01289118400603       60.08443392533206       34.51513879460709
H           14.70279772337842       59.91334321818176       33.48385051020595
H           15.35348180969348       61.11333964170878       34.60332347804678
H           14.13961416516631       59.95671749592390       35.15564449833845
C           18.03578801129437       60.70206149302246       35.53576044195415
H           18.91356062585081       60.78584206227003       34.89403655120800
H           18.36356940317729       60.80535608693421       36.57057022312814
H           17.36474205813876       61.52625670310103       35.30571859948574
C           12.15537390070865       55.69663444716713       33.71087689118404
H           12.41829242810019       56.52906784456258       33.05973719960017
H           11.56447965591433       56.09034800524784       34.53986950846851
H           11.53629814495273       54.99844798731979       33.15073126461515
C           12.68174596333384       52.56328777763159       34.16805301974377
H           13.13558814666751       51.63948729485448       33.82691388422595
C           11.36713404587274       52.59388952613769       34.36517918339288
H           10.86496421792063       53.46410311656219       34.74980032446192
H           10.74863379692193       51.73271881062408       34.17253074461622
C           16.86065844880539       49.55307189050320       35.45267430765356
H           16.17595631175538       49.58078796036941       34.60608628401951
H           16.28643679396462       49.28037321913500       36.33988426053695
H           17.60386637821039       48.77856407879369       35.27321719976459
C           19.90226223867082       50.19169348729096       36.25808031062905
H           20.89378603152531       50.50152608826370       35.94754299593545
C           19.75983465811660       49.02224800736723       36.87450833244880
H           20.60072586681854       48.37144751918645       37.04955219972353
H           18.80958443223422       48.68311399519157       37.24846743497820
C           22.80616626699269       54.55159900004318       37.00976167433142
H           23.14387255687973       53.92537442040909       36.18354216738788
H           22.65143293549960       53.90954023565475       37.87764406485044
H           23.59591498324211       55.26081792646190       37.24592226696233
C           22.20557468162727       57.74236542960801       36.87095506393263
H           23.18893637067941       57.39057691042755       37.17377327887564
H           21.80258722884539       58.36474378928166       37.67040839002394
H           22.32327122664276       58.36662303183721       35.98461966100886
C           19.78324139773611       56.15112489275309       30.46470686966133
H           19.12718902457346       56.42346096805715       29.63781709752981
H           20.52268428630399       55.44147421493307       30.09333556447740
H           20.29857558754128       57.04267704879461       30.80810279645207
N           18.25038889079041       54.42909853801816       31.44292911006941
H           18.14793544762406       53.89225330703394       30.59746183210755
C           19.00484510067688       55.56466058418471       31.58519747140779
C           17.67634522526944       54.16735634929618       32.63906481952491
H           17.02916011684066       53.33516784143400       32.82457824006370
N           18.02050905218633       55.06618348612138       33.52777793236376
C           18.84649851394834       55.94190388953395       32.88774803527619
H           19.26842175958624       56.77840947019887       33.40486372050229
C           14.76752748717139       56.03229269029124       40.26666881483262
H           15.26670063374875       56.62203190454807       41.03565659189839
H           14.29364683224045       55.17645054771253       40.74755437583553
H           13.99720518050227       56.64235228573055       39.80540387842707
N           16.82071899378253       54.80422904436939       39.52574745656240
H           17.06810436846387       54.45940499190029       40.43865105063893
C           15.73464904149035       55.58703294898181       39.23143645607826
C           17.48844050236911       54.58056133719302       38.37128236407410
H           18.38238920362063       53.99615215664358       38.29871001073418
N           16.89252852123493       55.17303037901380       37.36627861627222
C           15.80056837212879       55.80337198640595       37.88505651518383
H           15.14021916243525       56.36605614750566       37.25854441694522
