87
 energy: -128.381566819366 gnorm: 0.277553607915 xtb: 6.7.1 (edcfbbe)
Fe          17.49900000000000       55.06699999999999       35.40299999999999
N           17.13300000000000       56.99800000000000       35.24600000000000
N           15.56300000000000       54.71999999999999       34.83799999999999
N           17.83700000000000       53.06099999999999       35.61300000000000
N           19.32100000000000       55.37899999999999       35.95500000000000
C           18.00700000000000       57.98900000000000       35.61300000000000
C           17.41100000000000       59.26000000000000       35.31600000000000
C           16.22200000000000       59.00900000000000       34.76500000000000
C           16.03800000000000       57.62100000000000       34.79199999999999
C           14.71300000000000       55.60500000000000       34.38000000000000
C           13.47500000000000       54.94700000000000       34.11400000000000
C           13.69400000000000       53.62800000000000       34.35500000000000
C           15.03900000000000       53.51700000000000       34.87500000000000
C           16.87300000000000       52.14100000000000       35.52500000000000
C           17.40800000000000       50.90300000000000       35.85100000000000
C           18.76300000000000       51.14800000000000       36.10100000000000
C           19.00000000000000       52.48800000000000       35.91200000000000
C           20.27800000000000       54.52200000000000       36.18699999999999
C           21.49900000000000       55.21100000000000       36.54399999999999
C           21.23600000000000       56.51000000000000       36.56700000000000
C           19.84000000000000       56.59200000000000       36.24799999999999
C           19.24700000000000       57.83200000000000       36.11600000000000
H           19.80200000000000       58.71599999999999       36.43000000000000
C           14.91700000000000       56.96900000000000       34.29900000000000
H           14.14800000000000       57.57200000000000       33.81700000000000
C           15.60600000000000       52.33300000000000       35.21000000000000
H           14.95600000000000       51.45800000000000       35.22000000000000
C           20.21300000000000       53.14100000000000       36.11900000000000
H           21.12500000000000       52.55500000000000       36.22900000000000
C           15.24900000000000       60.06900000000000       34.30100000000000
H           15.45200000000000       60.31900000000000       33.23800000000000
H           15.37100000000000       60.98599999999999       34.91699999999999
H           14.20900000000000       59.68800000000000       34.38900000000000
C           18.00200000000000       60.64800000000000       35.46399999999999
H           19.08700000000000       60.56700000000000       35.68700000000000
H           17.50200000000000       61.18200000000000       36.30000000000000
H           17.86900000000000       61.21500000000000       34.51800000000000
C           12.20200000000000       55.59699999999999       33.66800000000000
H           12.43800000000000       56.50200000000000       33.06900000000000
H           11.60400000000000       55.89800000000000       34.55399999999999
H           11.62000000000000       54.88999999999999       33.03900000000000
C           12.84500000000000       52.42100000000000       34.34500000000000
H           13.33500000000000       51.43800000000000       34.40300000000000
C           11.56100000000000       52.41499999999999       34.27300000000000
H           11.00100000000000       53.36000000000000       34.21200000000000
H           11.00600000000000       51.46500000000000       34.27199999999999
C           16.63800000000000       49.57899999999999       35.89600000000000
H           15.80700000000000       49.60800000000000       35.15900000000000
H           16.21400000000000       49.42599999999999       36.91100000000000
H           17.31900000000000       48.74000000000000       35.63799999999999
C           19.81300000000000       50.22100000000000       36.49300000000000
H           20.84300000000000       50.58900000000000       36.60599999999999
C           19.59800000000000       48.93899999999999       36.72600000000000
H           20.44200000000000       48.24600000000000       36.85899999999999
H           18.57200000000000       48.54799999999999       36.79000000000000
C           22.79900000000000       54.55100000000000       36.84600000000000
H           23.13300000000000       53.96699999999999       35.96200000000000
H           22.67800000000000       53.86099999999999       37.70800000000000
H           23.56500000000000       55.32100000000000       37.07999999999999
C           22.17400000000000       57.67899999999999       36.98599999999999
H           23.22800000000000       57.40600000000000       36.76499999999999
H           22.07200000000000       57.86999999999999       38.07600000000000
H           21.91100000000000       58.59400000000000       36.41400000000000
C           19.65400000000000       56.60199999999999       30.51100000000000
H           18.93600000000000       57.02900000000000       29.77900000000000
H           20.33299999999999       55.89900000000000       29.98200000000000
H           20.24100000000000       57.42899999999999       30.96400000000000
N           18.09900000000000       54.82300000000000       31.30000000000000
H           17.93800000000000       54.44200000000000       30.39000000000000
C           18.91700000000000       55.88500000000000       31.55900000000000
C           17.56700000000000       54.39099999999999       32.42500000000000
H           16.86000000000000       53.56600000000000       32.50200000000000
N           18.04100000000000       55.12700000000000       33.40400000000000
C           18.89600000000000       56.06000000000000       32.89700000000000
H           19.41200000000000       56.76400000000000       33.53800000000000
C           14.78300000000000       55.92200000000000       40.33400000000000
H           15.22100000000000       56.84700000000000       40.76600000000000
H           14.68400000000000       55.16099999999999       41.13699999999999
H           13.78400000000000       56.15999999999999       39.91100000000000
N           16.95200000000000       55.05400000000000       39.52600000000000
H           17.32700000000000       54.97700000000000       40.44900000000000
C           15.67500000000000       55.40500000000000       39.25800000000000
C           17.61700000000000       54.83300000000000       38.41300000000000
H           18.65000000000000       54.49200000000000       38.35900000000000
N           16.81100000000000       55.09799999999999       37.41600000000000
C           15.60000000000000       55.49200000000000       37.91200000000000
H           14.79400000000000       55.79899999999999       37.25700000000000
87
 energy: -128.438253897643 gnorm: 0.104164307169 xtb: 6.7.1 (edcfbbe)
Fe          17.48983094997437       55.07818982439395       35.40942028315486
N           17.12997403551156       57.00780135916086       35.26009552677620
N           15.59337279213248       54.72482454267907       34.83724249455332
N           17.84392880686511       53.09567997105319       35.60254552023327
N           19.32082901092198       55.40440998682728       35.96900847875676
C           17.99074990349919       58.00847644207354       35.61385610996407
C           17.40928959897838       59.28578114210627       35.31045389816745
C           16.20019144540625       59.03308149725648       34.76368354845825
C           16.03192165814331       57.61977320096371       34.76519766605893
C           14.70078112894817       55.60852352446052       34.38503752401067
C           13.45711734415459       54.93746599493146       34.10382835042168
C           13.67119289094757       53.61487615312029       34.36936020388445
C           15.02958408592317       53.51607506426345       34.85517731311678
C           16.89418236048634       52.13737671217036       35.54019843259105
C           17.43650308068062       50.87126371914074       35.86242569004772
C           18.77771703814937       51.11081377100648       36.11204158299303
C           19.00318130540454       52.49533611300620       35.91991914098496
C           20.30383691581666       54.52054790427803       36.17618056943220
C           21.52677742797393       55.20131118039404       36.55156974572778
C           21.25024718690874       56.52025230379069       36.59306967890478
C           19.85604340350719       56.62069543704646       36.24360149862456
C           19.24701648217560       57.84741371058674       36.12094990622631
H           19.80296534923244       58.72198896811702       36.42367869091721
C           14.90735067618532       56.97064718420264       34.28920036942903
H           14.13659610230370       57.57239446899530       33.82777680196525
C           15.59179631649431       52.32462566415772       35.20895449720637
H           14.95398010390774       51.45435092227919       35.21980156051057
C           20.21514825388555       53.14539054017650       36.11097760566056
H           21.11419910298440       52.55959671790131       36.23906686332646
C           15.23611788867819       60.07232412310353       34.29627934349046
H           15.43945217116490       60.32286761215013       33.24815731210871
H           15.35594278535240       60.97561463208452       34.90259106038614
H           14.21067902968816       59.70491474676875       34.38375991194943
C           18.01162789867329       60.64734323993116       35.46811283002619
H           19.08028149799231       60.57906030903306       35.68718872936055
H           17.51534005031840       61.18219636401859       36.28674143196821
H           17.87554704027949       61.21296386214087       34.53985882486401
C           12.20038679698710       55.59901777261112       33.65628572605564
H           12.42557158842935       56.49649920020482       33.07134786747923
H           11.60561109236914       55.89477713572327       34.53076014614895
H           11.61774467718069       54.91052718700332       33.03837872024977
C           12.83601289551442       52.42621305418178       34.33399530424788
H           13.33799131180673       51.46152105980917       34.39406759547889
C           11.52170496216096       52.41453455090615       34.26532741004021
H           10.96461490479027       53.33871732287415       34.22152700995426
H           10.97852487612276       51.47817872218251       34.26914867043340
C           16.64570712971224       49.58731311321841       35.89144408550379
H           15.81980848312069       49.61414735594432       35.17207541110437
H           16.22471620782806       49.42236519614367       36.89185577285787
H           17.28857519208961       48.74671973394283       35.62371117315328
C           19.81965525158839       50.19553148151881       36.49386088526087
H           20.83325679932450       50.58364945115760       36.57807489499120
C           19.61517747332344       48.90982102332521       36.74325673833303
H           20.44316750408428       48.23197656192192       36.88835552154942
H           18.61431839097768       48.51455273947346       36.79975137186036
C           22.81712344750787       54.53671270841738       36.84632508978273
H           23.14755648922767       53.96156812649820       35.97480588516684
H           22.69863990965030       53.86013339360198       37.69936793850807
H           23.56859356597045       55.29470669947219       37.08375606223429
C           22.16485673329588       57.66647006398825       36.98094337901386
H           23.20720541584749       57.40890913178603       36.76751555355086
H           22.07045653176499       57.86823312461055       38.05443889753597
H           21.91666993938043       58.57560198148920       36.42472688820448
C           19.65783985271652       56.60474568266800       30.49989894851506
H           18.95424878233491       57.03071124439081       29.77467573735858
H           20.33413060690673       55.91973939445853       29.97524851477504
H           20.23695562856502       57.41589259739052       30.94895536538352
N           18.09876199334250       54.82629181844541       31.28704113239407
H           17.93326060483298       54.44389113930154       30.37279524245603
C           18.92307949539547       55.88148789045493       31.55485565363861
C           17.57355982394092       54.39274425603544       32.44021495429576
H           16.87310565827918       53.57852544470729       32.51627962503201
N           18.04012614146578       55.11534056186242       33.43248611345022
C           18.88575599547953       56.04685311600503       32.90494471908018
H           19.39668829557152       56.75158169714827       33.53447626563329
C           14.77782958812346       55.92316237901457       40.33810636774290
H           15.20327799670681       56.83681845311516       40.77037541657322
H           14.67492130957131       55.17454276284771       41.13201908969864
H           13.79442188426995       56.15447811378500       39.92244264954076
N           16.95419905986197       55.04744937366000       39.54818009918603
H           17.33055084833464       54.96317697777470       40.47496105572128
C           15.68283458638419       55.43835013611272       39.26475428861301
C           17.61364814743635       54.83449377051937       38.40545134745735
H           18.63355405949242       54.49534193767400       38.34899673378276
N           16.82091850060570       55.09994684126344       37.39418816415288
C           15.61616711782268       55.49151380354976       37.90318168865800
H           14.80922333285430       55.78227380603872       37.25635783190287
87
 energy: -128.453938791487 gnorm: 0.025666535748 xtb: 6.7.1 (edcfbbe)
Fe          17.47952104935404       55.07961467808688       35.41276095302892
N           17.12792716570022       57.01659278635391       35.26925580014462
N           15.61598778755480       54.72165861587124       34.83335938189115
N           17.84357037612688       53.11647171891789       35.60352845582276
N           19.32556637284041       55.42616693335208       35.97838273835818
C           17.97566440159550       58.02316284923796       35.61536953011662
C           17.40206232549362       59.30327265592381       35.30436996065399
C           16.18258754615959       59.04886562218156       34.76011481337575
C           16.02652280182905       57.61874458596650       34.74639250651812
C           14.68984323891967       55.60448021944302       34.38894014337460
C           13.44436790025980       54.93068844368456       34.09891248666130
C           13.64932405615906       53.60528316826208       34.38360776698411
C           15.02236012837265       53.51039305040351       34.83735510370591
C           16.90636417332024       52.13577598788580       35.55300494229888
C           17.45643403982643       50.85457581827878       35.86968660388413
C           18.79066872557083       51.08448299817316       36.11815807213959
C           19.00187856178466       52.49972953710560       35.93023463444053
C           20.32402438148540       54.52653114200872       36.16783789260158
C           21.54794079084616       55.19865995243357       36.54991840907864
C           21.26417514650375       56.52516110791215       36.60904938734362
C           19.87247117342433       56.64172484354214       36.24357423559128
C           19.24345590886910       57.85962195475051       36.12706645159725
H           19.80071754894325       58.73552876731324       36.41207351868624
C           14.89736644252579       56.96849524963795       34.28597872654114
H           14.11749440862261       57.57271451482055       33.84898356936232
C           15.58756063072092       52.31659087453572       35.21005593196143
H           14.96183601565102       51.44471278417218       35.22684409574794
C           20.21053682963529       53.15268207038276       36.11025848418589
H           21.10274980870736       52.56677033282725       36.26068684842404
C           15.21818101527213       60.07589642772450       34.28778132637826
H           15.41660543170054       60.33007690886161       33.24617655967012
H           15.33044640456780       60.97730972987154       34.88523659590918
H           14.19680466857639       59.72086984521969       34.37273389973632
C           18.01523352275224       60.65004507146735       35.47316299639328
H           19.07563908297486       60.58480925200647       35.69174181102313
H           17.52691384463726       61.19058523067966       36.28442111358250
H           17.88554397931249       61.22406757228104       34.55700327785157
C           12.19834981736553       55.60254502488034       33.64330607191576
H           12.42135209236555       56.49702730616043       33.06777290116444
H           11.59883484556937       55.89557307369943       34.50793529567699
H           11.61197062164078       54.92797557396357       33.02667682556653
C           12.80531386557247       52.44019045183459       34.32478498996407
H           13.31305620188606       51.48595659020545       34.36420733438288
C           11.47846579414160       52.42283489243390       34.26293006363941
H           10.91203346232513       53.33068909670715       34.23713005360493
H           10.94383810243716       51.49103155984918       34.25171499757143
C           16.65737592707908       49.59390592664168       35.88475333621768
H           15.82969265442347       49.63997859794247       35.17964957018997
H           16.24111816146839       49.41647331478232       36.87861115071436
H           17.27055874175708       48.74413000957177       35.60247283405759
C           19.83046909964051       50.16790677648814       36.48584029573458
H           20.83492857209664       50.57082700337597       36.53182064770257
C           19.64350699150107       48.87804459173582       36.76244218276040
H           20.46840744621948       48.21672657939564       36.94624598703389
H           18.66052113698333       48.46206523210121       36.81586922768238
C           22.83586784227663       54.52425331546563       36.84622706103504
H           23.16855833095446       53.94765671946629       35.98578888342781
H           22.72401099484003       53.85050301302721       37.69390363351670
H           23.59045405506087       55.26605991983463       37.08860883615541
C           22.16282609946909       57.65345648754624       36.98282810139133
H           23.20018455947785       57.40386970720906       36.77275403782261
H           22.07267667003011       57.87242806389587       38.04766822469562
H           21.91719306357410       58.55576157979987       36.42862669591609
C           19.66154347694900       56.60680971443680       30.49407419273212
H           18.96643199614298       57.03215015266517       29.77118637986742
H           20.33760049871619       55.93465393099871       29.96751892523810
H           20.23845464757765       57.41014842897347       30.93880198595770
N           18.09559244830911       54.82668358257398       31.28416204667608
H           17.92261727349696       54.44348491136788       30.36902489720652
C           18.92744274694404       55.87793684326353       31.55607543892701
C           17.58079988709747       54.39327340262439       32.45648649475130
H           16.88590548758786       53.58356171077708       32.53578410881450
N           18.03984063004741       55.10945717376072       33.45376886925359
C           18.88086269418524       56.03604341621482       32.91127020689682
H           19.38911021541837       56.74492712754228       33.53047363421604
C           14.77345597794438       55.92654891788800       40.33531250773809
H           15.17700871434930       56.83491743798949       40.78464134117699
H           14.66915941818357       55.17655794841307       41.11763600477762
H           13.79618100437068       56.14814654768743       39.92280343299585
N           16.96254723391926       55.04482752308643       39.56104139756034
H           17.33707632783816       54.94685457840684       40.49008258308445
C           15.69734405176778       55.47246714656386       39.26413512527191
C           17.61562591323359       54.83376736880895       38.40009944747280
H           18.62608886108985       54.48976758217376       38.34041807450549
N           16.83825247233324       55.10515418641232       37.38038582272451
C           15.63969997695082       55.50040632896322       37.89695427982448
H           14.82744520879509       55.77477032881675       37.25627453772469
87
 energy: -128.458502307396 gnorm: 0.015655359753 xtb: 6.7.1 (edcfbbe)
Fe          17.47532572713310       55.07767326579362       35.41518177968035
N           17.12383875651272       57.02415606617009       35.26941063417607
N           15.61619994725456       54.71519451802115       34.83528776722358
N           17.84197504951941       53.11723055148433       35.61217895115519
N           19.33479173268035       55.43556971450568       35.98088728174789
C           17.96857418718384       58.03147217934134       35.61208220226830
C           17.39222528274521       59.31273665747413       35.30003242157155
C           16.17055524362364       59.05693472014664       34.75561891974276
C           16.01855081346758       57.62175618954672       34.74413558879086
C           14.68097954660044       55.60101117268214       34.39466825196324
C           13.43531541443709       54.93278030310245       34.10197358968386
C           13.63142630107592       53.60534915872024       34.39047664887947
C           15.01062675686024       53.50404067990157       34.83399425354443
C           16.90764894219258       52.13272217527197       35.55878207239889
C           17.46563920268183       50.84733368052436       35.86841209847501
C           18.80126367436860       51.06864823446633       36.11365314908412
C           19.00311506297325       52.49744591818835       35.93700090622633
C           20.33479291723710       54.53031797773573       36.16989162662194
C           21.56022053719310       55.19654854113439       36.55095829349876
C           21.27395391189530       56.52449018870374       36.61621033247901
C           19.88312965984771       56.65122378374673       36.24441758055633
C           19.24140619728712       57.86643023535147       36.12481275635946
H           19.79678428525963       58.74885029500425       36.39896161529089
C           14.88720984796474       56.96716415339268       34.29486407774129
H           14.09565319253386       57.57308908826325       33.87886101578758
C           15.58330326789694       52.31145192594090       35.21288428942362
H           14.96103127640132       51.43589631210628       35.23212096349307
C           20.20724569486388       53.15567285069673       36.11996781209117
H           21.09687817103549       52.56992939257398       36.29153595198119
C           15.19871239777747       60.07819297855148       34.27655835480228
H           15.39104692966125       60.33182870033992       33.23309832440343
H           15.30215837524987       60.98606094340510       34.86741571245915
H           14.17543004368992       59.72516556309444       34.36110029561402
C           18.01264962603166       60.65637737387544       35.47936108412511
H           19.07291395476225       60.58466726874692       35.69997142752919
H           17.53003187218030       61.19875765011751       36.29324792095303
H           17.89153472987176       61.24246858952458       34.56888994663237
C           12.19601812207316       55.60899147519782       33.62967754687920
H           12.42760093932163       56.50424031105924       33.05855174050353
H           11.58274235172638       55.90173942922054       34.48471497566594
H           11.61223933908565       54.94018689075692       33.00268048828364
C           12.76585124081176       52.45621978893713       34.30989562074936
H           13.27219440197534       51.50029471948077       34.32180493108473
C           11.43545223960978       52.44043582205465       34.25464623031949
H           10.85297977358973       53.34263640642101       34.27375533253668
H           10.89988675127623       51.50788075464605       34.22129038964425
C           16.66605661960806       49.59045809679857       35.87303223900052
H           15.82898048586943       49.66026891449882       35.18068129316865
H           16.26267287565219       49.39744518566607       36.86959144556059
H           17.26622739789589       48.73770387385199       35.56716150454884
C           19.84493322890106       50.14600024642997       36.47232081241219
H           20.84873821417967       50.55589390053812       36.47874143997514
C           19.68152963812114       48.85800287085796       36.78595139904397
H           20.51863619132020       48.21774154713209       37.00983049263898
H           18.71055354508994       48.40962732817432       36.85280577173202
C           22.84979035841070       54.51330794318072       36.84596166238816
H           23.18366649418704       53.93152475166820       35.98827550119733
H           22.74089042810036       53.83719836831063       37.69330443516812
H           23.61553473138868       55.24424225769243       37.09068348963397
C           22.17271040008530       57.65132549867779       36.98689019168008
H           23.21099874649975       57.39926947377284       36.78381402642488
H           22.07969754145414       57.88274679489069       38.04961076009649
H           21.92789370229519       58.54964889470657       36.42505369536053
C           19.66232407175348       56.60478537240604       30.49416981523799
H           18.96839952323486       57.03142845272350       29.77095779440234
H           20.34061855628945       55.93773163889030       29.96333031834871
H           20.24061603622042       57.40831194002342       30.93731498505850
N           18.09383538668983       54.82231605464371       31.29047820659046
H           17.91240674549003       54.43940721505215       30.37656674002512
C           18.92928737206676       55.87409712140013       31.55993811150007
C           17.58625448502122       54.39074124778134       32.46962507100748
H           16.89414170324002       53.57944423106321       32.55567523090863
N           18.04529494167061       55.10686282828722       33.46502238273315
C           18.88333320028143       56.03181770326935       32.91539212325204
H           19.39133929961454       56.74571071814576       33.52876062884959
C           14.77136896458692       55.92772837645838       40.32728743394819
H           15.14914732704186       56.83676251691845       40.80047545944868
H           14.66629835147790       55.16409594956315       41.09659283019603
H           13.79466864729341       56.13885536694127       39.90635411782230
N           16.97458614352249       55.05031609337385       39.56476089704287
H           17.34439035991610       54.93643379281463       40.49483108665913
C           15.71389291865487       55.49661025850093       39.26054858647898
C           17.62470296278183       54.83204667118265       38.40033491891148
H           18.63071576710747       54.47493523611152       38.33869462768678
N           16.85627278040985       55.11118700168883       37.37763750304443
C           15.66285391775335       55.52060246108026       37.89424116272130
H           14.84863624940200       55.79010120941104       37.25437665397337
87
 energy: -128.460895608295 gnorm: 0.012692604116 xtb: 6.7.1 (edcfbbe)
Fe          17.47345312095793       55.07524844669771       35.41980156791051
N           17.12021373736405       57.03261502110455       35.26787372916722
N           15.60777989017649       54.70810379248692       34.84228123162779
N           17.83831559941774       53.11125651994730       35.61850338118706
N           19.34620535359037       55.44215173247147       35.98324993036288
C           17.96657972306187       58.03888161923601       35.60578871708522
C           17.38367473749575       59.32146634807789       35.29609084718255
C           16.16060853462025       59.06429055671297       34.75380682492865
C           16.01036472456023       57.62702460516576       34.74877637828677
C           14.67195263510237       55.59956183922232       34.40485565859923
C           13.42599173003403       54.93887645519577       34.10966813591563
C           13.61364867778556       53.60949986373585       34.39736879107048
C           14.99446557252727       53.49786720379642       34.83759538161910
C           16.90383826914870       52.12689905999382       35.55873476990295
C           17.47236796493284       50.84010600897032       35.85964808066393
C           18.80881568819671       51.05702121736189       36.10227662345149
C           19.00358548240375       52.49393286847467       35.93973272012744
C           20.34241985731772       54.53308806850871       36.17760092432205
C           21.56972263676903       55.19531359108731       36.55607756319049
C           21.28398823459100       56.52420808432005       36.62046858383586
C           19.89393281152057       56.65865933473550       36.24427803632990
C           19.24314049751909       57.87151513933562       36.11631799833807
H           19.79500970753093       58.75980786531294       36.38389948186043
C           14.87669048748484       56.96744971228358       34.31258496754761
H           14.07440257485643       57.57326483906095       33.91575197795865
C           15.57523172836245       52.30642460651509       35.21542182771249
H           14.95068525603873       51.42982493964625       35.23357923560357
C           20.20219688961556       53.15758055322488       36.13508680309786
H           21.08902407226062       52.57197733672304       36.32783192074010
C           15.18019622190937       60.07749792097857       34.26687875066926
H           15.36631430164432       60.32376847719088       33.21947839174566