78
 energy: -115.996235996805 gnorm: 0.233085515995 xtb: 6.7.1 (edcfbbe)
Fe         -11.61600000000000        2.27800000000000        1.11300000000000
N          -12.24600000000000        0.56600000000000        2.03900000000000
N           -9.96100000000000        2.28200000000000        2.23500000000000
N          -10.95300000000000        3.89200000000000        0.12900000000000
N          -13.23700000000000        2.20600000000000       -0.06400000000000
C          -13.37800000000000       -0.13200000000000        1.79400000000000
C          -13.34700000000000       -1.34200000000000        2.60000000000000
C          -12.22300000000000       -1.35100000000000        3.34000000000000
C          -11.51200000000000       -0.13400000000000        2.98600000000000
C           -9.58800000000000        1.37100000000000        3.18900000000000
C           -8.37500000000000        1.80500000000000        3.85400000000000
C           -8.02900000000000        2.99300000000000        3.31700000000000
C           -8.99900000000000        3.30200000000000        2.27300000000000
C           -9.84800000000000        4.60300000000000        0.39500000000000
C           -9.66400000000000        5.65300000000000       -0.62200000000000
C          -10.73000000000000        5.56600000000000       -1.45100000000000
C          -11.58400000000000        4.45200000000000       -0.98200000000000
C          -13.62300000000000        3.13400000000000       -1.01800000000000
C          -14.97600000000000        2.92700000000000       -1.50500000000000
C          -15.44000000000000        1.77300000000000       -0.74700000000000
C          -14.35800000000000        1.34600000000000        0.13100000000000
C          -14.36000000000000        0.25500000000000        0.94900000000000
H          -15.25000000000000       -0.37300000000000        0.91800000000000
C          -10.28900000000000        0.21700000000000        3.52400000000000
H           -9.84400000000000       -0.45400000000000        4.25900000000000
C           -8.95700000000000        4.35000000000000        1.41400000000000
H           -8.14000000000000        5.06000000000000        1.54200000000000
C          -12.79800000000000        4.13800000000000       -1.51600000000000
H          -13.14200000000000        4.70500000000000       -2.38100000000000
C          -11.71600000000000       -2.40100000000000        4.30800000000000
H          -12.43600000000000       -3.24600000000000        4.35000000000000
H          -11.61900000000000       -1.96000000000000        5.32300000000000
H          -10.73100000000000       -2.78400000000000        3.96500000000000
C          -14.45600000000000       -2.37300000000000        2.52400000000000
H          -14.77600000000000       -2.49600000000000        1.46700000000000
H          -15.32500000000000       -2.03400000000000        3.12700000000000
H          -14.08700000000000       -3.35000000000000        2.90400000000000
C           -7.70100000000000        1.02000000000000        4.98300000000000
H           -7.74100000000000       -0.06600000000000        4.75400000000000
H           -8.23400000000000        1.20600000000000        5.94000000000000
H           -6.63800000000000        1.33000000000000        5.07300000000000
C           -6.88200000000000        3.88600000000000        3.63600000000000
H           -6.51500000000000        4.57000000000000        2.85700000000000
C           -6.25000000000000        3.92600000000000        4.81200000000000
H           -6.56400000000000        3.27000000000000        5.63700000000000
H           -5.40800000000000        4.61600000000000        4.97000000000000
C           -8.46400000000000        6.54200000000000       -0.70900000000000
H           -7.54800000000000        5.95000000000000       -0.49700000000000
H           -8.54700000000000        7.35800000000000        0.04000000000000
H           -8.38800000000000        6.97100000000000       -1.73100000000000
C          -10.99800000000000        6.31300000000000       -2.71000000000000
H          -11.42100000000000        5.76700000000000       -3.56600000000000
C          -10.76500000000000        7.60600000000000       -2.88800000000000
H          -10.34300000000000        8.21400000000000       -2.07500000000000
H          -10.99100000000000        8.08700000000000       -3.85100000000000
C          -15.72000000000000        3.77300000000000       -2.51000000000000
H          -15.27000000000000        3.63600000000000       -3.51600000000000
H          -15.64700000000000        4.84500000000000       -2.22600000000000
H          -16.78600000000000        3.46200000000000       -2.54700000000000
C          -16.76300000000000        1.10100000000000       -0.87200000000000
H          -17.21800000000000        1.35700000000000       -1.85300000000000
H          -17.43800000000000        1.44800000000000       -0.06100000000000
H          -16.63200000000000       -0.00100000000000       -0.81200000000000
O          -10.61000000000000        1.08900000000000       -0.16700000000000
H          -10.90900000000000        0.19700000000000        0.01100000000000
H          -10.00900000000000        1.33100000000000       -0.77600000000000
C          -14.88300000000000        5.99900000000000        3.73700000000000
H          -14.42000000000000        6.95900000000000        4.05200000000000
H          -15.48800000000000        5.59700000000000        4.57800000000000
H          -15.53400000000000        6.18500000000000        2.85600000000000
N          -12.86200000000000        4.62800000000000        4.28700000000000
H          -12.77500000000000        4.98100000000000        5.21900000000000
C          -13.80700000000000        5.02000000000000        3.37400000000000
C          -12.09600000000000        3.70500000000000        3.70600000000000
H          -11.25100000000000        3.21900000000000        4.19400000000000
N          -12.52900000000000        3.48600000000000        2.46200000000000
C          -13.55000000000000        4.33500000000000        2.23200000000000
H          -14.02000000000000        4.38400000000000        1.25800000000000
78
 energy: -116.035376670951 gnorm: 0.090223043397 xtb: 6.7.1 (edcfbbe)
Fe         -11.61859137336889        2.29179209010506        1.12601449307128
N          -12.22297177459580        0.57427104631741        2.04390247474759
N           -9.95474973375452        2.29174887013020        2.24656200533862
N          -10.96859409545118        3.89531569711486        0.12427166891883
N          -13.25701198472729        2.22730125379412       -0.04668846429616
C          -13.36127194285782       -0.12554676768376        1.80016442186827
C          -13.35955876907781       -1.34417312846911        2.59257221187525
C          -12.22270667335441       -1.34975483925849        3.32996386694151
C          -11.51008753831844       -0.13337332483518        2.97771792291436
C           -9.58691816191814        1.38150816037687        3.19319201385372
C           -8.37539212769947        1.80388589038137        3.86425891058605
C           -8.01924610192122        3.00095979813017        3.31723853405242
C           -8.99871518385742        3.28900457806790        2.27743954712229
C           -9.84958096316009        4.60043219640926        0.37689252648105
C           -9.66654303201487        5.64768433636864       -0.62545531806413
C          -10.72892750760780        5.55556830067356       -1.47044062644446
C          -11.56823093233933        4.45650148563824       -0.98077738140176
C          -13.62270283659346        3.12298724818977       -1.01268920331038
C          -14.97154801545960        2.89961990258452       -1.47726201394828
C          -15.42384124806900        1.78877297931432       -0.76456978252594
C          -14.34900184469557        1.37469268541972        0.10852916310736
C          -14.36050479622132        0.26948273233308        0.93803514039601
H          -15.24840215147497       -0.35620477705150        0.91022505815707
C          -10.28963872455744        0.22653641410291        3.51551726997516
H           -9.85475346473665       -0.43908228194381        4.25181193015479
C           -8.95779924234726        4.35202314332092        1.40999161374562
H           -8.14393712589420        5.05743766101859        1.53466975033539
C          -12.79230862720751        4.12824608875228       -1.50879012359074
H          -13.14382478523550        4.70060150616286       -2.36006031038312
C          -11.72432918547439       -2.38826397441357        4.29509434305022
H          -12.42337408553865       -3.22861447571384        4.35054537645171
H          -11.61800403275650       -1.96659741231994        5.30100223026469
H          -10.74935756834388       -2.77363384326238        3.97483833340774
C          -14.45252124274298       -2.37038293466186        2.52401999183592
H          -14.77599051252797       -2.50203029084178        1.48664629569708
H          -15.31484554749668       -2.04755998345326        3.11781996205986
H          -14.10239486991027       -3.33562381240538        2.90163196076300
C           -7.70807540867345        1.02194881439710        4.96688058055371
H           -7.74434047236271       -0.05107954703006        4.75597650918212
H           -8.21914373787942        1.20176581503793        5.92067937150573
H           -6.65946060916977        1.31495902180658        5.06471516720393
C           -6.88664580070552        3.87468800601221        3.63692674792115
H           -6.54104971374697        4.55048553312024        2.85600237404841
C           -6.25502442533154        3.92359740230060        4.80793836285887
H           -6.55931817843855        3.30265484537277        5.63964964077359
H           -5.42317868278256        4.60011817430190        4.96873648131103
C           -8.47090082656599        6.53652459964568       -0.70709212232724
H           -7.55918008864458        5.96527178328301       -0.49882511122052
H           -8.53996779827295        7.35005640381036        0.02491834532593
H           -8.38815286508296        6.96783207493234       -1.70978104649527
C          -10.99780257755842        6.30756892144209       -2.70131558447179
H          -11.42297251171193        5.75356193364911       -3.53752490435019
C          -10.75980944723698        7.60182033133854       -2.88146189473002
H          -10.35594519581042        8.21654633884381       -2.08672097023879
H          -10.97895679604880        8.08482664960118       -3.82787424343993
C          -15.70341072621613        3.74409229872895       -2.48417873475357
H          -15.27334252243570        3.63102049378953       -3.48864534438715
H          -15.64661105411038        4.80912501537962       -2.22360119643259
H          -16.76053655311989        3.46435148698725       -2.53944442274984
C          -16.74972468033499        1.11310849869061       -0.87698247741646
H          -17.21896487232580        1.35074918772393       -1.83707913492292
H          -17.42733930730492        1.43629830789546       -0.07576494640463
H          -16.63993638446944        0.02428463618184       -0.81259409050182
O          -10.62256150489871        1.07045349147865       -0.17577222338190
H          -10.89080177408011        0.16615513330879       -0.01328610258271
H           -9.97837305582164        1.31311888331149       -0.81689520224369
C          -14.88010029162100        6.00836456906412        3.73774685174985
H          -14.43624022524217        6.95910896762344        4.05139880417591
H          -15.48497134484684        5.61473652594695        4.56232127164965
H          -15.52485568923994        6.18451980399383        2.87424198751301
N          -12.87363169614057        4.63016823748709        4.29038803046699
H          -12.78275670549678        4.98271866518999        5.22699263824835
C          -13.81484178607443        5.03263736365430        3.38047959526914
C          -12.10301970285926        3.70068379326687        3.70245802700626
H          -11.27087584552790        3.21685562016632        4.18274471566970
N          -12.50643839985357        3.49601989867944        2.46244097665437
C          -13.55530486756344        4.32700254127133        2.24336494955284
H          -14.02525807108461        4.37174725992212        1.27800253120265
78
 energy: -116.045848919435 gnorm: 0.029546789045 xtb: 6.7.1 (edcfbbe)
Fe         -11.61986034270972        2.30128931433205        1.13319139383812
N          -12.21220636848878        0.58911950964148        2.04880661684490
N           -9.94830232247042        2.30285022113114        2.25062504585010
N          -10.97714457897901        3.89450815506025        0.12052374373960
N          -13.27369823707170        2.23980067590798       -0.03136727449472
C          -13.35198444781085       -0.11185861952024        1.80308747428054
C          -13.36878868506566       -1.33698629140055        2.58084823988181
C          -12.22209300913517       -1.34359869042136        3.31486955364929
C          -11.51178451286546       -0.12763354634444        2.96821356542667
C           -9.59017692325150        1.39418188310173        3.19673235091056
C           -8.38143109621849        1.80539929823794        3.87116533423838
C           -8.01730528154654        3.00698761524828        3.31551912957407
C           -9.00136081170553        3.28080625499547        2.27814489318222
C           -9.84553773964241        4.59616592750737        0.36591617216842
C           -9.66438687364064        5.63847326357380       -0.62284303160635
C          -10.72704471727363        5.54425797862637       -1.47882644717750
C          -11.55321961620063        4.45620991879059       -0.97715762977904
C          -13.62222665069616        3.12550452914909       -0.99689813212869
C          -14.96679112207364        2.87915180036562       -1.46040761077841
C          -15.41109100751842        1.79766666242579       -0.77527683647561
C          -14.34020596777765        1.40029923806982        0.10808304212297
C          -14.36095843034158        0.28746353215137        0.93774495777932
H          -15.24345021395810       -0.33773158878145        0.90504707308689
C          -10.29399911536277        0.23930997517378        3.50941202234503
H           -9.86682473036607       -0.42169539329460        4.24874570875568
C           -8.95759238684185        4.35352283678654        1.40741727552457
H           -8.14389632973628        5.05332701752847        1.52636567552731
C          -12.79012977966628        4.12440878966848       -1.49351820097418
H          -13.14868418730240        4.69912717282780       -2.33538332222884
C          -11.73108617769852       -2.37334119029788        4.27911128439338
H          -12.42341656318930       -3.20852299916264        4.34022012151489
H          -11.62220079081435       -1.95432070735869        5.27857754591126
H          -10.75938162257969       -2.75882638710505        3.97170454814406
C          -14.45070517838707       -2.36169251513455        2.52197325609995
H          -14.77883719711094       -2.50549369828385        1.49556322053344
H          -15.31060837907593       -2.04902441748851        3.11291123080379
H          -14.10465003096241       -3.31737143767729        2.90517946367919
C           -7.71457673978924        1.02372417781223        4.95109673620401
H           -7.75840294690983       -0.04269356723173        4.74474047016393
H           -8.20755770236008        1.20034735077764        5.90832632494668
H           -6.67096162638969        1.30694649577787        5.04424673527688
C           -6.89819313400864        3.86540653264571        3.63605815878869
H           -6.56537024343062        4.52664654149082        2.84555761204009
C           -6.26596419589524        3.92650444853955        4.80567287461526
H           -6.56137870746552        3.33307823147631        5.65011760711647
H           -5.43320896683676        4.58992105854741        4.96089602343176
C           -8.47494965625320        6.53148318284387       -0.70545976534705
H           -7.56476586220032        5.97190412223216       -0.49842906087448
H           -8.54267029076165        7.34336016972428        0.01837040966803
H           -8.39614928722957        6.96394908367031       -1.69942437657671
C          -10.99900214120452        6.29886545267823       -2.68723652027221
H          -11.43393205513833        5.73660220563604       -3.50575425278344
C          -10.75605233870359        7.59328236329333       -2.86947920724916
H          -10.36112324216613        8.21568626812082       -2.08759525271781
H          -10.96771538787271        8.07775768890741       -3.80742538991085
C          -15.68814238313862        3.71965430195264       -2.46671365698359
H          -15.25601782117094        3.60913012113635       -3.46279699457284
H          -15.63256900728076        4.77650839404029       -2.20320336547537
H          -16.73855853219488        3.44610611387102       -2.52338608067086
C          -16.73822024164467        1.11982938197446       -0.87989672402887
H          -17.21338509590235        1.35329361370519       -1.82901665757151
H          -17.40730773751873        1.43743638858284       -0.07866933204539
H          -16.63140633174443        0.03922060016281       -0.81264953906144
O          -10.64311858233503        1.04866869580596       -0.22018835918463
H          -10.84044873093238        0.12101286532682       -0.06109393903013
H           -9.95224795159765        1.27549929900126       -0.84552558509017
C          -14.88037279713807        6.01667800865340        3.73671256909969
H          -14.44580202389097        6.96320049029908        4.04962313658468
H          -15.48915240005464        5.63251162083678        4.55359326875401
H          -15.51872081602515        6.18877311545677        2.87902701216908
N          -12.88534885467430        4.62878005716474        4.29727099287251
H          -12.79222111530609        4.97900724373047        5.23695533093363
C          -13.82204169329037        5.03844691861882        3.38684445550171
C          -12.10914956658421        3.69817989615716        3.70164067369836
H          -11.28729103675341        3.21220939171197        4.18005723431537
N          -12.49637213438468        3.49527204364463        2.46636216158509
C          -13.55835511389167        4.32210770708274        2.25335947352376
H          -14.03671408239508        4.35996783611161        1.29739334399387
78
 energy: -116.049319989592 gnorm: 0.031833854188 xtb: 6.7.1 (edcfbbe)
Fe         -11.61834917818215        2.30064301960366        1.13206255583076
N          -12.21213877978817        0.60026736728595        2.04746683547888
N           -9.94594566672963        2.30714424580793        2.24722813896118
N          -10.97587258102161        3.89035191682797        0.12229854731754
N          -13.28477254722820        2.25350953571800       -0.00976754675856
C          -13.35191280715391       -0.10057048546263        1.80346611793727
C          -13.37249038354287       -1.32692671340941        2.57329828155539
C          -12.22238098777140       -1.33571076836151        3.30373576474995
C          -11.51447331862162       -0.12055151847167        2.96187175867420
C           -9.59591364647909        1.40130568452984        3.19869903250487
C           -8.39083394214663        1.80862090106713        3.87497499899838
C           -8.02132803728854        3.00935158871302        3.31593895720031
C           -9.00168607562250        3.27795013652859        2.27593824385965
C           -9.83754285180359        4.59114752056697        0.36390847135789
C           -9.65940939116879        5.63086189873168       -0.61872881286766
C          -10.72482573595327        5.53754963668547       -1.47530526636960
C          -11.54577987072579        4.45406246595080       -0.97050486686368
C          -13.62005056306790        3.13520647029027       -0.98244991501654
C          -14.96182776226679        2.87867513749916       -1.45459505094184
C          -15.40840970327245        1.79574095464952       -0.77420524488675
C          -14.33762815414443        1.40960953429906        0.11824691405858
C          -14.36466074428362        0.29614250428087        0.94245195213983
H          -15.24535419590311       -0.32760353310832        0.90628090686955
C          -10.30016789375036        0.24826815970040        3.50858085656846
H           -9.87857621185249       -0.40832564997716        4.25382389180043
C           -8.95158055483075        4.35228158546292        1.40490712921683
H           -8.13677465107573        5.04970061955281        1.52008183103134
C          -12.78988982819737        4.12714148663124       -1.47981843324940
H          -13.15433181467873        4.70688444012572       -2.31454133776031
C          -11.73371823654760       -2.36134158094928        4.26810752657231
H          -12.42714861109610       -3.19455552283940        4.33077971655786
H          -11.62625099658080       -1.93617483155534        5.26475479821658
H          -10.76127410989692       -2.74676355632867        3.96432211468719
C          -14.45196831566392       -2.35192831080839        2.52119307632519
H          -14.78324688783393       -2.50796906271641        1.49741709301874
H          -15.31295955203887       -2.03951128471568        3.11092554495578
H          -14.10300154004548       -3.30290941326923        2.91351769248045
C           -7.71695041383801        1.02044329016647        4.94050241572409
H           -7.77486726361577       -0.04486736746777        4.73088890251180
H           -8.19195914879779        1.19739087408971        5.90717367543936
H           -6.66957695600877        1.29504940166678        5.01759008386589
C           -6.90278782967042        3.85985671451483        3.63258489632808
H           -6.57213845483304        4.50835227790751        2.83141821042812
C           -6.27178974378775        3.93393162817025        4.80241262429570
H           -6.57765952692925        3.37065989133701        5.66566818029093
H           -5.43575758343775        4.59446292661761        4.94839866921148
C           -8.47547816556092        6.52960108959217       -0.70447783085494
H           -7.56145077964877        5.97692333770605       -0.49846948166630
H           -8.54727307830121        7.34190954199727        0.01801116956379
H           -8.40366509887762        6.96216197632907       -1.69832815469235
C          -11.00226168057006        6.29279753438679       -2.67562051054186
H          -11.45132504485678        5.72703183608800       -3.48377628002417
C          -10.75240667529672        7.58560470665556       -2.85928220987891
H          -10.35726679495621        8.21099489405592       -2.08021681038993
H          -10.96471538541863        8.07255449588555       -3.79489991306400
C          -15.67657506979267        3.71092509893738       -2.46466183578647
H          -15.23494851562653        3.59425251890607       -3.45361865989149
H          -15.62102663943651        4.76441155525892       -2.19556166450256
H          -16.72427129061676        3.43148813845390       -2.52136401910496
C          -16.73385198652084        1.11721844998073       -0.87829720266406
H          -17.21236880641680        1.35520699876271       -1.82386604225677
H          -17.39464951605036        1.43476653294848       -0.07166137647209
H          -16.62402073044421        0.03820495707065       -0.81441380955823
O          -10.68244320991340        1.02865933074406       -0.29660418317060
H          -10.76625177271782        0.07708681614683       -0.09013830581307
H           -9.91448225237489        1.23534094941356       -0.85761767886597
C          -14.88108335939538        6.02337373875959        3.73379785253745
H          -14.44593208312105        6.97022393368291        4.04537029780426
H          -15.49846820238063        5.64900998146633        4.54890741112444
H          -15.51427520526889        6.19575554819178        2.87231022308638
N          -12.89510635084320        4.62276919795369        4.30620922287874
H          -12.80300764602447        4.96969415034160        5.24748686515426
C          -13.82740711904272        5.03636404426416        3.39249771833037
C          -12.11680426337363        3.69235936621789        3.70789496597526
H          -11.30135231197795        3.20048073440916        4.19057235634585
N          -12.49492158325484        3.49202603618533        2.47033835789568
C          -13.56130058123309        4.31862747147497        2.26037806766532
H          -14.04964575151326        4.35132082219507        1.31010152853067
78
 energy: -116.051182205215 gnorm: 0.038003422968 xtb: 6.7.1 (edcfbbe)
Fe         -11.61728165637183        2.29697001604686        1.12853211581477
N          -12.21372177377761        0.60937931427696        2.04069163539839
N           -9.94249712566801        2.30472245818022        2.23609238419424
N          -10.97014678457393        3.88317611242935        0.12538606592845
N          -13.28851945828909        2.26396055268767        0.01122955011435
C          -13.35480679081847       -0.08942944229706        1.80229612529138
C          -13.37480580059291       -1.31526400043419        2.56762855619471
C          -12.22300389583781       -1.32743970617262        3.29397756492273
C          -11.51613858346432       -0.11421044326816        2.95457051708785
C           -9.60033634402899        1.40435650821465        3.19809826069919
C           -8.40088201280409        1.81287926455182        3.87791949083459
C           -8.02703182496135        3.01059943119297        3.31645433979090
C           -8.99937080384769        3.27511414053584        2.27041935489608
C           -9.82714970519078        4.58488700135597        0.36358494347439
C           -9.65385517214277        5.62447362586488       -0.61504990365624
C          -10.72426479238078        5.53375865219584       -1.46703931284577
C          -11.54220886595611        4.45179820574117       -0.96132149506577
C          -13.61758972290471        3.14493900580355       -0.96658670996960
C          -14.95589771419394        2.88122600721867       -1.45115543740328
C          -15.40555576409616        1.79350343061551       -0.76991880477185
C          -14.33617841754350        1.41621707068391        0.13210828405033
C          -14.37125167441215        0.30410288755933        0.95013108653165
H          -15.25166484649403       -0.31786474247961        0.91048202831891
C          -10.30630137048284        0.25456302340433        3.50902102732106
H           -9.89194756623324       -0.39594082173413        4.26384592476869
C           -8.94165256243570        4.34918748417913        1.40093858893990
H           -8.12635424832435        5.04618615675871        1.51449889125266
C          -12.79292139412234        4.13377937899674       -1.46320626262013
H          -13.16216281393835        4.71885781638999       -2.29200912319171
C          -11.73427416674666       -2.35007196173296        4.25972364975662
H          -12.42960027781491       -3.18276926265952        4.32396159773307
H          -11.62885666052602       -1.91734434365482        5.25461382251519
H          -10.76052563629686       -2.73571797383405        3.95710756449235
C          -14.45499619283533       -2.34028656260965        2.52184249697095
H          -14.78574705180806       -2.50948835717519        1.49829647687793
H          -15.31837644782867       -2.02233538460645        3.10782313006277
H          -14.10341110906562       -3.28732982894309        2.92610564177816
C           -7.71628815662121        1.01882541832578        4.93282160200942
H           -7.78940819117110       -0.04667639734229        4.71939307534827
H           -8.17017734843249        1.19662061834933        5.91097218181743
H           -6.66372986970108        1.28728104457026        4.98804886893892
C           -6.90737583171488        3.85943907012990        3.63014534065858
H           -6.56337394544080        4.48475950700037        2.81450981625966
C           -6.28535732809886        3.95119426650614        4.80359073650672
H           -6.59439065557430        3.40202825310901        5.67572589600519
H           -5.43746389442522        4.60238017367025        4.93674894504097
C           -8.47531774289452        6.52981501551586       -0.70427281227804
H           -7.55539157715805        5.98425987562617       -0.49911545574098
H           -8.55288653846160        7.34320797051367        0.01839096173047
H           -8.41046392441493        6.96161152994718       -1.70017018144148
C          -11.01054291240863        6.29032016991308       -2.66333953301651
H          -11.47263634372837        5.72322805379924       -3.46421591291889
C          -10.75224005939871        7.58077080355838       -2.84787524795053
H          -10.34267419324914        8.20330107953019       -2.07198386026148
H          -10.96686860427415        8.07078151018241       -3.78274134958161
C          -15.66447571811733        3.70415527368345       -2.46904021149606
H          -15.21107433987862        3.58109541120874       -3.45177134152169
H          -15.61249067895383        4.75773938246027       -2.19971247882162
H          -16.71068532415081        3.41715410305759       -2.53083468379547
C          -16.72795776222229        1.11357119978571       -0.87600474912691
H          -17.21189002033977        1.35868394468024       -1.81833882477030
H          -17.38261355072103        1.42686283651624       -0.06166122341846
H          -16.61424828686266        0.03385569285393       -0.82077461616558
O          -10.71019643693821        0.99832124531881       -0.37059448912414
H          -10.72167052927225        0.04941313900605       -0.13836446840870
H           -9.87093510545985        1.17611271958066       -0.85779361922531
C          -14.88259691818284        6.02939257386100        3.72946273300175