87
 energy: -128.373541510285 gnorm: 0.239775893545 xtb: 6.7.1 (edcfbbe)
Fe           0.18300000000000      -26.92200000000000       67.59099999999999
N            0.34500000000000      -26.13600000000000       65.66700000000000
N           -1.37800000000000      -25.56300000000000       67.84800000000000
N            0.00700000000000      -27.53100000000000       69.43200000000000
N            1.72400000000000      -28.21400000000000       67.19000000000000
C            1.22900000000000      -26.60100000000000       64.71599999999999
C            0.82200000000000      -26.10200000000000       63.41299999999999
C           -0.28100000000000      -25.36199999999999       63.59000000000000
C           -0.59400000000000      -25.37200000000000       65.00300000000000
C           -2.00400000000000      -24.77900000000000       66.90000000000001
C           -3.06700000000000      -24.03100000000000       67.53600000000000
C           -3.06500000000000      -24.36400000000000       68.82500000000000
C           -2.00800000000000      -25.33300000000000       69.04899999999999
C           -0.83600000000000      -27.01500000000000       70.39899999999999
C           -0.67200000000000      -27.81000000000000       71.61000000000000
C            0.23600000000000      -28.76000000000000       71.35400000000000
C            0.67700000000000      -28.60200000000000       69.97900000000000
C            2.17800000000000      -29.14000000000000       68.11300000000000
C            3.34100000000000      -29.81100000000000       67.57400000000000
C            3.56700000000000      -29.18900000000000       66.19400000000000
C            2.51000000000000      -28.21100000000000       66.04900000000001
C            2.31900000000000      -27.40200000000000       64.95800000000000
H            3.11000000000000      -27.39400000000000       64.20900000000000
C           -1.66200000000000      -24.72500000000000       65.57500000000000
H           -2.28900000000000      -24.11900000000000       64.92100000000001
C           -1.67600000000000      -25.93100000000000       70.24099999999999
H           -2.11700000000000      -25.51100000000000       71.14499999999998
C            1.60700000000000      -29.38400000000000       69.33900000000000
H            1.92400000000000      -30.29000000000000       69.85599999999999
C           -1.10300000000000      -24.61400000000000       62.51100000000000
H           -0.64000000000000      -24.77500000000000       61.51400000000000
H           -1.11100000000000      -23.52500000000000       62.73300000000000
H           -2.14300000000000      -25.00500000000000       62.49299999999999
C            1.54300000000000      -26.40000000000000       62.06900000000000
H            2.17200000000000      -27.30900000000000       62.17899999999999
H            2.19400000000000      -25.54300000000000       61.79400000000000
H            0.79100000000000      -26.57700000000000       61.27099999999999
C           -4.02500000000000      -23.02800000000000       66.84500000000000
H           -4.17500000000000      -23.32800000000000       65.78600000000000
H           -3.58400000000000      -22.00900000000000       66.87200000000000
H           -5.00800000000000      -23.03100000000000       67.36199999999999
C           -4.02900000000000      -23.81800000000000       69.89399999999999
H           -3.72400000000000      -23.03800000000000       70.60599999999999
C           -5.26300000000000      -24.31600000000000       69.94400000000000
H           -5.57900000000000      -25.09700000000000       69.23699999999998
H           -5.98200000000000      -23.95200000000000       70.69300000000000
C           -1.41100000000000      -27.59800000000000       72.95300000000000
H           -2.41500000000000      -27.16300000000000       72.75900000000000
H           -0.83300000000000      -26.89800000000000       73.59299999999999
H           -1.53500000000000      -28.57300000000000       73.47100000000000
C            0.73100000000000      -29.84300000000000       72.34300000000000
H            1.43200000000000      -29.59800000000000       73.15399999999998
C            0.29900000000000      -31.10200000000000       72.20999999999999
H           -0.40200000000000      -31.37000000000000       71.40600000000001
H            0.64000000000000      -31.88500000000000       72.90299999999999
C            4.17800000000000      -30.92000000000000       68.23900000000000
H            3.58400000000000      -31.85800000000000       68.28100000000001
H            4.44700000000000      -30.61799999999999       69.27400000000000
H            5.09900000000000      -31.10300000000000       67.64500000000000
C            4.68500000000000      -29.54100000000000       65.18300000000001
H            4.97100000000000      -30.60800000000000       65.30300000000000
H            5.57600000000000      -28.90500000000000       65.37200000000000
H            4.31800000000000      -29.38100000000000       64.14700000000001
C            2.55100000000000      -22.84600000000000       70.65700000000000
H            2.99300000000000      -21.94700000000000       70.17599999999999
H            3.23700000000000      -23.20200000000000       71.45500000000000
H            1.56800000000000      -22.57200000000000       71.09600000000000
N            3.41300000000000      -24.45300000000000       68.91400000000000
H            4.37000000000000      -24.18300000000000       69.01899999999999
C            2.36600000000000      -23.92000000000000       69.63300000000000
C            2.94900000000000      -25.36300000000000       68.07799999999999
H            3.56500000000000      -25.94200000000000       67.39200000000000
N            1.63900000000000      -25.43600000000000       68.22600000000000
C            1.25000000000000      -24.54200000000000       69.19100000000000
H            0.21000000000000      -24.43300000000000       69.47300000000000
C           -3.51700000000000      -31.23300000000000       67.38900000000000
H           -3.48000000000000      -31.96900000000000       66.55700000000000
H           -4.57500000000000      -30.94300000000000       67.56600000000000
H           -3.09400000000000      -31.70100000000000       68.30300000000000
N           -3.00000000000000      -29.24200000000000       65.92200000000000
H           -3.74800000000000      -29.41600000000000       65.28200000000000
C           -2.71400000000000      -30.02200000000000       67.02200000000001
C           -2.13600000000000      -28.24400000000000       65.85500000000000
H           -2.13300000000000      -27.48000000000000       65.07899999999999
N           -1.30400000000000      -28.34600000000000       66.87400000000000
C           -1.64500000000000      -29.44600000000000       67.62100000000000
H           -1.09200000000000      -29.71600000000000       68.51200000000000
87
 energy: -128.429134993939 gnorm: 0.101727041924 xtb: 6.7.1 (edcfbbe)
Fe           0.17814211427436      -26.89307855722026       67.56778862960816
N            0.32317643175173      -26.17147790661828       65.64699636834514
N           -1.39009147508515      -25.56529672672364       67.85126398532593
N            0.00511332155925      -27.53475188932000       69.42643863687960
N            1.71587361065637      -28.20027446097886       67.19829524091313
C            1.22703872334269      -26.59909056816411       64.71226419017175
C            0.84140988610293      -26.09560698011603       63.40268196630208
C           -0.27978924326800      -25.35392330344190       63.57829157545427
C           -0.59003699672912      -25.38591955623567       64.99309168116319
C           -2.00725498100605      -24.78201098596826       66.91217346088899
C           -3.07547759178736      -24.02446928058417       67.53433324138422
C           -3.06385704621170      -24.34618205231262       68.84995694936988
C           -2.00620839546404      -25.32276520593188       69.04693057990737
C           -0.81852142686320      -27.02115753882545       70.40119446050723
C           -0.66389396736575      -27.80231479621564       71.62182720698925
C            0.24589502495368      -28.77310909871851       71.36039386447037
C            0.67076651146141      -28.60316152662883       69.97630680999134
C            2.18338796623790      -29.14058279655684       68.07835632677134
C            3.34416092971739      -29.80087521683265       67.52670376270925
C            3.56483068576119      -29.20427917404204       66.24298720338838
C            2.52165191696627      -28.21535532415635       66.08690043858508
C            2.32343071437200      -27.41003331689654       64.96856453233460
H            3.09515236424775      -27.42922438659135       64.20369805562478
C           -1.65883122371239      -24.72850901177856       65.57575429504834
H           -2.27808623989554      -24.11830118721693       64.92579061440054
C           -1.67408337615609      -25.93773626663249       70.24409298080757
H           -2.13823658455237      -25.53693333099148       71.14084667013149
C            1.61490112052050      -29.38364937640493       69.32909693687823
H            1.95049555570617      -30.26962994382131       69.86196398819359
C           -1.09198840244372      -24.62408882672275       62.52418141954867
H           -0.64630442113748      -24.77224942821483       61.53553178961054
H           -1.11244665320583      -23.54851273981235       62.73390225593236
H           -2.12337201515172      -24.99631056980705       62.49807798616942
C            1.54045015144143      -26.39903049722654       62.08872013719832
H            2.16119780681017      -27.29498363754311       62.17995640020112
H            2.18108074053396      -25.55772024526219       61.79972203095054
H            0.80666734017760      -26.56994719050763       61.29289774416904
C           -4.01079646260154      -23.04523218654409       66.84792605210782
H           -4.17147149242448      -23.32571198580366       65.80195875145702
H           -3.58946780970121      -22.03296487932552       66.87211779296037
H           -4.98031555132676      -23.03109326325356       67.35766560142974
C           -4.02150237828762      -23.84121896530457       69.88763784721357
H           -3.70655777913669      -23.06141444970000       70.58033168866569
C           -5.25653393593410      -24.31737436410311       69.94362489958884
H           -5.58326878221683      -25.08686799743576       69.25314794222820
H           -5.97309948197051      -23.95888574549668       70.67727957704396
C           -1.40363727319342      -27.59475782780627       72.93125186187227
H           -2.39733808669560      -27.16844113064326       72.75737014771190
H           -0.84260705810917      -26.91102214460709       73.57957122457631
H           -1.52361689027786      -28.55095841743037       73.45365891980467
C            0.71992096255124      -29.83993411444128       72.31174306082180
H            1.40732021312695      -29.57534484775776       73.11720266091446
C            0.30079713527985      -31.09315649678566       72.20142800432485
H           -0.39295032735868      -31.37637723828297       71.41836512085607
H            0.63099321972187      -31.86831606219002       72.88795549875437
C            4.15732768167680      -30.89004477292627       68.20898883927912
H            3.58938961790417      -31.82963371908619       68.27207646430558
H            4.43224315080439      -30.61096824532983       69.23629809297582
H            5.07866889368946      -31.09219575951175       67.65254640946344
C            4.65255806258347      -29.53812920423872       65.22542512298392
H            4.95905559876413      -30.58724442402123       65.31083328096256
H            5.54747215032331      -28.91713310607944       65.37726447581156
H            4.31227793458305      -29.37955781141901       64.19280619796241
C            2.55752668424564      -22.84322903985617       70.65545314716397
H            2.99113497062508      -21.94992253341148       70.19102576684072
H            3.22789737292594      -23.18765670641184       71.45105838900453
H            1.58951681126994      -22.57856304418206       71.08968374783547
N            3.41753949953851      -24.44216961042355       68.92255242064280
H            4.38076452851497      -24.17415316621202       69.02402323291800
C            2.37299730686082      -23.91037081200363       69.63608793025317
C            2.93009055132214      -25.36632777841721       68.08353971309786
H            3.53743162221782      -25.93952076366794       67.40200090406142
N            1.62617746307328      -25.45449472401264       68.22782961566182
C            1.25996066846006      -24.54831944167930       69.18449803421998
H            0.23037066143223      -24.43594537178133       69.46768217986362
C           -3.51792264389379      -31.23177178907685       67.38319307421932
H           -3.48703141875230      -31.96641574397338       66.56975750502060
H           -4.56296542821991      -30.95607036832071       67.56638995692788
H           -3.10466267204436      -31.69026663658374       68.28550524245711
N           -3.00669759909387      -29.25401674706499       65.92444956930686
H           -3.75723808212746      -29.42545957517165       65.27810544485132
C           -2.72056315847026      -30.02637453946692       67.02223118496272
C           -2.12427398245244      -28.24603418468545       65.87262879745859
H           -2.12068446077205      -27.48984425008798       65.10425790332802
N           -1.28884734172077      -28.33100990779241       66.88504426432297
C           -1.64368768389340      -29.43590450747832       67.61117875693060
H           -1.09703785737925      -29.70963669769226       68.49437326624897
87
 energy: -128.445188251952 gnorm: 0.037590079033 xtb: 6.7.1 (edcfbbe)
Fe           0.17431915191664      -26.87570116661966       67.54161795177878
N            0.31094703014502      -26.19989974226177       65.63963123947462
N           -1.38480163456102      -25.56477111608318       67.85420398410028
N            0.00757415366455      -27.53240794751660       69.42233639456467
N            1.71049283170281      -28.18321350571065       67.20534205764568
C            1.22039410638465      -26.60800222977864       64.71428713949858
C            0.85708435339025      -26.09387956186926       63.40304332154136
C           -0.27517470391282      -25.35258761969460       63.57712463403261
C           -0.58823167803454      -25.40808430003425       64.99098486744434
C           -2.00262858379820      -24.79098996632141       66.92184494389231
C           -3.07504029910706      -24.03050655106981       67.53199154585299
C           -3.05834537654856      -24.34468070447888       68.86288143743460
C           -1.99724767088151      -25.31993690921533       69.04231622176697
C           -0.80334232556417      -27.02389814290151       70.39710805452061
C           -0.65506698082928      -27.79379109567975       71.62012025885160
C            0.24956796064776      -28.78148586552108       71.35154745710773
C            0.66576855322614      -28.59919759331764       69.96695472181469
C            2.18231771966910      -29.12831848147259       68.06033377545860
C            3.34195470316896      -29.78443831200662       67.49023908135869
C            3.55604196304552      -29.21472574751216       66.28372075077084
C            2.52047107715084      -28.21402101519063       66.11135740672975
C            2.31644430930189      -27.42763553954613       64.97374109742209
H            3.06759476125431      -27.48134984890703       64.19269842830492
C           -1.65396312833379      -24.74023734677906       65.57874132299462
H           -2.26089521520485      -24.11842249118673       64.93342847294610
C           -1.67604723822748      -25.94983756912354       70.24197799448505
H           -2.17421490834670      -25.57702592602594       71.13067836436302
C            1.62547575402749      -29.37290512514499       69.32258719655820
H            1.98991312920340      -30.23483942704529       69.87249144930011
C           -1.07659449352572      -24.63328146479574       62.54062031646174
H           -0.64243687799143      -24.77426992683262       61.55423058756985
H           -1.10733114651521      -23.56376242759038       62.74525122023746
H           -2.10447635915709      -24.99640375797678       62.51398338994928
C            1.54301213126283      -26.39335046659860       62.11056853406281
H            2.15664081383142      -27.28531584252522       62.19065420496654
H            2.18085345832251      -25.56258714485474       61.80746503440909
H            0.81416118329582      -26.55941451826682       61.31814511510909
C           -3.99310716854982      -23.06510858590699       66.85432690814515
H           -4.16055625768682      -23.33635045811571       65.81521132972925
H           -3.58036272261141      -22.05526539343894       66.87430035355527
H           -4.95555283945835      -23.03833516022708       67.36266183674432
C           -4.00584232273774      -23.86493201581949       69.87475464484723
H           -3.67273140713141      -23.09392164036500       70.56188425824881
C           -5.24769099814185      -24.31880171791949       69.94160266565824
H           -5.59072547617566      -25.08378836298043       69.26580207228821
H           -5.95938203574519      -23.96078782075422       70.66750121486442
C           -1.38916141444565      -27.58963626443149       72.90722315322959
H           -2.37820068001924      -27.17063762260864       72.73977742352501
H           -0.84189076835889      -26.91205586387377       73.56414626429542
H           -1.50516940461449      -28.53824550736737       73.43004772629972
C            0.70552749641297      -29.82972153873707       72.27285232468347
H            1.38241176228328      -29.54013179490959       73.07294734319994
C            0.30098607039966      -31.08671652993912       72.18672584705158
H           -0.38641858316414      -31.39230635040959       71.41676287270333
H            0.62676163904909      -31.85118223330374       72.87420508115716
C            4.13508824643032      -30.86110063193365       68.17629850756902
H            3.57010510945409      -31.79407146022478       68.24864499846805
H            4.40398559043196      -30.57593392149851       69.19589289696033
H            5.05713930703321      -31.07106959716701       67.63807784311263
C            4.62256130841745      -29.53484300601091       65.27036526240209
H            4.93571488884264      -30.57535827716975       65.34346105866557
H            5.51247958475826      -28.91344980480766       65.40784738950747
H            4.27621673556973      -29.37199353985854       64.24851332234518
C            2.56215100314457      -22.84055643332904       70.65308559460338
H            2.99292666573343      -21.94880926607545       70.20091070241129
H            3.22483522788336      -23.17913921498830       71.44754864605734
H            1.60197090778601      -22.58243449148252       71.08620632404606
N            3.41689624000059      -24.43873546225015       68.92254175829581
H            4.38481785600822      -24.17594022651134       69.01795515047449
C            2.37631548392586      -23.90405627211763       69.63528078446410
C            2.90740290836356      -25.37379747780708       68.08775768488351
H            3.50689851993017      -25.94581669532383       67.40913418091718
N            1.60807740750121      -25.46597606403099       68.23090829851347
C            1.26421790914888      -24.55291207452169       69.18462521603266
H            0.24323374608489      -24.43223953024594       69.47572755076939
C           -3.51577979049535      -31.23055539459889       67.38017684190258
H           -3.48957820131849      -31.96376093282746       66.57551943662455
H           -4.55490716429202      -30.96268337639383       67.56552053553503
H           -3.10845981043193      -31.68365649513769       68.27719580884126
N           -3.00775441578310      -29.25872077532400       65.92575743740427
H           -3.75747038628151      -29.42632417414555       65.27385681798103
C           -2.72194098774860      -30.02772061872088       67.02289532078350
C           -2.11503746127796      -28.24414981491552       65.88943044472751
H           -2.10937057511226      -27.49219240962140       65.12713100162730
N           -1.28093299040500      -28.32023079850147       66.89703581578414
C           -1.64286436849680      -29.42815634287954       67.60716098425569
H           -1.10202390818198      -29.71051416101552       68.48555308902738
87
 energy: -128.449586323421 gnorm: 0.017270351839 xtb: 6.7.1 (edcfbbe)
Fe           0.17397567629308      -26.86961658376858       67.53273319380804
N            0.30195915516336      -26.22167943847291       65.63827741233102
N           -1.37619089884638      -25.57222436098936       67.85133896642051
N            0.00646448011310      -27.52776998588163       69.41600448798906
N            1.70224416208958      -28.17093376674339       67.20727983434074
C            1.21279301337339      -26.62006140151373       64.71334071717379
C            0.86205346448974      -26.09497741207106       63.40743775933461
C           -0.26940134027214      -25.35478572545695       63.58211018064313
C           -0.58871117536549      -25.42136149184493       64.99183022348615
C           -1.99435240501863      -24.80006986800024       66.92106933141902
C           -3.06667822812639      -24.04404171474810       67.52924680233454
C           -3.05286738844142      -24.36163335217509       68.85869941660745
C           -1.99213280376952      -25.33103828249571       69.03639092534212
C           -0.80246984022193      -27.02373284770567       70.38919265661005
C           -0.65178993245300      -27.78772387010519       71.60913914915967
C            0.24572751976606      -28.77891647298201       71.33583169872236
C            0.66262280112416      -28.59060668901200       69.95861789522387
C            2.17033506513323      -29.11332967037512       68.06536700615018
C            3.32370791638481      -29.77998093641176       67.49690992147687
C            3.54632198508189      -29.19991649542752       66.28500169633122
C            2.50693696993395      -28.20499421296875       66.11171582924102
C            2.30299854308425      -27.44297193686043       64.96651352604778
H            3.03463535172346      -27.53768830779376       64.16869374385209
C           -1.64821782303778      -24.74728136689151       65.57889710383870
H           -2.24611628063894      -24.11486677182744       64.93678639721800
C           -1.68655759134730      -25.96369567750808       70.23563350272418
H           -2.22232670814821      -25.62163885775647       71.11724681520320
C            1.63128184735907      -29.35720218509150       69.32642485933842
H            2.03054488655953      -30.19460276349688       69.89298629207302
C           -1.06864386342971      -24.63286521056757       62.55134174552764
H           -0.63474862638898      -24.77262522932510       61.56460522171286
H           -1.09935233266203      -23.56423474140660       62.76119584596444
H           -2.09636992573645      -24.99744309440498       62.52926079883881
C            1.55375740661388      -26.38869876362105       62.11973809967243
H            2.16434822287383      -27.28343563478690       62.19848306508788
H            2.19415766544429      -25.55884570856618       61.81900376157815
H            0.82276820187459      -26.54894519961744       61.32803986059198
C           -3.98019736119177      -23.07869883669990       66.85405747947074
H           -4.15307810282048      -23.35304411591557       65.81630122739658
H           -3.55984744639572      -22.07177929451573       66.87116300503952
H           -4.93806707720541      -23.04624628759993       67.37089374522618
C           -3.99113042041359      -23.88744087342147       69.87524330631227
H           -3.63788215998743      -23.12842566810357       70.56605449610373
C           -5.23958025742207      -24.32315724110588       69.94706712216548
H           -5.60118313544280      -25.07972510774209       69.26966850539529
H           -5.94494625122959      -23.95376469939605       70.67246101238626
C           -1.37998246292582      -27.58154552802102       72.89389167213072
H           -2.37075784983102      -27.16751486342750       72.72344284439366
H           -0.83433423002108      -26.89982590908244       73.54806156756597
H           -1.48701444494485      -28.53159069362708       73.41559667972520
C            0.69904151844199      -29.82632174622653       72.24839616279661
H            1.36755519083363      -29.51871286190151       73.04762690039351
C            0.30672213067237      -31.08791003069356       72.16850208920259
H           -0.37683551309579      -31.40918614637358       71.39981188930878
H            0.63198755942268      -31.84213965876992       72.86589025396400
C            4.11502259032882      -30.85207822571163       68.17101811010861
H            3.54183044301495      -31.77779447996970       68.23759054650782
H            4.38107816459362      -30.55197663641782       69.18455258900866
H            5.03323707332556      -31.05547088428693       67.62524412631983
C            4.60951369885493      -29.52551595030424       65.28631687730578
H            4.91737708119198      -30.56530394762355       65.37383086620993
H            5.49132017470070      -28.89820726512099       65.43186002425635
H            4.24946308400759      -29.36516536678245       64.27186765014233
C            2.57073254883624      -22.83753032482088       70.65097470950407
H            3.00164260716383      -21.94313109794538       70.20301681227949
H            3.23307509558292      -23.17605549668916       71.44632551967756
H            1.61077978081637      -22.58052477037609       71.08609377479171
N            3.41237721817345      -24.44295916417045       68.91516239869240
H            4.38293514919851      -24.18647942083593       69.00299587560868
C            2.37856972644945      -23.90070816127854       69.63327755599785
C            2.88891240213627      -25.37954252377045       68.08769091834222
H            3.47874553350161      -25.95918815150499       67.40787600303484
N            1.59112505559413      -25.46386170047625       68.23857582993368
C            1.26108648624729      -24.54695286048885       69.19291548618313
H            0.24461446437758      -24.41878092056673       69.49590799650210
C           -3.51215596033607      -31.22946332250628       67.37850382716444
H           -3.48717075797729      -31.96381978316203       66.57431610819985
H           -4.55228472720113      -30.96400551807182       67.56447841215011
H           -3.10581996720162      -31.68234259971750       68.27630619845476
N           -3.00185908703689      -29.25399235315614       65.92864707267179
H           -3.74921109192586      -29.41930827300497       65.27336845041258
C           -2.71759681593118      -30.02591693849987       67.02463318549894
C           -2.10890346570308      -28.23773890749567       65.90133569792954
H           -2.10039847360811      -27.48234001814549       65.14352833828985
N           -1.27727216901542      -28.31635366473983       66.90911221235280
C           -1.64045041488776      -29.42702311677272       67.61288851537918
H           -1.10249230428902      -29.71700256429155       68.49027260869653
87
 energy: -128.452121807288 gnorm: 0.011888346310 xtb: 6.7.1 (edcfbbe)
Fe           0.16784007390095      -26.86624455911256       67.52648825584842
N            0.29921049253942      -26.23808428059719       65.64212953296850
N           -1.36447878266854      -25.58425972639308       67.84597858402417
N            0.00430275509549      -27.52143557308188       69.41074697111540
N            1.68614518284327      -28.15226849908884       67.21102350620808
C            1.20436030136393      -26.63554347067150       64.71256146575041
C            0.86645089782683      -26.09749545416607       63.41272561913894
C           -0.26068627849327      -25.35485545557892       63.58924426529352
C           -0.58412302969180      -25.43028130726383       64.99518541474808
C           -1.98240257425090      -24.80935719186732       66.91890486421650
C           -3.05814650740165      -24.06182626342365       67.52391447315259
C           -3.05070233523095      -24.38682701332711       68.84972493846092
C           -1.99079198911336      -25.35089961465438       69.02655199974443
C           -0.80703104296606      -27.02542217271174       70.38175093991555
C           -0.65262845073389      -27.78385303216926       71.59896486026027
C            0.24170280211125      -28.77490057529733       71.32241403219378
C            0.66063801875026      -28.57866295518768       69.95301367916421
C            2.15729076284473      -29.08856323755744       68.07326344154711
C            3.30558565045287      -29.76100953423481       67.50702070880963
C            3.52298025962688      -29.19170975218431       66.28740698393364
C            2.48457269723510      -28.19936992252269       66.11278286513325
C            2.28218998037892      -27.47012479730101       64.95477095309825
H            2.99609693319221      -27.60255546176085       64.14918398947674
C           -1.63826673845651      -24.75076091467569       65.57898468704519
H           -2.22962418521771      -24.11157512611625       64.93918222803039
C           -1.70860663952642      -25.98577806016223       70.22608202417047
H           -2.27465517480873      -25.66834248760497       71.09544822081557
C            1.64420107826903      -29.33289650002791       69.33570500824911
H            2.06953516740602      -30.14876893787644       69.90981592718614
C           -1.05930955199927      -24.62590906797439       62.56372302552398
H           -0.62799698421090      -24.76402688190472       61.57519231648907