72
 energy: -105.980605459415 gnorm: 0.000062677328 xtb: 6.7.1 (edcfbbe)
Fe          21.99847087204974       -3.76140370673486       -1.87109730034075
N           20.94108540937299       -4.23231517460791       -0.25320325644240
N           23.46841345394497       -3.03663533028431       -0.69861694160003
N           23.05284800153472       -3.22203875653003       -3.50518084445678
N           20.51855897425357       -4.39443377699136       -3.04094627523501
C           19.72914381693011       -4.83975415537009       -0.22469726580118
C           19.28515333819957       -5.03553898640607        1.13912838622136
C           20.25593110029288       -4.51456200953227        1.93420750825431
C           21.28360585383428       -4.01716957763892        1.04444167306809
C           23.47148391192317       -2.97384460318805        0.66277636171476
C           24.69824472524475       -2.39823153510874        1.14561824484279
C           25.45492677459915       -2.11574337330959        0.03815222131802
C           24.65731963422470       -2.51290819562756       -1.10361309908556
C           24.31630454443475       -2.70936454264702       -3.53060865590954
C           24.75765784586894       -2.50713250954697       -4.88524021193933
C           23.72273466191380       -2.90443512126260       -5.69075824137860
C           22.67606259015750       -3.36413631310002       -4.80219277763991
C           20.46740453573969       -4.34934309880675       -4.39721902943874
C           19.22615531877636       -4.91555883232123       -4.88179047934116
C           18.53749583588112       -5.31810418442331       -3.78224074196336
C           19.36136388454246       -4.97926426862202       -2.64133866404885
C           18.98989239867864       -5.20804978585600       -1.33194093070229
H           18.03878416420877       -5.68716961760959       -1.15942078259340
C           22.45148977560619       -3.42680415255492        1.48217903515853
H           22.58733305932541       -3.32375328691709        2.54742117968776
C           25.06999294826507       -2.38469593031570       -2.41631760518534
H           26.05416029294329       -1.97818314447668       -2.58818180901343
C           21.45804856404818       -3.86125483284002       -5.22626027692642
H           21.27492788620232       -3.89196380165306       -6.28877053060172
C           20.32167278835498       -4.43640924248515        3.42051119893442
H           19.43439373858627       -4.87537295606216        3.86956349013406
H           20.39226678674465       -3.39840858173665        3.74585941055014
H           21.19584035752263       -4.96930093258424        3.79593194132022
C           17.99734045859910       -5.68113019776880        1.51789978570156
H           17.93928934926229       -6.69026216932498        1.10968719841767
H           17.15508345448760       -5.10950568610362        1.12788403615776
H           17.89835803684403       -5.74220872943972        2.59881088200954
C           25.00886906244270       -2.12035620730200        2.57433202584795
H           25.38022655667170       -3.01640226895597        3.07469721949932
H           24.11864729778974       -1.78348563905210        3.10318692998886
H           25.77090954662063       -1.34702746354727        2.64618117209265
C           26.76733550457804       -1.51302917017179       -0.04287182392864
H           26.94019379736957       -0.87918104500817       -0.90491791542914
C           27.74788997522452       -1.68538543618216        0.83711052853795
H           27.64861643140879       -2.33966217762350        1.68558651246071
H           28.69954933336006       -1.19388667596739        0.72240736275727
C           26.10691299954660       -2.02064570150816       -5.28266308703667
H           26.87336574023619       -2.42922363303686       -4.62563842764138
H           26.16108470057434       -0.93190197076549       -5.22892523193900
H           26.32554011940786       -2.32479474940495       -6.30408035413925
C           23.64299095562349       -2.92181491621706       -7.13506930656586
H           23.06935702441959       -3.73604696881152       -7.56165398743076
C           24.20131927381538       -2.03002400984068       -7.94643553841770
H           24.74220218010460       -1.17669074189612       -7.57581388738363
H           24.11326794262917       -2.11044647895545       -9.01703360377547
C           18.85282213434146       -5.01217593245566       -6.32060298940555
H           19.56635879006473       -5.63593373580743       -6.85947586475866
H           18.84863752404049       -4.02510849032168       -6.78325418209072
H           17.86345774529359       -5.44791954147522       -6.43424865122273
C           17.20244511942635       -5.97185235962047       -3.68846554021803
H           16.77930196667530       -6.13030725870404       -4.67717526656362
H           16.51291537305544       -5.35257271481615       -3.11452128311376
H           17.28424224172007       -6.93834796813861       -3.19109158017495
O           21.15134260395512       -1.68630365084438       -1.92108503701176
H           21.88047259087485       -1.17796588575006       -1.54775666375390
H           21.13806582579204       -1.51068172287672       -2.86878322268035
C           23.28446341409088       -6.48164616674144       -0.27525863256386
H           24.02135604188932       -7.27887483019667       -0.28382444599620
H           22.32169357770406       -6.86435774279999        0.04691481730286
H           23.59084590265499       -5.66687074606712        0.37165501877429
S           23.05584386975082       -5.86021769056924       -1.97829247673261
H           24.30721769345893       -5.40646720880772       -2.10856942113823
