72
 energy: -105.885045923548 gnorm: 0.253318699371 xtb: 6.7.1 (edcfbbe)
Fe          22.14500000000000       -3.83800000000000       -1.89000000000000
N           21.00500000000000       -4.21500000000000       -0.22700000000000
N           23.51200000000000       -2.88400000000000       -0.69100000000000
N           23.12100000000000       -3.17200000000000       -3.54300000000000
N           20.59000000000000       -4.42700000000000       -3.07000000000000
C           19.73400000000000       -4.84800000000000       -0.20300000000000
C           19.33200000000000       -5.01600000000000        1.18000000000000
C           20.28700000000000       -4.49000000000000        1.98000000000000
C           21.36200000000000       -3.98400000000000        1.12100000000000
C           23.50300000000000       -2.86200000000000        0.70700000000000
C           24.73200000000000       -2.27100000000000        1.15900000000000
C           25.45300000000000       -1.94200000000000        0.00200000000000
C           24.68400000000000       -2.28700000000000       -1.15100000000000
C           24.36799999999999       -2.56100000000000       -3.56100000000000
C           24.82000000000000       -2.41300000000000       -4.95300000000000
C           23.85200000000000       -2.93800000000000       -5.71100000000000
C           22.73400000000000       -3.32000000000000       -4.86300000000000
C           20.56200000000000       -4.42900000000000       -4.47600000000000
C           19.31300000000000       -4.98900000000000       -4.97500000000000
C           18.56900000000000       -5.39900000000000       -3.76200000000000
C           19.40000000000000       -5.08200000000000       -2.63400000000000
C           19.01300000000000       -5.25700000000000       -1.31300000000000
H           18.06200000000000       -5.75800000000000       -1.13400000000000
C           22.53100000000000       -3.39000000000000        1.56400000000000
H           22.70400000000000       -3.33000000000000        2.63800000000000
C           25.07300000000000       -2.18600000000000       -2.46500000000000
H           26.05800000000000       -1.75700000000000       -2.64700000000000
C           21.56900000000000       -3.92600000000000       -5.35000000000000
H           21.42899999999999       -4.01500000000000       -6.42700000000000
C           20.30700000000000       -4.35700000000000        3.53500000000000
H           19.36900000000000       -4.77800000000000        3.95500000000000
H           20.38000000000000       -3.28500000000000        3.81900000000000
H           21.17100000000000       -4.91900000000000        3.94900000000000
C           18.02199999999999       -5.62100000000000        1.64800000000000
H           17.67400000000000       -6.37200000000000        0.90700000000000
H           17.25300000000000       -4.82500000000000        1.74200000000000
H           18.17000000000000       -6.12400000000000        2.62800000000000
C           25.10700000000000       -2.03800000000000        2.65600000000000
H           25.47300000000000       -2.98900000000000        3.09900000000000
H           24.21099999999999       -1.70000000000000        3.21900000000000
H           25.91100000000000       -1.27500000000000        2.72700000000000
C           26.80800000000000       -1.26200000000000       -0.11000000000000
H           26.99900000000000       -0.61800000000000       -0.98000000000000
C           27.82100000000000       -1.38200000000000        0.78500000000000
H           27.70300000000000       -2.01000000000000        1.68100000000000
H           28.77200000000000       -0.85300000000000        0.62600000000000
C           26.23500000000000       -1.87500000000000       -5.37200000000000
H           26.97800000000000       -2.13500000000000       -4.58800000000000
H           26.19900000000000       -0.77000000000000       -5.48200000000000
H           26.54500000000000       -2.34200000000000       -6.33100000000000
C           23.75500000000000       -3.05100000000000       -7.22900000000000
H           23.21500000000000       -3.86000000000000       -7.73900000000000
C           24.38400000000000       -2.08000000000000       -7.92800000000000
H           24.92200000000000       -1.27500000000000       -7.40600000000000
H           24.36600000000000       -2.08300000000000       -9.02800000000000
C           18.85900000000000       -5.10600000000000       -6.43100000000000
H           19.58500000000000       -5.72900000000000       -6.99700000000000
H           18.81400000000000       -4.09600000000000       -6.89200000000000
H           17.85900000000000       -5.58800000000000       -6.47500000000000
C           17.18500000000000       -6.03700000000000       -3.70700000000000
H           16.94400000000000       -6.48600000000000       -4.69400000000000
H           16.42400000000000       -5.26300000000000       -3.46800000000000
H           17.17000000000000       -6.83500000000000       -2.93500000000000
O           21.05100000000000       -1.93400000000000       -1.77400000000000
H           20.47600000000000       -2.00600000000000       -1.01200000000000
H           21.11900000000000       -1.23300000000000       -2.31700000000000
C           22.81800000000000       -7.00400000000000       -0.74400000000000
H           23.64300000000000       -7.62300000000000       -0.33000000000000
H           22.10100000000000       -7.68300000000000       -1.25200000000000
H           22.30500000000000       -6.50400000000000        0.10500000000000
S           23.44900000000000       -5.76000000000000       -1.92100000000000
H           24.05000000000000       -5.02200000000000       -0.99900000000000
72
 energy: -105.944865438372 gnorm: 0.108701020882 xtb: 6.7.1 (edcfbbe)
Fe          22.10476976104755       -3.78220727949085       -1.89849091279832
N           21.00900849619239       -4.23723163624616       -0.21800472411851
N           23.51602581329140       -2.90344387177521       -0.68702070285320
N           23.11659111615905       -3.16783187671627       -3.54910309450886
N           20.59586903940579       -4.46455538074363       -3.08641092791162
C           19.75916405845232       -4.85020077808447       -0.19784592850773
C           19.33241227101660       -5.00948837656642        1.18191874264214
C           20.29704467352427       -4.48187074724716        1.98273639781030
C           21.35659470679393       -3.99509235209509        1.10559220504789
C           23.52382688970488       -2.87109114698834        0.69308279555577
C           24.74668380928195       -2.26125815459977        1.15706312616820
C           25.46925792746227       -1.92125027843055        0.02182743454316
C           24.68270730839741       -2.30974417796852       -1.12269223305060
C           24.35980284415713       -2.57655920529454       -3.56947002826296
C           24.82644108517169       -2.42656049958130       -4.95140950772021
C           23.83549794842753       -2.93358855838482       -5.73123545112263
C           22.74963207699937       -3.36578115475570       -4.85492004243906
C           20.54541878752696       -4.43233728328069       -4.46417333505662
C           19.29998092418384       -4.99733461514782       -4.94320755824160
C           18.58784689221305       -5.39452827954095       -3.79004507031966
C           19.40893496977827       -5.05772988758219       -2.65739894552722
C           19.03973648080634       -5.24355711397029       -1.32171078084920
H           18.08763921873059       -5.73959156375275       -1.14203845551367
C           22.53136944783346       -3.39192517592738        1.53334612178752
H           22.69791111793303       -3.32472094416420        2.60521583446383
C           25.06919706155239       -2.19351533452233       -2.45307228622090
H           26.04551721507452       -1.75467287874044       -2.63560849870460
C           21.56235801139821       -3.93694227751505       -5.30895731775928
H           21.41957153509269       -4.01342141881371       -6.38338004676569
C           20.30816687551833       -4.36070803305347        3.50416361453063
H           19.38809821478180       -4.76947064498086        3.93664021181227
H           20.38245429276412       -3.30818752805038        3.80359008135020
H           21.15766377787393       -4.90621943897148        3.93265952233235
C           18.03301734988359       -5.61817679883528        1.63768417148750
H           17.67646698472492       -6.36309675755621        0.91880878466756
H           17.26451125474400       -4.84153082984869        1.74066852591723
H           18.16384827157829       -6.11225185048884        2.60734442906744
C           25.10257915676853       -2.04130534139880        2.62352690369446
H           25.46508848646895       -2.97242203945635        3.08026380814535
H           24.22741983148440       -1.70684134963250        3.19393907140855
H           25.88929892372563       -1.28586266382158        2.71716220516331
C           26.79582655141118       -1.26558681849646       -0.08831959687584
H           26.97288015468837       -0.64164557984711       -0.96618260977797
C           27.80100680371534       -1.38303941804111        0.78327671696795
H           27.71183802030711       -2.00609215656058        1.66503155350198
H           28.74436218626054       -0.86612571321834        0.62835570309627
C           26.20494151215344       -1.89127842652320       -5.35540537421272
H           26.95625080363515       -2.13581747338773       -4.59635293255609
H           26.18924594877200       -0.79888744151599       -5.47275626916622
H           26.52580349612323       -2.33641366706326       -6.30462988768419
C           23.77237682196795       -3.02338044061539       -7.21384902862313
H           23.23233864418119       -3.83475934726266       -7.70057008154553
C           24.38285157404297       -2.08309789972840       -7.93259775405569
H           24.90473627882703       -1.27621286077740       -7.43625188162241
H           24.36542932264100       -2.08559517150443       -9.01725807602722
C           18.86863088870449       -5.10656214967473       -6.39159191839236
H           19.57459747483912       -5.71598692519358       -6.97396997411782
H           18.81578969253324       -4.11819366787674       -6.86956019019045
H           17.88102945631568       -5.57525203122326       -6.46771196763074
C           17.21540829492818       -6.02574031459944       -3.71721721735065
H           16.94966212190752       -6.47804967734379       -4.67875773530501
H           16.44738352621206       -5.27768507602502       -3.47277913283655
H           17.17752884492614       -6.81329066636428       -2.95333359807919
O           21.04544294633567       -1.93394428232578       -1.76675067767381
H           20.46242688441807       -1.98204459373021       -1.01092796679945
H           21.10403096702454       -1.18614356201367       -2.33027082687813
C           22.81307987512326       -7.01099386061893       -0.72926542175405
H           23.64131444917742       -7.61390966966150       -0.34049130015987
H           22.10974613245908       -7.66611309407110       -1.25111874180400
H           22.30293726732304       -6.50705243758402        0.09589823109604
S           23.43471942453668       -5.76455323645121       -1.90824089872182
H           24.07995872658380       -5.04644681667963       -0.99243928416482
72
 energy: -105.964095077316 gnorm: 0.034235860407 xtb: 6.7.1 (edcfbbe)
Fe          22.08739708614767       -3.76145688119784       -1.89930200583398
N           21.00740559076776       -4.24194942261451       -0.21649281364372
N           23.51675011642919       -2.91262332332791       -0.68718335509348
N           23.11556351217501       -3.17292770782352       -3.54774879054017
N           20.59121407619073       -4.46285400269117       -3.08766394215469
C           19.78494531240717       -4.84875581200362       -0.19895579027965
C           19.33691363033375       -5.00733929026814        1.17529781276698
C           20.30891002329141       -4.47693732873107        1.97459974705117
C           21.35482910397782       -4.00467336753040        1.08408853050477
C           23.53490969722520       -2.87990157286286        0.67709046843000
C           24.75341902723000       -2.26066578508086        1.15159250386273
C           25.47572148100000       -1.91478295188048        0.03157574958247
C           24.67383009871584       -2.32732454643743       -1.10809406753376
C           24.35064439720732       -2.59470255462328       -3.56772139092855
C           24.82428997765868       -2.44119395439974       -4.93650214650869
C           23.82210211308131       -2.93640026107540       -5.73436092678792
C           22.75875176317537       -3.39163940601410       -4.84005174581355
C           20.54440078650632       -4.43964564446782       -4.44435074032488
C           19.29262085710615       -5.00276891748880       -4.91310841976779
C           18.60670105712457       -5.38524455663005       -3.80763247556273
C           19.43111855957360       -5.04133919126484       -2.66711728893405
C           19.07154747647391       -5.23464663196848       -1.33041469956389
H           18.11599537676172       -5.71695306650051       -1.15361981714165
C           22.53258777058007       -3.39627943200485        1.50089960064170
H           22.68884459271111       -3.31708425037637        2.57005309407128
C           25.06108274850614       -2.20136360412482       -2.44126716323071
H           26.02891523222815       -1.75314506715345       -2.62264476565324
C           21.56011093597899       -3.94816906583036       -5.26628407751851
H           21.40953911818733       -4.01500424871009       -6.33720400439488
C           20.31503432492910       -4.36093868444538        3.46702751133550
H           19.40249661483499       -4.76597291012300        3.89874318880747
H           20.38973839935896       -3.31884103915364        3.77742831695828
H           21.15683607935014       -4.89812007681482        3.90395672937144
C           18.04542047676371       -5.61462805358691        1.62365693069189
H           17.68626657764552       -6.35567013505931        0.91605200366027
H           17.27642160304386       -4.84860886022676        1.73212857687281
H           18.16758093472281       -6.10188399471185        2.58886518399612
C           25.09507716929726       -2.04300054289458        2.59015753572277
H           25.45689827829980       -2.96434366272246        3.05136831700461
H           24.22742096946145       -1.71282286355055        3.16029396665326
H           25.87162674314484       -1.28961250819965        2.69355438059068
C           26.77446350671467       -1.27499272631673       -0.07562222427094
H           26.93241545639347       -0.66007702661574       -0.95652117792085
C           27.77984429587082       -1.38863542740484        0.78385802777999
H           27.71798115905023       -2.00819104565669        1.65957299759842
H           28.71658463952713       -0.87712478287747        0.63046700846861
C           26.16793957168126       -1.91117785786147       -5.33443072033732
H           26.92289365240688       -2.14730532911488       -4.58747222431045
H           26.15906588685255       -0.82532141741807       -5.45556125656438
H           26.49069798499275       -2.34417326450194       -6.28066162701007
C           23.78354557955562       -2.99721425545662       -7.18474929957516
H           23.24033014111446       -3.81308308229749       -7.64808398076707
C           24.38019369159686       -2.08035143607354       -7.93741202890789
H           24.89146417646086       -1.25803581106022       -7.47450967590425
H           24.36635112426109       -2.09964687056804       -9.01276879181762
C           18.87890430670089       -5.10752738166924       -6.35262399667375
H           19.58135343154373       -5.70900182026646       -6.93282004928559
H           18.82745424910165       -4.12636976711053       -6.82851785744061
H           17.89726758437507       -5.56755049257934       -6.44416481152645
C           17.24668732129978       -6.01431184432752       -3.72543512106014
H           16.96823130951487       -6.46632812392057       -4.67447673413061
H           16.48179166505800       -5.27561450712785       -3.47448621659645
H           17.20709414042289       -6.79371660634094       -2.96463939804360
O           21.04096823513038       -1.93269931278965       -1.77089020474031
H           20.44582993521873       -1.93379786432077       -1.01908174232539
H           21.08674605653368       -1.15711107072496       -2.32963257202200
C           22.80450444946056       -7.01531125536410       -0.71688398247739
H           23.63767958480014       -7.60453515704896       -0.34691780426732
H           22.11155915247804       -7.65396248284367       -1.25146543442543
H           22.29563046443516       -6.50908065583319        0.09315891733787
S           23.43130780007632       -5.77827529693114       -1.90587257498733
H           24.12033975776659       -5.08126085100573       -0.99706516516236
72
 energy: -105.969541370614 gnorm: 0.022612860764 xtb: 6.7.1 (edcfbbe)
Fe          22.07763845828099       -3.74185562077426       -1.89758970794367
N           21.01656638080310       -4.25315837229760       -0.22593676490372
N           23.51647988451099       -2.92254156174528       -0.69242611326836
N           23.11414107784749       -3.18177928528383       -3.53855614581175
N           20.60407069155851       -4.47622528069748       -3.07707635756001
C           19.79620860524723       -4.85024312903565       -0.20506836780209
C           19.34475953197323       -5.01003497517466        1.16375526623181
C           20.31839793321813       -4.47844465220884        1.95828655368764
C           21.36044971699683       -4.00999497476299        1.06867650509467
C           23.53317273362939       -2.89024823133355        0.66787446100357
C           24.74773577329080       -2.27051363414829        1.14451508493752
C           25.46949780157550       -1.92388155844578        0.02961101905051
C           24.66839546516225       -2.33864531856843       -1.10982540933319
C           24.34668311642787       -2.60819229127270       -3.55638514612209
C           24.81337173608699       -2.44583907776613       -4.91684004334509
C           23.81324047412779       -2.93256960749562       -5.72183390075308
C           22.76159440949278       -3.40127294574406       -4.82773098025748
C           20.55643340148459       -4.44099750174280       -4.43161911514012
C           19.30500200973681       -5.00412020186002       -4.90360919432119
C           18.61523336039076       -5.38668323770594       -3.79767116014788
C           19.44198019529627       -5.03708478353029       -2.65669909293670
C           19.07825087836679       -5.22856906619275       -1.33049980758841
H           18.12197467266133       -5.70247225116550       -1.15636354608762
C           22.53237448785316       -3.39902613462719        1.48681337373620
H           22.67984641151412       -3.30857626171321        2.55390401137737
C           25.05883043873232       -2.20935163892667       -2.43471653192921
H           26.01999256016790       -1.74980044590681       -2.61440317396152
C           21.56324392687234       -3.95353672271403       -5.24984291038103
H           21.40344037388416       -4.01615757672750       -6.31713082344499
C           20.32762591901215       -4.35956373269358        3.44351933680214
H           19.41245877610135       -4.76647169169629        3.86702672413221
H           20.40256925638888       -3.31616951951986        3.74982347594947
H           21.17159452924493       -4.89622180801725        3.87729225594954
C           18.05417161431668       -5.61379715219639        1.60809733145702
H           17.69725723871500       -6.35561008599566        0.89966141359055
H           17.28510394444668       -4.84713044306066        1.71410981800297
H           18.17495960561761       -6.09876665791814        2.57486417627080
C           25.08499142852508       -2.04374875160047        2.57560900860041
H           25.45288859011838       -2.96312785389188        3.03540388287049
H           24.21064427811757       -1.71749205272871        3.13689832671833
H           25.85601248040517       -1.28314957886035        2.67038357626824
C           26.75839501761283       -1.27874889720017       -0.07324938611003
H           26.90397128584886       -0.66455137177522       -0.95493520345945
C           27.76630756626579       -1.39131319083899        0.78585808069132
H           27.71867223012776       -2.02242194171672        1.65576758740004
H           28.69914115263892       -0.87587668631440        0.63035864554085
C           26.14891816704698       -1.92267670119352       -5.31319712756125
H           26.90207909120738       -2.16380617379550       -4.56587496113645
H           26.13114224542234       -0.83719840616238       -5.43087803877065
H           26.45769246059577       -2.35683240846814       -6.26326979677220
C           23.78202987595779       -2.98206133276723       -7.16619728703498
H           23.23721872628810       -3.80406509672403       -7.61441251972125
C           24.37384855233302       -2.07842351207736       -7.94414142996488
H           24.87537583400075       -1.22890768704624       -7.51226939144665
H           24.35660410896545       -2.12753781466109       -9.01905384416493
C           18.89461306373104       -5.10576798521180       -6.33541335853688
H           19.60380378057136       -5.70743086865757       -6.90368003623579
H           18.84717077405811       -4.11927868862330       -6.79683154385215
H           17.91248387786928       -5.56431176707134       -6.42278203246567
C           17.26157321840125       -6.01201057662902       -3.71941733287899
H           16.98703260138120       -6.45866218350185       -4.67190444305888
H           16.50577737109152       -5.26666763539057       -3.46622326188277
H           17.23293061215129       -6.79065306056373       -2.95975078025258
O           21.01942364357735       -1.90042215404574       -1.78491986253976
H           20.42457777075590       -1.85846084019690       -1.03027133605209
H           21.06922588833958       -1.11423710419131       -2.33086952628320
C           22.79402702209936       -7.01640586908553       -0.71083275647449
H           23.62931365958704       -7.60705313728479       -0.34842670594588
H           22.09823012978805       -7.64719425674738       -1.25142403899070
H           22.28713971867761       -6.50929903463386        0.10029031274959
S           23.42425909696366       -5.77965099773251       -1.90038453801800
H           24.20673728844462       -5.14900695194484       -1.00096539546383
72
 energy: -105.972594607031 gnorm: 0.018809584764 xtb: 6.7.1 (edcfbbe)
Fe          22.08698011483348       -3.75428168236453       -1.89052880854665
N           21.02404582847356       -4.25139874587955       -0.24238428698675
N           23.50900671055453       -2.92976582358600       -0.70153166599609
N           23.10873319143242       -3.19299658346701       -3.52326935825469
N           20.61948578061757       -4.47389330040117       -3.05786549733682
C           19.80690707239523       -4.85201536691075       -0.21387596669750
C           19.35394014880831       -5.01143909050423        1.14977459446435
C           20.32787718320468       -4.47866529769532        1.93955981209121
C           21.36579451223063       -4.01106330065731        1.05170260265586
C           23.52673224963430       -2.89862091770056        0.65771748807980
C           24.73842816271424       -2.28150435221609        1.13571474987005
C           25.46048299613575       -1.93531125072396        0.02471111593681
C           24.66039548515894       -2.34770424543003       -1.11444872551019
C           24.33900021112665       -2.61789434751583       -3.54222607270607
C           24.79897449935978       -2.44735293167360       -4.89510174269153
C           23.80102609465846       -2.92394835013218       -5.70557849130228
C           22.76005959467253       -3.40406804050987       -4.81362331083992
C           20.57151439348868       -4.44168456572412       -4.41299394377551
C           19.32208116324426       -5.00279767741030       -4.88869941321581
C           18.62817382861798       -5.38418721925894       -3.78319551704373
C           19.45705651787301       -5.03435095589813       -2.64412732338874
C           19.08362627449254       -5.22934871002439       -1.33023830333368
H           18.12275866220817       -5.68976484044398       -1.15909993642976
C           22.53072689401726       -3.40021286416121        1.47600860135226
H           22.67042325665359       -3.30129817230384        2.54154191716495
C           25.05623117440056       -2.21427422018043       -2.42945145739208
H           26.01262620830272       -1.74748876283973       -2.60799820792344
C           21.56634647503572       -3.95790097792895       -5.23602308636807
H           21.39667135591250       -4.01748249721522       -6.30022064276035
C           20.34409320503677       -4.35830866432788        3.42277126903445
H           19.42917645333694       -4.76650089675954        3.84512201814478
H           20.41985033072082       -3.31328640183688        3.72368169507956
H           21.19203577337436       -4.89346720462402        3.85091632032825
C           18.06363696432256       -5.61479163595801        1.58823082678043
H           17.71180925470544       -6.35854790050850        0.87811671740511
H           17.29330013009225       -4.84778793379220        1.68753594326140
H           18.18042930329340       -6.09785004059255        2.55699024098126
C           25.07155434218113       -2.04488166974035        2.56477182188126
H           25.44964469167749       -2.95820135975787        3.02821647548824
H           24.19101643693589       -1.72445148202661        3.11941937723722
H           25.83464468640794       -1.27444857809223        2.64985991884714
C           26.74566023845158       -1.28556544159696       -0.07557927712812
H           26.87770143155176       -0.66004428352751       -0.95016900335311
C           27.75475498062838       -1.40145717716255        0.78249801953464
H           27.71251223868018       -2.03747032566783        1.64947406642216
H           28.67884625251558       -0.86853498734697        0.63385852860932
C           26.13284826342151       -1.92843148245715       -5.29277925110584
H           26.88545245592703       -2.17942189498785       -4.54803678160573
H           26.11388671489294       -0.84274757968543       -5.40294887672703
H           26.42845030763846       -2.36099545584044       -6.24754603032324
C           23.77408424154650       -2.96869757167548       -7.14813758255646
H           23.23197699584349       -3.79856710968866       -7.58463593670137
C           24.35636404249381       -2.07693156039437       -7.94728788262406
H           24.86462046424872       -1.21189025766035       -7.55142573739019
H           24.33348760498229       -2.16189664985153       -9.02158283571399
C           18.91754493922441       -5.10265380206364       -6.31711499385384
H           19.63084575578771       -5.70375493153478       -6.87915055576405
H           18.87366583602111       -4.11311828410762       -6.77059233345510
H           17.93508759166867       -5.55998588229782       -6.40624633728123
C           17.27905156888222       -6.00886922191304       -3.70766201909565
H           17.00511345890794       -6.44916109073371       -4.66361189017387
H           16.52661517107775       -5.26257921927355       -3.44934661831696
H           17.25640423383832       -6.79125528432809       -2.95267000496889
O           20.98681970235346       -1.88234051707445       -1.81567796893310
H           20.41673275030624       -1.77286565450323       -1.04187190471104
H           21.06746063354239       -1.07216023321813       -2.32631443742529
C           22.78160663376479       -7.01917405481768       -0.70595784659589
H           23.61034397175311       -7.61538615924778       -0.33976297900061
H           22.08104848061050       -7.64319147446949       -1.24940141636075
H           22.27427959241027       -6.50538268053082        0.10263691283117
S           23.43282969351016       -5.79957286966339       -1.90374791301389
H           24.26560614117557       -5.20465800390620       -1.02409086080336
72
 energy: -105.973784298566 gnorm: 0.021382243649 xtb: 6.7.1 (edcfbbe)
Fe          22.08309093883521       -3.74570915132309       -1.88826235898186
N           21.03258163873962       -4.25696442921352       -0.25340295392325
N           23.50500681548303       -2.94088475155374       -0.70804356523805
N           23.10806142795079       -3.20297641408618       -3.51363795463471
N           20.63435843109562       -4.48258826355442       -3.04662084610662
C           19.81238778164762       -4.85685547456452       -0.21915377340567
C           19.36076828883609       -5.01580713642454        1.14258186255836
C           20.33353492563754       -4.48175872604307        1.93069340905018
C           21.36991008508894       -4.01445418594428        1.04368837813369
C           23.52284595845855       -2.90642245362501        0.65298483061896
C           24.73202728725190       -2.28923993315989        1.13172331426387
C           25.45511252662193       -1.94398829888905        0.02163549425206
C           24.65888428553060       -2.35744123803541       -1.11784102800946
C           24.33774169451444       -2.62331401296704       -3.53451344493573
C           24.79268766842282       -2.44420883579398       -4.88521414609120
C           23.79553488304098       -2.91601475656132       -5.69643714242289
C           22.75905294565699       -3.40129218170204       -4.80747387164404
C           20.58341790138587       -4.44871000323896       -4.40307450091803
C           19.33524456088330       -5.00667663135742       -4.87998200555907