77
 energy: -118.995680522650 gnorm: 0.000036731293 xtb: 6.7.1 (edcfbbe)
Fe          11.27596591939347       -5.29235066920800      -23.90791487427277
N           12.43200523745499       -3.80638855707003      -24.63683948958213
N           12.85179272700114       -5.96391583049831      -22.83255915415735
N           10.17725853825412       -6.89318207399551      -23.33531323944596
N            9.79314792354961       -4.76209975072624      -25.17184785127786
C           12.05329915134913       -2.85458806962882      -25.52553060507524
C           13.12470064929249       -1.90416219189780      -25.73352227308753
C           14.15654218735171       -2.31147914705555      -24.94605354949623
C           13.70326964910751       -3.50482344516729      -24.26331268374265
C           14.07192336843746       -5.37840747267496      -22.71335985907784
C           14.89396434056840       -6.11211037169930      -21.78430642025392
C           14.12675131238379       -7.15160484998562      -21.32675030676127
C           12.84796711610665       -7.03478856862128      -22.00107825029928
C           10.54158548877415       -7.80815003092797      -22.39886686199213
C            9.45967305592015       -8.72815811827896      -22.14605517590811
C            8.42920166154564       -8.34545861558463      -22.96349567707855
C            8.90072744202858       -7.17906536076845      -23.68620283157915
C            8.58263038726916       -5.36277612239239      -25.31003533329410
C            7.77842565914980       -4.65337327226667      -26.28154641085845
C            8.53174195402661       -3.60500764497050      -26.71188146481716
C            9.79027926339806       -3.68931253198058      -26.00348340011421
C           10.83122052479070       -2.79411535687214      -26.17123245419567
H           10.67533655395690       -1.97763136216559      -26.85998378838827
C           14.47579824488049       -4.22981822491417      -23.37602455822467
H           15.47016525741809       -3.86252084255518      -23.17189025380831
C           11.78073728431481       -7.88785158673348      -21.78727589778105
H           11.91874824483397       -8.67538844146135      -21.06199090359014
C            8.15627795662691       -6.48654622615059      -24.62534700112471
H            7.15897987903682       -6.84337785078355      -24.83341597786473
C           15.50305538285732       -1.70124474213760      -24.76360031832451
H           15.61177052394676       -0.81214555548346      -25.37931252006908
H           16.28553398381398       -2.40848915831726      -25.03923677380988
H           15.65356089153882       -1.41825802568339      -23.72212233933270
C           13.03963731899343       -0.73086272843596      -26.64786996152612
H           12.22928433459770       -0.06938699071576      -26.34258421632544
H           12.84661790843552       -1.05334837309873      -27.67128326446908
H           13.96697400196571       -0.16408432944687      -26.63666092576312
C           16.31179595740639       -5.79575077018823      -21.46154779059701
H           16.36850060400157       -5.01434600694229      -20.70274054269346
H           16.84074448319488       -5.44571354028749      -22.34663019160951
H           16.81492903165741       -6.68193586058434      -21.07998195566179
C           14.47139222359744       -8.20032224686514      -20.39094494580247
H           14.01402062630141       -9.16500652382480      -20.57881780319835
C           15.27740074494500       -8.06274249903685      -19.34367491025101
H           15.71609116459418       -7.11692703756752      -19.07951002668478
H           15.49851067517983       -8.89129751127185      -18.69166848113483
C            9.48260462968867       -9.81566917772816      -21.13042140222760
H            9.99175976361778       -9.48216237710587      -20.22805335913929
H           10.00338456807736      -10.69682676792465      -21.50976824365384
H            8.46610364125297      -10.10267704363014      -20.87055481045045
C            7.10602975243465       -8.91640366493836      -23.09626324917587
H            6.31042756529248       -8.20924442085975      -23.29700440779056
C            6.81353291602169      -10.20877706555683      -22.99837521116818
H            7.57062185554580      -10.95797357170452      -22.84428914511646
H            5.80176625321586      -10.56574143781116      -23.09438261493494
C            6.39587688474426       -5.04592957971191      -26.67282989173215
H            5.72988032493458       -4.99886982695876      -25.81141785653174
H            6.38086061368710       -6.06570042821476      -27.05732546437104
H            6.00787880592737       -4.38261252446506      -27.44156974137425
C            8.19632952759534       -2.54567002399574      -27.70451851105242
H            8.22677566453170       -1.56229311970636      -27.23589473461453
H            7.20055886525953       -2.69952554914655      -28.11202584969364
H            8.90970425548395       -2.55061055715435      -28.52885743116646
O           10.69904273966000       -4.27654043417423      -22.70898278230535
O           10.59505718414988       -4.74168355265029      -21.52036800620483
C           13.16154683611269       -7.42951604274162      -29.06147292432543
H           12.57858203190643       -8.21566897621409      -29.54114393967202
H           14.21744341563734       -7.68285024025312      -29.15580579365673
H           12.98008585699782       -6.49466751377671      -29.58251298109883
N           12.90417479767475       -8.31166817299947      -26.73140193675252
H           13.25405225590593       -9.23388519481091      -26.93562500104573
C           12.77955578903734       -7.28642562251888      -27.63449129315152
C           12.47453724157869       -7.85625608873513      -25.53549316661390
H           12.45696401817281       -8.44195084596476      -24.63905025271960
N           12.08699918928451       -6.61168543469476      -25.62303418213590
C           12.26885368757965       -6.23985831726892      -26.92005438010988
H           12.02107223364516       -5.25134193964142      -27.24670792162647
