77
 energy: -118.897082073385 gnorm: 0.177667589379 xtb: 6.7.1 (edcfbbe)
Fe          11.29000000000000       -5.39000000000000      -24.10500000000000
N           12.39800000000000       -3.87100000000000      -24.70499999999999
N           12.83100000000000       -5.98000000000000      -22.84800000000000
N           10.15300000000000       -6.93600000000000      -23.34400000000000
N            9.79800000000000       -4.81300000000000      -25.18100000000000
C           11.99900000000000       -2.89500000000000      -25.60900000000000
C           13.08600000000000       -2.02300000000000      -25.86400000000000
C           14.15600000000000       -2.46500000000000      -25.15200000000000
C           13.72400000000000       -3.60600000000000      -24.42100000000000
C           14.06200000000000       -5.44500000000000      -22.83900000000000
C           14.86500000000000       -6.15300000000000      -21.88900000000000
C           14.09500000000000       -7.13700000000000      -21.34200000000000
C           12.76000000000000       -7.02000000000000      -21.99100000000000
C           10.47300000000000       -7.85600000000000      -22.36900000000000
C            9.41800000000000       -8.76800000000000      -22.21000000000000
C            8.41500000000000       -8.37700000000000      -23.07900000000000
C            8.87000000000000       -7.21100000000000      -23.75100000000000
C            8.55000000000000       -5.33600000000000      -25.24100000000000
C            7.64500000000000       -4.57400000000000      -26.11800000000000
C            8.39700000000000       -3.54100000000000      -26.55399999999999
C            9.73600000000000       -3.68600000000000      -25.94000000000000
C           10.74200000000000       -2.77300000000000      -26.17300000000000
H           10.54000000000000       -1.92400000000000      -26.82500000000000
C           14.52000000000000       -4.33400000000000      -23.57300000000000
H           15.56300000000000       -4.03600000000000      -23.46200000000000
C           11.71100000000000       -7.89600000000000      -21.70900000000000
H           11.86100000000000       -8.65000000000000      -20.93600000000000
C            8.10800000000000       -6.51600000000000      -24.64200000000000
H            7.11800000000000       -6.89500000000000      -24.89600000000000
C           15.54100000000000       -1.84200000000000      -25.08700000000000
H           15.52200000000000       -0.84400000000000      -25.57500000000000
H           16.26900000000000       -2.49000000000000      -25.61900000000000
H           15.84700000000000       -1.71800000000000      -24.02600000000000
C           13.09900000000000       -0.84400000000000      -26.83100000000000
H           12.95200000000000        0.10100000000000      -26.26600000000000
H           12.27500000000000       -0.95400000000000      -27.56800000000000
H           14.07700000000000       -0.80100000000000      -27.35700000000000
C           16.30400000000000       -5.87700000000000      -21.55000000000000
H           16.35700000000000       -5.29300000000000      -20.60700000000000
H           16.77500000000000       -5.28800000000000      -22.36600000000000
H           16.84700000000000       -6.83600000000000      -21.41100000000000
C           14.39600000000000       -8.13000000000000      -20.28400000000000
H           13.79300000000000       -9.04800000000000      -20.23999999999999
C           15.36900000000000       -8.00100000000000      -19.34800000000000
H           16.01200000000000       -7.10900000000000      -19.32999999999999
H           15.52700000000000       -8.78700000000000      -18.59500000000000
C            9.41500000000000       -9.95300000000000      -21.25500000000000
H           10.04400000000000       -9.71700000000000      -20.37000000000000
H            9.83200000000000      -10.84700000000000      -21.76500000000000
H            8.37700000000000      -10.15900000000000      -20.91600000000000
C            7.10300000000000       -8.96600000000000      -23.35700000000000
H            6.30200000000000       -8.33700000000000      -23.77300000000000
C            6.82700000000000      -10.24200000000000      -23.12900000000000
H            7.59300000000000      -10.91300000000000      -22.71400000000000
H            5.82800000000000      -10.64600000000000      -23.35200000000000
C            6.18800000000000       -4.82500000000000      -26.49400000000000
H            5.67300000000000       -5.34300000000000      -25.65700000000000
H            6.13900000000000       -5.46700000000000      -27.39900000000000
H            5.67800000000000       -3.85700000000000      -26.68700000000000
C            7.94800000000000       -2.43700000000000      -27.48700000000000
H            7.53100000000000       -1.59600000000000      -26.89300000000000
H            7.16000000000000       -2.82000000000000      -28.17000000000000
H            8.81500000000000       -2.06700000000000      -28.07600000000000
O           10.55100000000000       -4.22900000000000      -22.34300000000000
O           10.20200000000000       -3.94800000000000      -21.14900000000000
C           14.11000000000000       -7.33900000000000      -28.52300000000000
H           13.55800000000000       -7.72900000000000      -29.40500000000000
H           14.93300000000000       -8.04200000000000      -28.27400000000000
H           14.52700000000000       -6.34000000000000      -28.77200000000000
N           12.50000000000000       -8.30200000000000      -26.83400000000000
H           12.53600000000000       -9.23500000000000      -27.19300000000000
C           13.17600000000000       -7.22200000000000      -27.36100000000000
C           11.80700000000000       -7.88500000000000      -25.78400000000000
H           11.19200000000000       -8.53500000000000      -25.16200000000000
N           11.99100000000000       -6.54800000000000      -25.62200000000000
C           12.88500000000000       -6.15900000000000      -26.57000000000000
H           13.24500000000000       -5.13800000000000      -26.60100000000000
77
 energy: -118.937259817762 gnorm: 0.091874102746 xtb: 6.7.1 (edcfbbe)
Fe          11.26309120106653       -5.35668199207450      -24.03762900653571
N           12.39415018581528       -3.86763123672642      -24.71624489639773
N           12.82846679843303       -6.00450430679295      -22.87539240239225
N           10.15382397888019       -6.93487382039755      -23.35161010033459
N            9.76973915107673       -4.79160099474435      -25.17692824330886
C           12.00566272690125       -2.89339449332714      -25.60574782899273
C           13.09952525453913       -2.01305474336669      -25.87667969895771
C           14.16252754476442       -2.45592133458688      -25.14893832413540
C           13.71316214646849       -3.61247242057768      -24.42504942757059
C           14.06198409827265       -5.45638223266168      -22.83217852430329
C           14.87063951028096       -6.16394070423107      -21.87312943099092
C           14.08783622862297       -7.14330176923918      -21.32348544193062
C           12.77569048257133       -7.02838304838482      -21.99286000329479
C           10.48210052207867       -7.85237128385471      -22.38823404220096
C            9.41205957359160       -8.77773118220163      -22.20589863670881
C            8.40697319344613       -8.39305226560092      -23.06790525623516
C            8.88110962308052       -7.22315517603141      -23.74886234275073
C            8.53461412359660       -5.34722250645481      -25.26270476737060
C            7.65003217410419       -4.56884574363106      -26.12360175032379
C            8.40023940854362       -3.52919594509862      -26.56143267340064
C            9.72228008742109       -3.67495263712856      -25.95374353507602
C           10.74605742744642       -2.77768785659852      -26.17125624355996
H           10.54987725537406       -1.93197695800861      -26.81608871480904
C           14.50305098718171       -4.35248708188356      -23.56770764753390
H           15.53612420422806       -4.04532664131797      -23.45126453386459
C           11.71441532375400       -7.88181680202126      -21.72884364466780
H           11.85572852856753       -8.63078783760764      -20.95912406589483
C            8.11836945343663       -6.51728168571632      -24.65303154430705
H            7.12772896210976       -6.88071564489842      -24.88772910551932
C           15.53321888443436       -1.84677660460529      -25.08480710985425
H           15.52748785712333       -0.86312135476000      -25.56256940067977
H           16.26189074504186       -2.48067584769486      -25.60248090806641
H           15.84675260763957       -1.72273295989277      -24.04431685443928
C           13.09661385825501       -0.84736884893925      -26.82620297079265
H           12.95214798849589        0.08954423520651      -26.27734621727344
H           12.29413920848353       -0.94619007426650      -27.56112238842254
H           14.05387648019916       -0.79667347079351      -27.35281858805076
C           16.30175086638649       -5.87674877499952      -21.55217340950882
H           16.36689971517221       -5.29512298948209      -20.62573900997725
H           16.77861459770088       -5.30198929518355      -22.35097760902404
H           16.84606238929922       -6.81599876357171      -21.41330918821210
C           14.40354967844109       -8.12146087245487      -20.28675629446033
H           13.79386687920187       -9.02238174806566      -20.25275917560491
C           15.36460039873812       -8.00162548894656      -19.36588189485728
H           15.99466024716643       -7.12489728933951      -19.31576682816391
H           15.52001779742240       -8.76894522304257      -18.61599094611509
C            9.41740636919189       -9.93993230194015      -21.25442573502776
H           10.03662524491062       -9.72001082118272      -20.38061302219372
H            9.82216767585626      -10.83189171220840      -21.74845546681875
H            8.40017752878463      -10.15318215507197      -20.91415797732309
C            7.10539565413521       -8.97998415722576      -23.33281687534559
H            6.33106936047351       -8.34205635066029      -23.75646033926698
C            6.81836027044301      -10.25840544423554      -23.12139990586899
H            7.56557679413088      -10.93608554273694      -22.73566172248569
H            5.83732388237284      -10.65675895381602      -23.34602191299978
C            6.21000938250550       -4.83196811923593      -26.47789097184103
H            5.68244341582779       -5.33905275754816      -25.66544566888182
H            6.14350756735513       -5.45632075350256      -27.37696733972405
H            5.69772595697383       -3.88561264265567      -26.67718303072826
C            7.95851050088605       -2.43527477097391      -27.48301528866029
H            7.54165800870700       -1.60205624902187      -26.90593994203623
H            7.18317839520388       -2.80739623980497      -28.15920814561584
H            8.79718227280305       -2.06421346554179      -28.07715342474497
O           10.54425548143039       -4.20854783108067      -22.41171065776404
O           10.22990689529528       -3.99251842413488      -21.19001257167846
C           14.10512341215261       -7.34254263350942      -28.52000171786987
H           13.57150328229755       -7.72560972315661      -29.39714012650054
H           14.92633071938461       -8.02905880819452      -28.28767771239057
H           14.51992624790573       -6.36259923615220      -28.76583920130494
N           12.50251669911973       -8.28851790495841      -26.83185979287683
H           12.53314349382409       -9.22794076020593      -27.19309093875255
C           13.18695369741242       -7.22155922393283      -27.35349999839823
C           11.80198727919585       -7.85905199466090      -25.77333979972393
H           11.18826858860893       -8.50126649299188      -25.16579137130447
N           12.00134346923792       -6.55262098540068      -25.57501685474066
C           12.86857733215874       -6.16113542157123      -26.55769800639143
H           13.22063476656005       -5.14791240669054      -26.60518385386935
77
 energy: -118.965010952639 gnorm: 0.067191553845 xtb: 6.7.1 (edcfbbe)
Fe          11.23628781237629       -5.32959342659447      -23.93431678197609
N           12.38733259109227       -3.85202452552724      -24.70602238063529
N           12.82013862206991       -6.01551708587239      -22.88057529600281
N           10.14614174026172       -6.92888338971296      -23.34887511368515
N            9.73962317677595       -4.76853215775801      -25.16658775111038
C           12.00972981239290       -2.89242872150483      -25.59136197345599
C           13.11179089354249       -2.00509613089699      -25.88525565284099
C           14.16785178225612       -2.44939392459455      -25.14398514688942
C           13.69891526607712       -3.61372391596074      -24.41841140531990
C           14.06218198712992       -5.46340135198917      -22.82136981721730
C           14.87630430099799       -6.17156207786765      -21.85837615899602
C           14.07969373700656       -7.14870773847079      -21.31038535867116
C           12.79196126413229       -7.03534410351411      -21.98586794828604
C           10.48970568721431       -7.84406657185173      -22.40146447239211
C            9.40916629737435       -8.78712757746370      -22.20181055447513
C            8.40262599339075       -8.40932920385967      -23.05899127932460
C            8.88716197396426       -7.22848117942466      -23.74058927657249
C            8.51366156478154       -5.34993768169610      -25.27496368321216
C            7.65468763676958       -4.56689734614314      -26.13313898210152
C            8.40450284647852       -3.51875968858155      -26.56868169273854
C            9.70407023658485       -3.66029816166578      -25.95649478435391
C           10.75030618075412       -2.78307174340905      -26.16005269977508
H           10.56355375378508       -1.94305461892571      -26.80740945334503
C           14.48524256898213       -4.36839118330251      -23.55955347432490
H           15.51031978891933       -4.05123140585764      -23.44219394782153
C           11.71581067011591       -7.87038938804463      -21.74677788558080
H           11.84700896145659       -8.61978097499201      -20.98215572960933
C            8.12507388435846       -6.51252840706232      -24.65415484818988
H            7.13630672519475       -6.87031648430942      -24.87796115702690
C           15.52715963557857       -1.85427385247681      -25.08100769204241
H           15.52984805675075       -0.88104044688364      -25.55346030677899
H           16.25577150407990       -2.48070960278063      -25.58804147608548
H           15.84629767437071       -1.73062452369625      -24.05388120062638
C           13.09456979462411       -0.85197240566841      -26.82146123283562
H           12.95021382037348        0.07922297580909      -26.28274928019080
H           12.30486292215017       -0.94441033912401      -27.55303461797918
H           14.03789551959718       -0.79093069585208      -27.35042053956624
C           16.30043271827387       -5.87563628188674      -21.55394895054207
H           16.37522599494585       -5.29401012126377      -20.63979585464457
H           16.77483868684355       -5.31288679188443      -22.34597971788169
H           16.84525975884618       -6.80212419664850      -21.41341977695420
C           14.40353175756468       -8.11182349522742      -20.28972092778785
H           13.78939402024336       -9.00121453018430      -20.27094430548071
C           15.35368033412997       -7.99618808607721      -19.37413861080434
H           15.98554714687658       -7.13824081260794      -19.30186364696256
H           15.52072075970134       -8.75936209792305      -18.63886415012880
C            9.42262029210635       -9.92793483158223      -21.25306869658830
H           10.03555234073537       -9.71599014942572      -20.38796217397929
H            9.81826465352626      -10.82021772962594      -21.73512460112353
H            8.41749981834790      -10.14504567533845      -20.91495685109036
C            7.11363013109508       -8.99815134735546      -23.31660823382299
H            6.35903686880248       -8.34488149014651      -23.72990757526958
C            6.81340971213278      -10.27869854008264      -23.12118294424225
H            7.53975584897873      -10.96510145082864      -22.74866825070400
H            5.84096033661462      -10.66686361899081      -23.33766045858351
C            6.22978438492149       -4.83784392341669      -26.46824076670812
H            5.70348556021531       -5.33713640522635      -25.66668429524943
H            6.15134669692215       -5.45513367872391      -27.36059239310808
H            5.71441405227134       -3.90564217133444      -26.67077131276782
C            7.96714893393045       -2.43271117381595      -27.48121546719715
H            7.55223525724292       -1.60459046533402      -26.91428040134929
H            7.19933488685040       -2.79696754512652      -28.15288930542060
H            8.78832601679013       -2.06101398746677      -28.07642393894237
O           10.54050952216401       -4.14883826026542      -22.59048365841075
O           10.30695417718632       -4.11580907609823      -21.29945689075441
C           14.10001899033361       -7.34226523933745      -28.51611355408685
H           13.57396177415274       -7.72208737680617      -29.38544674691925
H           14.91803369913653       -8.01983709507638      -28.29385478660404
H           14.51381335723779       -6.37509609415609      -28.75919147005258
N           12.50368798162437       -8.27684257980926      -26.82770382618841
H           12.52855104894917       -9.22207222174876      -27.18575437792147
C           13.19655277376528       -7.21904560190043      -27.34576754630105
C           11.80046993632054       -7.83239692370478      -25.76141162617376
H           11.18678714665824       -8.46919593438609      -25.16479850600674
N           11.99010112127011       -6.55362622018104      -25.56013988177564
C           12.85862181552098       -6.16147094593112      -26.54643258659159
H           13.20472300301038       -5.15439677554801      -26.61168988284427
77
 energy: -118.977374354289 gnorm: 0.084720422816 xtb: 6.7.1 (edcfbbe)
Fe          11.20471364597745       -5.28945749831295      -23.83465297773780
N           12.38453470338769       -3.83342124279140      -24.68999666467500
N           12.80508548720275       -6.00831406697493      -22.86596392784695
N           10.13314928116980       -6.91007961602402      -23.33080789881333
N            9.71357281346817       -4.74724765102287      -25.15852458769571
C           12.00966191057140       -2.88904520212186      -25.57659165216300
C           13.11938587661862       -2.00150608323663      -25.88744408291620
C           14.17110890281446       -2.44687032871981      -25.14038332833402
C           13.69001197938154       -3.60904044877275      -24.40637078073753
C           14.05721070523722       -5.46217850029011      -22.80879722729292
C           14.87667948655714       -6.17264337786907      -21.85037055197001
C           14.07233337622503       -7.14842760100301      -21.30393318344830
C           12.79878011328397       -7.03531967042062      -21.97409529672782
C           10.49310458630682       -7.83204229153085      -22.40258072643800
C            9.41280581663347       -8.79249346802766      -22.20065942360151
C            8.40516488941642       -8.42062145701155      -23.05456615075848
C            8.88660104460472       -7.22492577650269      -23.73015356540934
C            8.49478969642736       -5.34397494449525      -25.27868544652038
C            7.65456713750543       -4.56395602473520      -26.14333953806917
C            8.40453832742228       -3.50946321759075      -26.57470708147022
C            9.68863109654389       -3.64469603953769      -25.95275993028383
C           10.75233192104246       -2.78313296262506      -26.14787655327087
H           10.57599878006008       -1.94845449311994      -26.80371314601642
C           14.47213505830999       -4.37253157018092      -23.54871770782235
H           15.49428220033779       -4.05212963985874      -23.43345131559553
C           11.71469640362588       -7.86380889450205      -21.75454467761156
H           11.84017877878558       -8.62122683103645      -20.99924415814381
C            8.12548363942396       -6.50568558182655      -24.64900314198993
H            7.13816203375551       -6.86689927271589      -24.86807236269460
C           15.52766363552048       -1.86163062373979      -25.07645104293520
H           15.53614050685843       -0.89110420191002      -25.54852622941373
H           16.25632539857386       -2.48887062892313      -25.57798186394755
H           15.84926231434028       -1.73863285072054      -24.05232924262179
C           13.09314163826612       -0.85388826317233      -26.81924198748635
H           12.94561171153716        0.07592925054766      -26.28287129268824
H           12.30643549405423       -0.94552252337319      -27.55038203518322
H           14.03166679284726       -0.78299435313838      -27.35222782519955
C           16.29919141440629       -5.87490857634361      -21.55675055995301
H           16.38308468982800       -5.28762411082688      -20.64952292969054
H           16.77101044430437       -5.32072023113207      -22.35231341980264
H           16.84668652255153       -6.79674899976452      -21.41112735507266
C           14.40289219160277       -8.10998663390030      -20.29505068424789
H           13.78137499991887       -8.99162510027601      -20.28476799771966
C           15.35431277395116       -8.00030181692982      -19.38324139763960
H           15.97683480760693       -7.14053631479180      -19.28342974049385
H           15.51979154288617       -8.76159835338300      -18.65034848506805
C            9.43037084099280       -9.92101695295989      -21.24917603337230
H           10.04211493116156       -9.70824648222895      -20.38700758828546
H            9.82104089205130      -10.81757246599956      -21.72313484048760
H            8.42747646029922      -10.13805006235779      -20.91085286284811
C            7.12094149198615       -9.01432371433262      -23.30058609336524
H            6.37734967851403       -8.34811491901253      -23.70505225436981
C            6.80772067643219      -10.29454937924407      -23.11363967784412
H            7.52545748848276      -11.00142473383538      -22.76669025891361
H            5.83550631207497      -10.67422732108058      -23.33293649210582
C            6.23733459370494       -4.84285577173415      -26.46637011627110
H            5.72060590679509       -5.33977889379466      -25.66114036559900
H            6.15440385207170       -5.46245730898219      -27.35388998658574
H            5.71818295678663       -3.91612541372461      -26.66972765164202
C            7.97138993700495       -2.42573937481563      -27.48457700779684
H            7.55960029327079       -1.59795331397052      -26.91929752749843
H            7.20465361709382       -2.78694546632227      -28.15485823506032
H            8.78812269839773       -2.05378845408596      -28.08125470887775
O           10.61314897153490       -4.18112441573035      -22.76270951343025
O           10.36531015704992       -4.23068479277499      -21.48119453209355
C           14.09513499784110       -7.34078051350783      -28.51005436307404
H           13.56778001466662       -7.71997214029140      -29.37527247414269
H           14.91420671065719       -8.01650143830217      -28.29609363656989
H           14.50922254830514       -6.37713613718293      -28.75415733619484
N           12.50246229589040       -8.27149589280680      -26.82072931007627
H           12.52169342540804       -9.21853820859081      -27.17615497462298
C           13.20053667950901       -7.21554141098104      -27.33595738925677
C           11.79565734409532       -7.81563515572859      -25.75301876802324
H           11.17493379845978       -8.44928306373490      -25.16453978715538
N           11.99055478575578       -6.55237193138041      -25.54925345955017
C           12.85492715604514       -6.15730042405244      -26.53822289128086
H           13.19303191651012       -5.15110636181889      -26.62087868838744
77
 energy: -118.982940074836 gnorm: 0.070447575412 xtb: 6.7.1 (edcfbbe)
Fe          11.21635508418509       -5.30412989587307      -23.87755537766495
N           12.38472991214264       -3.83057033538007      -24.68426707345292
N           12.79590298313124       -5.98957781683882      -22.84625696270164
N           10.12195068211773       -6.88991229948784      -23.31025307736873
N            9.71724032805234       -4.74925771195776      -25.16353921121240
C           12.00574886687219       -2.88373688661606      -25.57304497448029
C           13.11622601477322       -2.00275077230639      -25.87913015121197
C           14.16835754266444       -2.44814542474814      -25.13577755327552
C           13.69042556494023       -3.60139393524947      -24.39610738827152
C           14.04820295587703       -5.45058883947754      -22.79904354223989
C           14.86972781816249       -6.16407795176007      -21.85050415124932
C           14.07002339569450       -7.14038050248614      -21.30439713249637
C           12.78760118370037       -7.02468236967376      -21.96641637498922
C           10.48681026330687       -7.82312615535356      -22.39038769156878
C            9.41952978044966       -8.78862495320710      -22.20167923540324
C            8.41086322197609       -8.42017838919351      -23.05580388792297
C            8.87607383066530       -7.21422867480180      -23.72110301444279
C            8.49565501879897       -5.33613578911218      -25.27113642101837
C            7.65267731432894       -4.56124286812434      -26.14479300420239
C            8.40195713489527       -3.50730376230356      -26.57489911091454
C            9.69074352028461       -3.64131881955593      -25.94730701447203
C           10.75059732635755       -2.77615391580573      -26.14490206977038
H           10.57781361015429       -1.94239390007371      -26.80574879977321
C           14.47029130416492       -4.35945404128926      -23.53879013335041
H           15.49537456906280       -4.04526220113898      -23.42396238582405
C           11.71066924910885       -7.86347368274748      -21.74647044875394
H           11.84166108589433       -8.63360039941350      -21.00309966728588
C            8.11777697445808       -6.50091732744525      -24.64000281267291
H            7.13127308931699       -6.86863403359055      -24.86453923372472
C           15.53359179819979       -1.86645259967532      -25.07042048662623
H           15.54585317624603       -0.89229671186803      -25.54693711913893
H           16.26000861160012       -2.50293219565164      -25.57257617607536
H           15.85273757996505       -1.74386537690178      -24.04016983819987
C           13.09280311581439       -0.85095734714418      -26.81809325117389
H           12.93970681766412        0.08093153002507      -26.27757149071399
H           12.30096159876201       -0.94836929337037      -27.55118276050224
H           14.03585257169615       -0.77714716650392      -27.35244080144873
C           16.29821280961028       -5.87429649217229      -21.55930291253539
H           16.38839425051058       -5.27806250175803      -20.65291206305298
H           16.76904333950435       -5.32453515416563      -22.36626583784257
H           16.84562433864512       -6.80102215409433      -21.40852644665434
C           14.39800896848328       -8.11339721716869      -20.29580067200819
H           13.77868649735338       -8.99996585063064      -20.29116719983610
C           15.35296705094157       -8.00647550207284      -19.37963025034851
H           15.97183218474404       -7.13732215693645      -19.27584393503310
H           15.52100864292438       -8.78097595210023      -18.65445323293213
C            9.43811865425153       -9.92130604567802      -21.24404182870276
H           10.05317421818140       -9.69881760005518      -20.37972028403852
H            9.83128832616765      -10.82181343056886      -21.71651445576228
H            8.42989790969161      -10.13464274975606      -20.90285462765962
C            7.12396560049726       -9.02361963534321      -23.29695007987883
H            6.37030904048158       -8.35400942389771      -23.68453586603116
C            6.80982367258251      -10.30415103880377      -23.11434546209589
H            7.52987562003143      -11.02631329738135      -22.78087551996133
H            5.82575823220837      -10.67662192507171      -23.32635062511859
C            6.23163290547808       -4.84612531478864      -26.47058264777908
H            5.72622730864724       -5.34574933384332      -25.65239789814520
H            6.15393659839493       -5.47549252554778      -27.35594034720227
H            5.70828827044117       -3.91710977512128      -26.67361797350885
C            7.97159738162482       -2.41803272533485      -27.48912730684492
H            7.56311536308900       -1.58547956568886      -26.91976009984674
H            7.20058009397338       -2.77879546509966      -28.16205673142500
H            8.79621072283923       -2.04735187559960      -28.08659125716766
O           10.61687604588961       -4.11168751238153      -22.79308619447531
O           10.37892617511210       -4.28238138146105      -21.49696657465105
C           14.09841558393255       -7.34422246990894      -28.51511817743224
H           13.56244161037052       -7.72310915772782      -29.38104530223946
H           14.92092914942967       -8.02260820386634      -28.30093294920788
H           14.50965169504602       -6.37272438410374      -28.75774143385313
N           12.50530689952861       -8.28466831686844      -26.82609636795285
H           12.52362620308467       -9.22856261659183      -27.18103457081799