72
 energy: -105.980177331274 gnorm: 0.000175116194 xtb: 6.7.1 (edcfbbe)
Fe          13.92749458814216       -0.53164021767922        9.54478617673244
N           12.19246924273822       -1.50642592293830        9.58361769692889
N           13.80703799900971       -0.19552520143450       11.49930802263721
N           15.65584235556003        0.50292609073181        9.46921003639162
N           14.01414010142393       -0.78532652231954        7.54849151667039
C           11.50197960418883       -2.00417123035397        8.52581302225313
C           10.29096930318017       -2.66173566795551        8.96799170003184
C           10.27357636878429       -2.55554785322046       10.32254494646980
C           11.46480522072725       -1.81834699580168       10.68677629997817
C           12.86186931448977       -0.67903666234561       12.34506186037877
C           13.10610184000372       -0.23380484746647       13.69347132020936
C           14.21139552560151        0.56884887998077       13.64022378593477
C           14.65099834432509        0.54945042166080       12.25733581952097
C           16.30475316094126        1.07477829336203       10.52206601862033
C           17.56246322931943        1.63407828235176       10.10362021474808
C           17.67118364271807        1.37987224485376        8.76110831746064
C           16.46104840143598        0.67777960432534        8.38764321495520
C           15.02475080374781       -0.40767761547034        6.71704326035312
C           14.72458529381435       -0.77346936308878        5.35238050495581
C           13.50213709116966       -1.37180603074601        5.37590006765553
C           13.07794108365709       -1.37709117411175        6.75626073794878
C           11.89546562719677       -1.93656445498760        7.20254837876428
H           11.24129108934796       -2.37188501633493        6.46345667729850
C           11.78079005140808       -1.46075534438916       11.98088165750735
H           11.11397155164603       -1.78344176631145       12.76534964266432
C           15.83141689755839        1.11617172833460       11.82091921650820
H           16.45117769765444        1.59468431740779       12.56218266687175
C           16.17890099003356        0.24773357390739        7.10382430434210
H           16.91015953368532        0.45098618230364        6.33748086526113
C            9.26485444119275       -3.05512070556592       11.29803040323764
H            9.73187923117849       -3.71659170149180       12.02791197155899
H            8.47625941521678       -3.60585351083247       10.79135468074906
H            8.81101906194191       -2.22340664622917       11.83706920032987
C            9.30791420394052       -3.31206041806354        8.05679102754219
H            9.77907477265128       -4.11929272528639        7.49502679257376
H            8.91212138059498       -2.58930839953979        7.34326265023436
H            8.47589973793034       -3.72726362931354        8.61978393737173
C           12.25160482546940       -0.55884947601948       14.86847833539921
H           12.14889291510170       -1.63822953873709       14.98110288765425
H           11.25423770514718       -0.13556667494832       14.74531848066218
H           12.68339641692946       -0.15213375805315       15.77935420852007
C           14.81663903856401        1.29452536155695       14.73812539118819
H           14.82038472008893        0.77510960124812       15.69019349855321
C           15.31060739750590        2.52548434655435       14.67246864784944
H           15.28016118600168        3.10602119527547       13.76584403708057
H           15.73973401752256        3.00773040735764       15.53495139209713
C           18.49543341429119        2.39136211390892       10.98092199842638
H           19.12891369292427        1.71014069388377       11.55082086416561
H           17.94474342020136        3.00815850861775       11.68929342394644
H           19.13483356444462        3.03468048565032       10.37973597605775
C           18.73032891146935        1.74011118049018        7.84420798086916
H           18.41716189835779        1.96971785294729        6.83215202899866
C           20.02270421802909        1.79791644750426        8.14738930137688
H           20.39455327866882        1.53405266463905        9.12186487284797
H           20.75962104128423        2.08737462788540        7.41684357206312
C           15.62320873536919       -0.50617814588441        4.19475796443509
H           16.59204051188812       -0.98377135491884        4.34280835435033
H           15.78947088478926        0.56501625360520        4.07705913241989
H           15.19045939188855       -0.88822592700048        3.27363437748151
C           12.70494494513725       -1.93716992520341        4.25162862928065
H           13.21918567870928       -1.79660928179387        3.30426353125047
H           11.73172638515301       -1.45001514739432        4.18985497691038
H           12.53914533640326       -3.00513751716280        4.39677390488516
O           12.90482676248940        1.41843829105543        9.12586844427610
H           12.90158881500188        1.41310119516732        8.16158493846812
H           13.58591127572851        2.04169439765215        9.40390122021707
C           14.35221478759838       -3.86832655776879        9.05306718074766
H           13.52988137391983       -4.16518668275207        9.69554401447057
H           15.05127934637949       -4.69040463893053        8.93430383209344
H           13.96792244847736       -3.53425379762163        8.09553555328527
S           15.19614280189144       -2.48162764304676        9.89182210574852
H           16.08436065900887       -2.27310955369605        8.91399632823248
