72
 energy: -105.914255445230 gnorm: 0.198248931143 xtb: 6.7.1 (edcfbbe)
Fe          13.94300000000000       -0.47300000000000        9.40300000000000
N           12.20600000000000       -1.46300000000000        9.51700000000000
N           13.86200000000000       -0.18800000000000       11.47100000000000
N           15.73500000000000        0.58400000000000        9.36800000000000
N           14.03400000000000       -0.73100000000000        7.50800000000000
C           11.47800000000000       -1.88300000000000        8.41000000000000
C           10.38000000000000       -2.64700000000000        8.87300000000000
C           10.40900000000000       -2.63900000000000       10.23200000000000
C           11.52900000000000       -1.86700000000000       10.62000000000000
C           12.93800000000000       -0.71200000000000       12.27900000000000
C           13.17500000000000       -0.24800000000000       13.60300000000000
C           14.25800000000000        0.58800000000000       13.56600000000000
C           14.65700000000000        0.65400000000000       12.13900000000000
C           16.30400000000000        1.24600000000000       10.40500000000000
C           17.58700000000000        1.67300000000000       10.02700000000000
C           17.74300000000000        1.34500000000000        8.68300000000000
C           16.54800000000000        0.67100000000000        8.28100000000000
C           15.02000000000000       -0.33200000000000        6.67200000000000
C           14.66300000000000       -0.59800000000000        5.26600000000000
C           13.41900000000000       -1.10400000000000        5.28700000000000
C           13.01400000000000       -1.12900000000000        6.70000000000000
C           11.79100000000000       -1.64200000000000        7.08100000000000
H           11.04900000000000       -1.86400000000000        6.31500000000000
C           11.90100000000000       -1.59500000000000       11.92100000000000
H           11.35800000000000       -2.09500000000000       12.72200000000000
C           15.75000000000000        1.36300000000000       11.66800000000000
H           16.21400000000000        2.07500000000000       12.35100000000000
C           16.26300000000000        0.20200000000000        7.02800000000000
H           17.04400000000000        0.24700000000000        6.26900000000000
C            9.45200000000000       -3.35100000000000       11.15700000000000
H            9.91800000000000       -4.29200000000000       11.52000000000000
H            8.51700000000000       -3.59900000000000       10.61100000000000
H            9.22200000000000       -2.70300000000000       12.03000000000000
C            9.37400000000000       -3.36100000000000        8.00700000000000
H            9.79900000000000       -3.51200000000000        6.99200000000000
H            8.45000000000000       -2.75000000000000        7.92400000000000
H            9.13500000000000       -4.35200000000000        8.44800000000000
C           12.42200000000000       -0.63000000000000       14.85700000000000
H           13.00000000000000       -1.39500000000000       15.41900000000000
H           11.43200000000000       -1.05500000000000       14.58600000000000
H           12.28700000000000        0.26500000000000       15.50100000000000
C           14.77400000000000        1.33300000000000       14.74400000000000
H           14.61600000000000        0.91600000000000       15.74900000000000
C           15.42700000000000        2.49200000000000       14.66600000000000
H           15.47600000000000        3.04200000000000       13.71500000000000
H           15.92500000000000        2.91300000000000       15.55200000000000
C           18.57600000000000        2.38300000000000       10.93000000000000
H           19.32600000000000        1.65400000000000       11.30400000000000
H           18.04100000000000        2.82700000000000       11.79700000000000
H           19.10100000000000        3.17900000000000       10.36000000000000
C           18.94000000000000        1.50700000000000        7.82700000000000
H           18.82600000000000        1.51300000000000        6.73300000000000
C           20.17200000000000        1.64900000000000        8.31900000000000
H           20.34200000000000        1.65000000000000        9.40600000000000
H           21.03300000000000        1.76700000000000        7.64400000000000
C           15.49300000000000       -0.38400000000000        4.02600000000000
H           16.07800000000000       -1.30300000000000        3.80800000000000
H           16.19600000000000        0.46100000000000        4.18600000000000
H           14.82900000000000       -0.16700000000000        3.16300000000000
C           12.60300000000000       -1.51000000000000        4.08200000000000
H           13.28300000000000       -1.84900000000000        3.27100000000000
H           12.01300000000000       -0.64200000000000        3.71900000000000
H           11.92200000000000       -2.34500000000000        4.35400000000000
O           12.73700000000000        1.20100000000000        9.17000000000000
H           11.87700000000000        0.95600000000000        9.51100000000000
H           12.96100000000000        1.98900000000000        8.82500000000000
C           14.28100000000000       -3.97000000000000        9.93200000000000
H           14.10400000000000       -4.30400000000000       10.97700000000000
H           14.77300000000000       -4.80200000000000        9.38400000000000
H           13.29400000000000       -3.76200000000000        9.46600000000000
S           15.31900000000000       -2.48900000000000        9.88300000000000
H           15.13000000000000       -2.25800000000000        8.59200000000000
72
 energy: -105.949773939798 gnorm: 0.074157723031 xtb: 6.7.1 (edcfbbe)
Fe          13.95578671405869       -0.48685779117602        9.42314339526288
N           12.21054763962772       -1.45540932890469        9.50486114876920
N           13.84445457951476       -0.16435349259577       11.44784861852773
N           15.70473932083932        0.58578409354130        9.35654800119769
N           14.02276679532627       -0.69820632223583        7.48881001347932
C           11.47884316981490       -1.88373855651601        8.42106224382399
C           10.36325702745477       -2.65067172160970        8.87451855554580
C           10.40273022300497       -2.65131981691604       10.23669381737476
C           11.54895725829148       -1.88128279380942       10.61577534452682
C           12.94557507205535       -0.72160175180899       12.28323257955865
C           13.18055105069125       -0.25303821521977       13.61960848540508
C           14.23350055378449        0.62316505926766       13.56659251154003
C           14.64815848252615        0.65694752443941       12.15164466772219
C           16.29711396100058        1.22583843597425       10.39731039047900
C           17.59338020312313        1.68613199002225       10.01550985389565
C           17.76369832617460        1.33550223065711        8.68990464200627
C           16.55077321293010        0.66118886718059        8.29471573463463
C           15.03756219134465       -0.34439976435267        6.65606257622336
C           14.67197140326343       -0.59916556165278        5.26571127708903
C           13.41155395241586       -1.09125982462544        5.28564447155056
C           13.01156535673350       -1.13490932114885        6.68577870762643
C           11.79797318158223       -1.64648635444556        7.09301734026636
H           11.06497117976642       -1.88516397976954        6.33377586891601
C           11.92074960836580       -1.59655082079438       11.91880053824562
H           11.35622878776993       -2.06784883329076       12.71406716020741
C           15.74575320333196        1.34625399510189       11.66772011000695
H           16.24040896742974        2.02396726605229       12.34884813166106
C           16.26479829458329        0.18878282204398        7.02979110229816
H           17.03035989264267        0.26824937223676        6.26911479160380
C            9.45473044122906       -3.34915835788291       11.15929242906832
H            9.90441846600955       -4.28045423796170       11.52326505492580
H            8.52881186510328       -3.59313180777087       10.63188377505172
H            9.21890842570243       -2.71772106773457       12.02072913461481
C            9.37285970841143       -3.35871505797087        8.00526205974905
H            9.78298991171901       -3.51452102481277        7.00383311087130
H            8.45427263302715       -2.76802376165048        7.91927467000444
H            9.12851525765193       -4.33496518690005        8.43387407161030
C           12.42278159312674       -0.63247186780783       14.85425103910158
H           12.98640441880133       -1.38420422404748       15.41860128292756
H           11.44443527632371       -1.04864213843709       14.60076064934587
H           12.27939574891683        0.24411989275131       15.49263269162920
C           14.78197252610126        1.33538385855841       14.72111962970082
H           14.63412156793751        0.88548540588903       15.70371484280936
C           15.42642618393918        2.49812192116260       14.66703904626202
H           15.49056871789346        3.05882928022332       13.74538847001496
H           15.88857401124360        2.92872981571116       15.54761888406668
C           18.56495739862816        2.38511070907931       10.92023454858035
H           19.30546455543908        1.67260303209346       11.30443240260460
H           18.05238563510470        2.82630432188283       11.77929461067653
H           19.09195122056921        3.17346921082197       10.37390221746212
C           18.93926600820676        1.51301618262733        7.84351843007556
H           18.80175035554615        1.50443106893051        6.76244762739772
C           20.17443426077035        1.65738755034379        8.31656989468537
H           20.36909027363334        1.63735818400650        9.37845650914217
H           21.02358360887513        1.76510295251779        7.65285366289150
C           15.50214303449648       -0.38158644851803        4.04062021294534
H           16.07886643432967       -1.28528442268856        3.80993241263300
H           16.19565925183253        0.45122801153499        4.17770350384779
H           14.85391076517681       -0.16378981192457        3.18612208738532
C           12.60167948945994       -1.50920667725312        4.09637434211196
H           13.26403139653612       -1.84502587690464        3.29195679064874
H           12.01273292070569       -0.66320601755180        3.72438009700434
H           11.92493729501678       -2.33086053098219        4.34588421076798
O           12.73541965651481        1.19715120254813        9.17297958920951
H           11.86288790703384        0.98140213148267        9.50385291973461
H           12.95493373524257        2.03721598540578        8.81111108330795
C           14.26905335450190       -3.98405440427398        9.92640111837436
H           14.11428157186116       -4.28495460438094       10.96639987634773
H           14.76571973231217       -4.79792967941150        9.38962005244627
H           13.30058119274365       -3.76441669299903        9.47059141401295
S           15.32544698180233       -2.50972421839845        9.88201144712196
H           15.16391560107526       -2.28995000495283        8.57969601738589
72
 energy: -105.961364444694 gnorm: 0.027544349586 xtb: 6.7.1 (edcfbbe)
Fe          13.94857438268513       -0.45806088896210        9.44079226270623
N           12.22470114774204       -1.46468568202945        9.49997288338456
N           13.83900115954389       -0.15700179575117       11.42783598157676
N           15.68764310967229        0.56893583348610        9.35552011543946
N           14.02236625548379       -0.68896742956011        7.47581655636613
C           11.48885594798945       -1.89006285756647        8.43383438406582
C           10.35586930854198       -2.65546068561846        8.87884385287672
C           10.40583603171441       -2.66515639273929       10.24234015778437
C           11.57003787786505       -1.89788759473808       10.61496417833984
C           12.95311937220377       -0.72933944205512       12.28333632743562
C           13.18725831842799       -0.25874876818657       13.62636240075866
C           14.21995104350766        0.64258749179403       13.55831782322634
C           14.63502393879209        0.66332684723922       12.15663828927006
C           16.28775501583678        1.20280202554057       10.39574194052057
C           17.59268330412268        1.68408584627537       10.01517751623782
C           17.77433577061738        1.31623504442368        8.70311254762231
C           16.54873893003491        0.64719086751174        8.30827135660370
C           15.04947136632089       -0.35377093997639        6.64329917396190
C           14.68255619876171       -0.60708012878501        5.26671795434634
C           13.41001789555346       -1.08698161982112        5.28598875861073
C           13.01494171485547       -1.13935437243549        6.67506517841190
C           11.80961728757989       -1.65254784351848        7.10728483565273
H           11.08655565633940       -1.92277798121225        6.35311359490257
C           11.93412988613454       -1.59475539597744       11.91670833378124
H           11.34695525905285       -2.03868435400831       12.70770635630948
C           15.74223491070105        1.32942770506439       11.66769472467078
H           16.28391772581834        1.95641876573042       12.35933585674267
C           16.26156107402829        0.18697743061162        7.03286536767784
H           17.01787466786075        0.29714963312716        6.27104588035783
C            9.46016530174590       -3.34805412541931       11.16680001777573
H            9.89711008874718       -4.27521279293693       11.53670210606187
H            8.53766581805090       -3.58829348165027       10.64783307478385
H            9.22156319165009       -2.72072629340301       12.02029422230386
C            9.36987448666810       -3.35365937404500        8.00553544887495
H            9.77375008345114       -3.51205965291872        7.01124360443926
H            8.45278964100073       -2.77363675728026        7.91507935365417
H            9.11854873089119       -4.32309714820183        8.42718583200313
C           12.42381100352988       -0.63548442547034       14.84943749564952
H           12.97573335013858       -1.38242716227022       15.41914039235663
H           11.45077482387037       -1.04617949963877       14.60293252553905
H           12.27618640021186        0.23263926923649       15.48590188579414
C           14.78588551559884        1.34005426409583       14.69168047846966
H           14.65594334089170        0.84910711626931       15.65243414331661
C           15.41394038192199        2.51344676438038       14.66722902583872
H           15.50379986489456        3.08869918886758       13.76609408009424
H           15.84912724075642        2.94326218964265       15.55200681585286
C           18.54781156456940        2.38812932979462       10.91580895975969
H           19.28347550609814        1.68492156164978       11.30817817809266
H           18.04147101950105        2.83501112982596       11.76497031536228
H           19.07801095463066        3.16829342925848       10.37507644032914
C           18.93344598178260        1.50282606428050        7.86094600426805
H           18.76736273879993        1.49927979191751        6.78992698481746
C           20.17776159715904        1.64852903548508        8.31059482246110
H           20.40279111247215        1.62771528229019        9.35747120787852
H           21.01167383482332        1.77613643528618        7.64508775661684
C           15.51525206477911       -0.38079550932448        4.05246416464413
H           16.09288131128059       -1.27430401049488        3.81621834527981
H           16.20202728470089        0.44731522920837        4.18500918613130
H           14.87548370946590       -0.16021646915375        3.20162600870559
C           12.59901052584543       -1.50735326872693        4.10782761387446
H           13.25235791395978       -1.84292945361315        3.30667614568441
H           12.00563146243944       -0.67381554721041        3.73272402286210
H           11.92535617685692       -2.32110770338526        4.35477554639161
O           12.72638007349451        1.23481007494215        9.16984003047990
H           11.83521939813254        1.05840783889147        9.48005110418981
H           12.92707931642850        2.09497484139770        8.79974866808656
C           14.25915441283414       -3.99502073377747        9.92126198568018
H           14.12156010037114       -4.26373187136760       10.96311297284081
H           14.75527037849754       -4.80364315849194        9.39590030440231
H           13.30175455845219       -3.76783669681231        9.47136317192575
S           15.32900016412511       -2.51954764081832        9.86383979799935
H           15.23252301669280       -2.34823937817231        8.54026516878664
72
 energy: -105.965958174568 gnorm: 0.022358866452 xtb: 6.7.1 (edcfbbe)
Fe          13.95117774786651       -0.45779708104486        9.45562292639126
N           12.22918862897261       -1.46645604546490        9.50312200032581
N           13.82666725008416       -0.14392419424852       11.41462392689523
N           15.67455976254072        0.56001621190518        9.35923446178548
N           14.02253377810215       -0.68371858493725        7.46926440773710
C           11.49845665803715       -1.89669726925115        8.44143930516224
C           10.35681917921012       -2.65991862219105        8.88388250311502
C           10.41065361350929       -2.67285490682745       10.24671299298093
C           11.57624004276596       -1.90208968085505       10.61767199528972
C           12.94747131842221       -0.72127652219025       12.28003794772797
C           13.18620208637875       -0.25591540714164       13.62410048235602
C           14.21356513483259        0.65036315783318       13.54791258586567
C           14.62286696131816        0.67083164651429       12.15505335522819
C           16.27948718406965        1.18704918352095       10.40079449992442
C           17.58764004170847        1.67078321493839       10.02328116326243
C           17.77314512676539        1.29756285255058        8.71653217413169
C           16.54199672343857        0.63572523045055        8.31765444596509
C           15.05060060639139       -0.35051460846060        6.63662341110221
C           14.68735423853389       -0.60795029892661        5.26565178713103
C           13.41136031279820       -1.08581842911021        5.28503464732925
C           13.01810177733454       -1.14032718655635        6.66981525095561
C           11.82171656633393       -1.66702196280800        7.11535316223413
H           11.10607913552135       -1.96705712483267        6.36460713453716
C           11.93201682622079       -1.58753351920039       11.91678204087392
H           11.33376954257563       -2.01762047940115       12.70588836064227
C           15.74770189545071        1.31018519747002       11.67408244386428
H           16.32827966784940        1.88915577697141       12.38041749111316
C           16.25728271397124        0.19162458924320        7.03658728328782
H           17.01049356238795        0.32446320052297        6.27487011735377
C            9.46558618210077       -3.34741962250334       11.17734797063895
H            9.89758682738357       -4.27320233330490       11.55736742025391
H            8.54135906072989       -3.58872665854884       10.66097335495259
H            9.22689482474901       -2.71323390639597       12.02643050534067
C            9.36690136348689       -3.34889963459556        8.00800567228226
H            9.76979166830550       -3.50918573835225        7.01348944585275
H            8.45152363422712       -2.76563327441941        7.91477028866623
H            9.10613492767133       -4.31765704304921        8.42749627978634
C           12.42417531928042       -0.63804695729582       14.84519978502465
H           12.97165155016044       -1.38802345898940       15.41649473164553
H           11.45025973266326       -1.04675589988039       14.59750486616583
H           12.27615750690301        0.22848057923160       15.48468850692892
C           14.79375802987549        1.34251590277688       14.67251800574255
H           14.67701335993599        0.82534495730725       15.62017647134109
C           15.40529298012227        2.52510973086779       14.66918008796826
H           15.49058265532830        3.12917243137721       13.78466984324752
H           15.80861319483498        2.95704724695015       15.56948868831845
C           18.53265067939510        2.39054516727670       10.91763876125779
H           19.26735261139163        1.69476595502799       11.32499459754078
H           18.01975878375646        2.85334298106671       11.75475249717255
H           19.06539709389812        3.16264346628280       10.36695150786402
C           18.92384414723006        1.49664459815851        7.87049330791985
H           18.73639839499968        1.49287274957549        6.80385026210183
C           20.17582074998569        1.65124962751392        8.29787615682834
H           20.43384203361943        1.60388338921830        9.33957980103332
H           20.99734317400389        1.78300158314832        7.61701807254251
C           15.52949063766871       -0.37909788907102        4.05883090613638
H           16.11457190881137       -1.26852031710038        3.82477692017053
H           16.21316932193604        0.45098445644060        4.19975574753081
H           14.89659211073454       -0.15701689618542        3.20346662987286
C           12.59479191894444       -1.50756446208474        4.11295552496511
H           13.24319243441829       -1.84322009221009        3.30822073106117
H           11.99437949389624       -0.67720150036961        3.74102275076915
H           11.92286133665090       -2.32079386484301        4.36815185894637
O           12.73318163873080        1.27118690230047        9.17518068538295
H           11.81743678526385        1.13473548986012        9.44573228263521
H           12.91925764972379        2.13092454996042        8.78570143976951
C           14.25499135354342       -4.00017325050454        9.91469190978614
H           14.12626541735181       -4.23775329310655       10.96544100756758
H           14.74336545072122       -4.82118398110330        9.40340139289687
H           13.29881608377913       -3.76763343034048        9.46621057416797
S           15.34700741937728       -2.53412240514370        9.82945171661490
H           15.31951046901868       -2.42665419341633        8.48739672873952
72
 energy: -105.968657068102 gnorm: 0.021800315367 xtb: 6.7.1 (edcfbbe)
Fe          13.94745309694910       -0.44547865984288        9.46370327084279
N           12.23403497521286       -1.46982736150994        9.50966163897480
N           13.82599108838381       -0.14818609527239       11.41097186366664
N           15.67039213766057        0.54768548792081        9.37063466093196
N           14.02357757914545       -0.68285646509810        7.46572784735414
C           11.50997733014221       -1.90751156774271        8.44657522547905
C           10.36320607712817       -2.66794849215867        8.88927449229513
C           10.41586726678179       -2.67869306456882       10.25074850517002
C           11.57844885850682       -1.90444366718560       10.62204872063277
C           12.94195355009810       -0.71580115234587       12.27874371015345
C           13.18234627450592       -0.25390806629178       13.62134699722927
C           14.21178108009654        0.64824427406655       13.54307093579121
C           14.62141037653052        0.66406880566960       12.15655900002515
C           16.28011493288297        1.16791194960760       10.41399887564086
C           17.58647118191029        1.65166637246955       10.03530323238312
C           17.76952095805687        1.27936954690868        8.72927855590731
C           16.53512491776540        0.62507504208419        8.32705127509018
C           15.04910996611843       -0.34610172557662        6.63379843274674
C           14.68984576940195       -0.60591791696753        5.26332024859510
C           13.41553210617071       -1.08973018975105        5.28263796069622
C           13.02359071732710       -1.14733579549801        6.66715047031726
C           11.83614992247973       -1.69055272822142        7.12016633012224
H           11.12679402188011       -2.01554447436590        6.37325175056582
C           11.92441872700815       -1.58135317669079       11.91919636690001
H           11.31825394559560       -2.00128909010910       12.70712006816070
C           15.76465501175598        1.28056983592758       11.69083265400615
H           16.35700334812957        1.82740826291806       12.40778830586693
C           16.25314018841965        0.19812864091595        7.04190905962455
H           17.00626251818233        0.34618802985040        6.28289961035668
C            9.47033742157730       -3.34481942397155       11.18928796493939
H            9.90169880205887       -4.26728271539136       11.58183691408851
H            8.54396658585530       -3.59189733228738       10.67619044921309
H            9.23251534167953       -2.69947075465012       12.03268915953807
C            9.36487611681064       -3.34528616815581        8.01243222698854
H            9.76587164124823       -3.50976932253902        7.01604620643953
H            8.45559307289776       -2.74968283579646        7.91820553623148
H            9.09034291178125       -4.31259396640079        8.43105435216243
C           12.42102676875913       -0.63944457903977       14.84239041538416
H           12.96711060051061       -1.39427210090791       15.41141179095261
H           11.44536970838851       -1.04656457664054       14.59178552638372
H           12.27485018299638        0.22591190286508       15.48650648167560
C           14.79133704449554        1.34941410052547       14.66342597059772
H           14.69996127139333        0.81218706878243       15.60293256039031
C           15.37632912690071        2.54429359962440       14.67066119966513
H           15.47209171271260        3.15526068821550       13.78973442258022
H           15.78243635579090        2.96210255505324       15.57512223111843
C           18.52315064267806        2.39355505562611       10.92034407255654
H           19.25686271062856        1.70924102953201       11.35156839842676
H           17.99890286235691        2.87948882029659       11.74023570717104
H           19.05805601834157        3.15341096938083       10.35173238390109
C           18.91444111317057        1.48288342742545        7.87560718832215
H           18.70791950218984        1.49720362692197        6.81203907565240
C           20.17310185532084        1.63471349610002        8.28197533850298
H           20.45614858512121        1.59462363429902        9.31858493123200
H           20.97777755030707        1.79736022264389        7.58272173654800
C           15.54407640216206       -0.37465975997724        4.06399597069494
H           16.13935965921610       -1.26093880209600        3.83755548436084
H           16.22393060034759        0.45934188480843        4.21710176243679
H           14.92172713031419       -0.15414946864941        3.19922713074908
C           12.59066727140404       -1.51012895294661        4.11515267248713
H           13.23210940147723       -1.84266624308481        3.30227241202485
H           11.98178694021502       -0.68031096428698        3.75204856662482
H           11.92228334711948       -2.32629391811009        4.37842869279665
O           12.73905826232749        1.32937895543147        9.19175965486077
H           11.79745945883692        1.22134651187319        9.39593410565946
H           12.90187135366295        2.17437043929388        8.75678218038011
C           14.25445026003887       -3.99879013708266        9.90494589167611
H           14.13012866213560       -4.20424929921265       10.96450760072153
H           14.73245597553847       -4.84002398167119        9.41360711972609
H           13.29692593185105       -3.76839306868036        9.45522696959503
S           15.35869710083266       -2.53955522432778        9.78268477574523
H           15.39650881232266       -2.50868095193491        8.42947670327123
72
 energy: -105.969949975954 gnorm: 0.020179566335 xtb: 6.7.1 (edcfbbe)
Fe          13.95180927423988       -0.45046644447412        9.46616999009490
N           12.23402444213365       -1.46817092540372        9.51444498652793
N           13.82709246180352       -0.15479313916411       11.41346132877601
N           15.67111653211373        0.53961328083976        9.38121592134843
N           14.02255278092505       -0.67961714995603        7.46337372008947
C           11.51679721435988       -1.91549839611037        8.44783311973252
C           10.36972553334023       -2.67527373964430        8.89258694152016
C           10.41743061589151       -2.67909884790594       10.25317228130761
C           11.57458011341910       -1.90030027699701       10.62500481809441
C           12.93542756036287       -0.71079653337085       12.27945459102540
C           13.17534858927237       -0.25053675348802       13.62050676000473
C           14.21498013410733        0.63867438995834       13.54442980458751
C           14.62609896310008        0.65229561439369       12.15934383316327
C           16.28670196701862        1.15214891626207       10.42636548129529
C           17.58922039565906        1.63484095258852       10.04448155785527
C           17.76530767486199        1.27116129046053        8.73537334487006
C           16.53044359132316        0.61964303333532        8.33290257039209
C           15.04496477423285       -0.33738173051541        6.63302483532548
C           14.68989517195318       -0.60119086762654        5.26058966567842