72
 energy: -105.901437624223 gnorm: 0.267702177310 xtb: 6.7.1 (edcfbbe)
Fe          -6.29800000000000       24.89000000000000        7.54700000000000
N           -4.54100000000000       23.87800000000000        7.26700000000000
N           -5.96500000000000       24.97400000000000        9.60300000000000
N           -8.10700000000000       25.79300000000000        7.86200000000000
N           -6.71400000000000       24.64000000000000        5.56400000000000
C           -3.95500000000000       23.46600000000000        6.10900000000000
C           -2.70300000000000       22.94000000000000        6.29500000000000
C           -2.50300000000000       22.89600000000000        7.67400000000000
C           -3.66700000000000       23.48900000000000        8.24200000000000
C           -4.91800000000000       24.42500000000000       10.22800000000000
C           -5.02500000000000       24.74299999999999       11.64600000000000
C           -6.15900000000000       25.44500000000000       11.79400000000000
C           -6.75100000000000       25.63300000000000       10.46200000000000
C           -8.57000000000000       26.39600000000000        9.01300000000000
C           -9.75200000000000       27.07100000000000        8.72100000000000
C          -10.09500000000000       26.76800000000000        7.39900000000000
C           -9.04700000000000       25.97900000000000        6.88500000000000
C           -7.96800000000000       24.79300000000000        4.98400000000000
C           -7.94200000000000       24.30600000000000        3.56600000000000
C           -6.66500000000000       23.87500000000000        3.40000000000000
C           -5.91900000000000       23.92000000000000        4.69000000000000
C           -4.64300000000000       23.56400000000000        4.87900000000000
H           -4.07000000000000       23.32300000000000        3.98400000000000
C           -3.81700000000000       23.72100000000000        9.62800000000000
H           -3.04100000000000       23.33800000000000       10.29100000000000
C           -7.88200000000000       26.30800000000000       10.21700000000000
H           -8.31200000000000       26.85000000000000       11.05900000000000
C           -9.01300000000000       25.44700000000000        5.55800000000000
H           -9.90800000000000       25.57800000000000        4.95000000000000
C           -1.32300000000000       22.35100000000000        8.37500000000000
H           -0.65200000000000       23.18400000000000        8.67500000000000
H           -0.76700000000000       21.66700000000000        7.69800000000000
H           -1.64700000000000       21.80300000000000        9.28600000000000
C           -1.75300000000000       22.47700000000000        5.25900000000000
H           -1.90600000000000       23.06200000000000        4.32700000000000
H           -1.92900000000000       21.40200000000000        5.04200000000000
H           -0.71000000000000       22.62700000000000        5.61200000000000
C           -4.00800000000000       24.29400000000000       12.71100000000000
H           -3.21300000000000       25.06300000000000       12.81200000000000
H           -3.54200000000000       23.33299999999999       12.40400000000000
H           -4.51900000000000       24.17300000000000       13.69000000000000
C           -6.76500000000000       26.08200000000000       12.98900000000000
H           -7.82900000000000       26.35900000000000       12.97400000000000
C           -6.07800000000000       26.34200000000000       14.10100000000000
H           -5.01100000000000       26.08600000000000       14.17100000000000
H           -6.57000000000000       26.81600000000000       14.96300000000000
C          -10.49800000000000       27.96800000000000        9.65200000000000
H           -9.87900000000000       28.16400000000000       10.55400000000000
H          -11.44600000000000       27.48000000000000        9.96400000000000
H          -10.71600000000000       28.93400000000000        9.14800000000000
C          -11.26000000000000       27.22700000000000        6.62000000000000
H          -11.33400000000000       26.90000000000000        5.57300000000000
C          -12.22700000000000       27.99000000000000        7.04200000000000
H          -12.23300000000000       28.36300000000000        8.07700000000000
H          -13.05100000000000       28.27100000000000        6.36900000000000
C           -9.12600000000000       24.46200000000000        2.59600000000000
H           -9.36100000000000       25.54000000000000        2.46800000000000
H          -10.01900000000000       23.94500000000000        3.00800000000000
H           -8.86000000000000       24.03200000000000        1.60700000000000
C           -6.03800000000000       23.26300000000000        2.15100000000000
H           -6.79800000000000       23.20900000000000        1.34300000000000
H           -5.67800000000000       22.23699999999999        2.37600000000000
H           -5.19200000000000       23.89600000000000        1.80700000000000
O           -7.35200000000000       22.70100000000000        7.91500000000000
H           -7.57300000000000       22.66800000000000        8.84600000000000
H           -7.50300000000000       22.06200000000000        7.31500000000000
C           -3.72900000000000       27.07800000000000        6.80100000000000
H           -3.12400000000000       27.90300000000000        7.23400000000000
H           -3.72000000000000       27.18800000000000        5.69600000000000
H           -3.24300000000000       26.11700000000000        7.07400000000000
S           -5.42300000000000       27.11600000000000        7.41600000000000
H           -5.10700000000000       26.74800000000000        8.64900000000000
72
 energy: -105.951267245783 gnorm: 0.114536157366 xtb: 6.7.1 (edcfbbe)
Fe          -6.33762497402397       24.82201589797925        7.54986934847864
N           -4.55445005936333       23.87796040156124        7.27843276645076
N           -5.95574720547124       24.95927084782589        9.57541827266785
N           -8.10801271842471       25.76363960597945        7.84409513715888
N           -6.74578783483797       24.59230247569684        5.58531990380608
C           -3.97854635771253       23.49531105793228        6.10271011976220
C           -2.70241145133931       22.93965688616009        6.30621020506676
C           -2.51054618672694       22.90052833128942        7.67318224076557
C           -3.67421943489338       23.50784526906688        8.25628358629761
C           -4.90439897613313       24.42169029509595       10.22697345630147
C           -5.01386243694918       24.73201557480349       11.64832949434159
C           -6.15444662525372       25.46156215611322       11.80154706902710
C           -6.74074651166120       25.61168633028624       10.46470007041607
C           -8.55227853685544       26.39995112884038        8.98112422694370
C           -9.76395998083561       27.07627567827944        8.70741079204176
C          -10.10253501646635       26.78036782149506        7.39290207141786
C           -9.04494023548515       25.96902395347880        6.88018892863736
C           -7.95699577101328       24.80693943186720        4.97984248163068
C           -7.92996442309273       24.32177011194090        3.57970870781344
C           -6.67006092526461       23.85908573165509        3.39206099878153
C           -5.93450556716206       23.97688359337019        4.66478260165984
C           -4.64034103464144       23.59273255835182        4.86714201077131
H           -4.07440466977267       23.29647690812292        3.98873242966431
C           -3.83453948409809       23.73208623125887        9.62800419147716
H           -3.05869572855370       23.35375156284040       10.28257017980524
C           -7.88520659854437       26.31195316872094       10.20284749316492
H           -8.32443388955899       26.84192292771015       11.04196745509899
C           -9.00933299899444       25.45360467377243        5.56807532767393
H           -9.89975236033092       25.58523636319337        4.96487561186259
C           -1.32551575869430       22.35455649187934        8.37929785673465
H           -0.65186614622485       23.16765233135922        8.68067812144586
H           -0.77309012219856       21.67562545630285        7.72084032151644
H           -1.63088480749119       21.80698056319837        9.27735017930946
C           -1.75365003129706       22.47668865093842        5.25947656231654
H           -1.89505046753689       23.04802947152515        4.33553190938894
H           -1.91579880850557       21.41465955164087        5.03667790582129
H           -0.72164042052683       22.61616483696454        5.59734818620390
C           -4.01854573037314       24.29238648777558       12.69656970991152
H           -3.22848143601633       25.04658374407564       12.80651254026183
H           -3.55156575756113       23.34596394995281       12.40919099605328
H           -4.51162001682276       24.16275103182310       13.66518459907196
C           -6.75002579738889       26.07211001050722       12.99189430450573
H           -7.80498919396565       26.34254839020557       12.95753332011124
C           -6.07647866285612       26.33955446304668       14.10608587631494
H           -5.02305034789468       26.11286322998928       14.18691282036919
H           -6.55937526367878       26.80890029968008       14.95535553130209
C          -10.49400202026212       27.96348541782372        9.65730050731841
H           -9.89017913555629       28.16131450469268       10.54833959397334
H          -11.43699291133219       27.49688211380507        9.96882194888691
H          -10.70731888008515       28.92345723473345        9.17399992481323
C          -11.25339206806238       27.22443446117992        6.62029821437033
H          -11.30932763770354       26.89030085929776        5.58500017971051
C          -12.24222021460489       27.99625161757132        7.04482697345181
H          -12.27154321065236       28.36801230195814        8.05669999646911
H          -13.05148547051139       28.27638956405969        6.38200460108325
C           -9.09523378094735       24.46090815342045        2.61986699553103
H           -9.34674680601635       25.51917426576789        2.47656461742783
H           -9.98791960787132       23.95424377321587        3.00750086453216
H           -8.85780840082878       24.03691861279620        1.63751095563742
C           -6.04929568035867       23.26431987974425        2.15591511933611
H           -6.78605807684936       23.20776960863122        1.34974392282029
H           -5.68103251227719       22.25468588902705        2.36793917774238
H           -5.20874022318508       23.88083872452262        1.81437564944175
O           -7.33558756508244       22.74289836044886        7.92518110987395
H           -7.57504825659782       22.66524668185509        8.84615498835864
H           -7.50463198569068       22.05601069572755        7.30524920275720
C           -3.70917889375491       27.07398563717171        6.79844942085102
H           -3.13452864261827       27.90047895534426        7.23139560169078
H           -3.72513765976362       27.18252135506516        5.71057574734406
H           -3.24359381783414       26.12134286799249        7.06432646887385
S           -5.41512722935539       27.09860645106276        7.40390287564561
H           -5.09549254970511       26.78395607753184        8.65730742243482
72
 energy: -105.966397376168 gnorm: 0.033441632525 xtb: 6.7.1 (edcfbbe)
Fe          -6.35275741324582       24.79494787503743        7.54650914738364
N           -4.57062097311062       23.88016787101595        7.28738014418831
N           -5.97002208460086       24.92960294884237        9.55094552640529
N           -8.10830235441826       25.73219375665809        7.82587890234322
N           -6.76110410210967       24.56233394673976        5.59797072456355
C           -4.00706844584857       23.51702560430325        6.10057538753542
C           -2.70781069785863       22.94456129852284        6.31690549803017
C           -2.52005370993016       22.90893707932714        7.66940409535893
C           -3.68766027128618       23.51963553636141        8.26472680303612
C           -4.90689316664755       24.41088035510429       10.22338507143980
C           -5.00857097797385       24.72253777481558       11.63855294078804
C           -6.15170617690222       25.47099449445610       11.79451821599760
C           -6.74008123931341       25.58647893802137       10.46264820388781
C           -8.53409912730087       26.38630563245569        8.95272166382527
C           -9.76447984863660       27.07669502416431        8.69629161597651
C          -10.10918507329160       26.78912876398914        7.39161034316034
C           -9.04737825930484       25.95069618563992        6.87645027057700
C           -7.94927182331100       24.80083852826014        4.98747071826449
C           -7.91539952883998       24.34960790036918        3.59848021626614
C           -6.66311974567519       23.86651772900894        3.39315522203641
C           -5.95355678194351       23.99942760021356        4.65820978211058
C           -4.64820071597420       23.59572586822340        4.86783147713605
H           -4.08674114797251       23.27016378994378        4.00177475681432
C           -3.85406517421585       23.73803303381894        9.62507513815398
H           -3.06975922531055       23.37238369395649       10.27169844049810
C           -7.88854294618447       26.30565675140183       10.18426186166135
H           -8.33500812356601       26.83277849767916       11.01516345824807
C           -9.01201540746802       25.44664299871581        5.58123126418144
H           -9.88867811881472       25.59883065822712        4.96982876249175
C           -1.33195035240502       22.36226245592397        8.38560197855766
H           -0.65757032178965       23.16357044352461        8.68975507415174
H           -0.78204928871310       21.68605403124095        7.73714070956509
H           -1.62838527679811       21.81366460388992        9.27548579463686
C           -1.76073489373451       22.47950970587965        5.26086167376535
H           -1.89576281146674       23.04316014962945        4.34213546158890
H           -1.91424389856382       21.42392980417586        5.03663680240073
H           -0.73368391147105       22.60999914298801        5.59040322089023
C           -4.02987676916255       24.28855796815505       12.67503904269954
H           -3.24276853361623       25.03478009371775       12.79663657031044
H           -3.55909935334975       23.34961575043950       12.39984794059515
H           -4.51805975282666       24.15322836183332       13.63634602544559
C           -6.72848700235764       26.06484118590387       12.98210035546230
H           -7.78121573309160       26.31512012651336       12.93377372690634
C           -6.06920787377966       26.34402456207861       14.10350361639314
H           -5.02169511382886       26.14340023066087       14.20536653834039
H           -6.55782926006508       26.79376371453352       14.94912841627308
C          -10.48025448436514       27.95764515516291        9.66273845976770
H           -9.88435109025539       28.14578928244537       10.54918622913415
H          -11.42356799027610       27.50649557556009        9.97062587320830
H          -10.69317998808842       28.91755193620558        9.19647280813272
C          -11.24861863193932       27.22439212508856        6.62485934943145
H          -11.28453722966241       26.88598418705383        5.59736961839885
C          -12.25314763773821       27.99660278141054        7.04407817677387
H          -12.31192652738818       28.37139327923856        8.04239094621397
H          -13.05231521476034       28.27210390738610        6.38197157247398
C           -9.06525897664737       24.46374894312142        2.64769465372202
H           -9.32756979733900       25.51082249012404        2.49516754827835
H           -9.95161936325859       23.95524769580687        3.02704693554835
H           -8.82985985944141       24.03753660336989        1.67505103559083
C           -6.05832396440410       23.27150805033894        2.16642434374209
H           -6.78428115144714       23.21309426958882        1.36202090512330
H           -5.68747429299693       22.26822032216093        2.36802120419224
H           -5.21934255347602       23.87583558310350        1.82435941054655
O           -7.31228027828539       22.79562208813259        7.93159678626378
H           -7.58189430553081       22.65141973951683        8.84144590699836
H           -7.49721382554870       22.08469986726845        7.31410653337528
C           -3.68816081401472       27.06658568264957        6.79040220567130
H           -3.14143953880019       27.89595678955583        7.22865029659927
H           -3.72271509236345       27.17625690850292        5.71343739771808
H           -3.23554741241301       26.11946636805431        7.05378058365112
S           -5.40814909297024       27.09658248582968        7.38576092788358
H           -5.09419807851367       26.84222541696264        8.66192169121795
72
 energy: -105.969883247495 gnorm: 0.019470331115 xtb: 6.7.1 (edcfbbe)
Fe          -6.36187317866864       24.77845920477112        7.55211925504629
N           -4.58117147541121       23.88319273244185        7.29021176827146
N           -5.98278217133426       24.91780616893920        9.53985253922072
N           -8.11192275729802       25.71395424329714        7.81774641002833
N           -6.76541630623743       24.54315889522548        5.61150790284340
C           -4.02000860483078       23.52528200921756        6.10272941461273
C           -2.71143587428466       22.95132297498235        6.32073726854724
C           -2.52408409634582       22.91777157282400        7.66802368555965
C           -3.69557593414385       23.52476462616795        8.26327268907243
C           -4.91592221334795       24.40367802672758       10.21637620035827
C           -5.00745571667604       24.71811839296577       11.62286648182813
C           -6.14899455943776       25.47009488034736       11.78162548031909
C           -6.74381364790829       25.57447339453953       10.45797980529175
C           -8.52743091981468       26.36802587510646        8.94229994476008
C           -9.75818726595537       27.07316074126200        8.69457753663436
C          -10.11356747873154       26.79099070008383        7.39551113813646
C           -9.05321677773409       25.94246938665442        6.87366946495285
C           -7.94684741239281       24.79930178173663        4.99603228394873
C           -7.90899885144656       24.35970403401499        3.61466328312262
C           -6.65743477802195       23.87225580888603        3.40397907067629
C           -5.95612541846504       24.00212463325091        4.66460053582778
C           -4.64956132113564       23.59431874765831        4.87259240989361
H           -4.09509160371400       23.24682417783085        4.01173785390996
C           -3.86018269614546       23.73747886513939        9.61993890836013
H           -3.06775474734845       23.38433631162351       10.26365210430613
C           -7.89274797262657       26.29377246313521       10.17381525984223
H           -8.34450656003127       26.82432693300052       10.99727056030266
C           -9.01582654085138       25.44939988391203        5.58144848964926
H           -9.88140059148408       25.61597775612021        4.95858325122334
C           -1.33992621608823       22.37229778852790        8.39502492453439
H           -0.66789025796888       23.17358622173164        8.70397719825044
H           -0.78703629185390       21.69517673628978        7.74945753799359
H           -1.64241905671037       21.82308187747984        9.28306098028854
C           -1.76933832705824       22.48314593828014        5.26089133759534
H           -1.90469659194610       23.04743004915788        4.34260194761779
H           -1.92660002044462       21.42751596314348        5.03798973127048
H           -0.74035584541267       22.60853875757347        5.58900797214943
C           -4.03449373924751       24.27738919872546       12.65729494788488
H           -3.24904560181483       25.02421738194975       12.78984761000944
H           -3.56112659354458       23.33975170340339       12.37770621999884
H           -4.53280717145781       24.13535241874437       13.61345637620664
C           -6.71635765750379       26.05390510192406       12.97347515201011
H           -7.77225591461108       26.28729940005776       12.91997718352293
C           -6.06634371570463       26.34304919259992       14.09908976066193
H           -5.00774049647824       26.18825373656506       14.20849431666007
H           -6.56973302143980       26.78180554629721       14.94288420709961
C          -10.46020904745653       27.95235725431029        9.67192090288268
H           -9.86118796272281       28.12034460428764       10.56100482497453
H          -11.41007874932888       27.50978218225477        9.97433310303910
H          -10.66254136317141       28.92203695647205        9.21908921465833
C          -11.25007900348562       27.22607660045264        6.62736978854649
H          -11.26649140813651       26.88925621925191        5.59900095537076
C          -12.26692501868114       27.98963666654702        7.03467731467508
H          -12.35943450961854       28.36353330835107        8.03422275968019
H          -13.05862702785667       28.26011188783708        6.35917662820989
C           -9.05076549763857       24.47038116722356        2.66500527025561
H           -9.31706461826512       25.51587538461162        2.50830623175254
H           -9.92948398804877       23.95484048332112        3.05132809001453
H           -8.80069301728958       24.03685184021990        1.70003590697363
C           -6.06054079571194       23.28178988847557        2.17383638590955
H           -6.79103488849851       23.22549546809238        1.37229485137960
H           -5.69237882361331       22.27609884351744        2.37254384300716
H           -5.22007444737784       23.88316515982449        1.82854840745537
O           -7.29712921573107       22.82147475089003        7.94366591335405
H           -7.59379752129670       22.63520699818987        8.84122731339014
H           -7.49607919795169       22.11222711545286        7.32570763446738
C           -3.67362884563429       27.05637970985334        6.77968202200824
H           -3.13869338103522       27.89281442717802        7.21786568331105
H           -3.71202469920631       27.16106080729822        5.70235048574118
H           -3.21906172149618       26.11161885422787        7.04845132692748
S           -5.40159483488893       27.08727000281954        7.36858311773012
H           -5.08487642474896       26.93797118472649        8.67311362398419
72
 energy: -105.971181773845 gnorm: 0.014393514925 xtb: 6.7.1 (edcfbbe)
Fe          -6.35223145394421       24.79394949606098        7.55549702205325
N           -4.58893693189950       23.88470214262951        7.29312212285317
N           -5.98934017467644       24.91570535911129        9.53063628083337
N           -8.11360921129544       25.70246863820407        7.81346265243431
N           -6.76361789430977       24.53405363947108        5.62469557537020
C           -4.02813926803747       23.52502284366651        6.10779839381024
C           -2.71361568197344       22.95591944676226        6.32362933012889
C           -2.52540543739475       22.92562890464645        7.66916371679747
C           -3.69983672725909       23.52885135083113        8.26139947279886
C           -4.92253857449080       24.40092589216959       10.20752807904319
C           -5.00711464121140       24.71465248770556       11.60788297922874
C           -6.14628527547151       25.46739967362336       11.76972883637471
C           -6.74592868862020       25.56796706016822       10.45286693192512
C           -8.52363333261088       26.35285532436730        8.93763596073706
C           -9.75347872957505       27.06665802597634        8.69613064624519
C          -10.11604363679793       26.78888838016386        7.40058434632842
C           -9.05803007756946       25.93663257296329        6.87246072559744
C           -7.94416768946471       24.79543550380331        5.00747544836031
C           -7.90260768891918       24.36920120910639        3.62720579752059
C           -6.65139272983235       23.87972217007550        3.41501393616588
C           -5.95627504366959       23.99757166640085        4.67550178871815
C           -4.65139441962583       23.58569805044869        4.87869906483054
H           -4.10300762880288       23.22772660228116        4.02037718375688
C           -3.86012453755888       23.73933582420619        9.61561573000646
H           -3.06465565074135       23.39497690782888       10.25941810350938
C           -7.89561455122274       26.28315401726536       10.16808815195222
H           -8.35325599755286       26.81412131853811       10.98726132609425
C           -9.01766733697599       25.45052219673264        5.58052953415604
H           -9.87154859001423       25.62913400931716        4.94484138658026
C           -1.34695806706939       22.38462972053719        8.40758238885923
H           -0.68040213150691       23.18854469359957        8.72336592044511
H           -0.78637099347574       21.70728517868212        7.76739093883817
H           -1.65931476469131       21.83557964749475        9.29355878013063
C           -1.77821439051644       22.48612266098919        5.26007980301503
H           -1.91435563688496       23.05291710548151        4.34249798702140
H           -1.94257930236141       21.43082522122789        5.03682906170762
H           -0.74661564119051       22.60584394889476        5.58556758246682
C           -4.03908077685785       24.26534317901776       12.64381256935950
H           -3.25375385980952       25.01062729894406       12.78781014021663
H           -3.56561228434793       23.32880333968673       12.35687110909832
H           -4.54781588876543       24.11763700341390       13.59480131970537
C           -6.70760767739840       26.04702077811538       12.96526396407545
H           -7.77168828854247       26.24941276045485       12.91885265070108
C           -6.05955358016876       26.35417759760744       14.08685769671880
H           -4.99885137722285       26.21850426862616       14.20574397764294
H           -6.57958145448444       26.76794644854622       14.93587271354992
C          -10.44589283415214       27.94530666428899        9.67917957297962
H           -9.84384544089135       28.09729605994587       10.57080775528820
H          -11.40069148395963       27.51057136574758        9.97889616500120
H          -10.63946401081277       28.92161293437844        9.23484096914236
C          -11.25119383419390       27.22717238238860        6.63037333204295
H          -11.25064253565970       26.89973578770446        5.59808621911636
C          -12.27849086623021       27.97770270519302        7.03029365348446
H          -12.39284417887960       28.35223868161740        8.03023097825246
H          -13.06380720427635       28.24490216456054        6.34226938485111
C           -9.04230116857592       24.47641152798233        2.67666745771033
H           -9.31150458347120       25.52052631455525        2.51661454077397
H           -9.91739855737654       23.95730283078471        3.06714835981765
H           -8.78430561126799       24.03920569304485        1.71547698214739
C           -6.06022095018249       23.29273727746489        2.18024819243391
H           -6.79614293534416       23.24219327557112        1.38182476481173
H           -5.69594968199598       22.28352227033011        2.37411485065067
H           -5.21898359513003       23.89275606603535        1.83261897068897
O           -7.27079496753256       22.83119975028124        7.96094696722904
H           -7.60868823039846       22.63169265076521        8.84063816293951
H           -7.51119028319377       22.13468917384443        7.34142905598583
C           -3.66191221121251       27.04673032388545        6.76722410452521
H           -3.12488216715278       27.88284105869404        7.20177548703372
H           -3.69751181490601       27.14417563974505        5.68822728916042
H           -3.21055844206296       26.10046754139787        7.04222514062135
S           -5.39505403067487       27.10049724781835        7.34923595724760
H           -5.08987466365394       26.99841104613034        8.65859655830015
72
 energy: -105.971829733533 gnorm: 0.019432514336 xtb: 6.7.1 (edcfbbe)
Fe          -6.35703020932587       24.77980641188526        7.56157617763323
N           -4.58786239336869       23.89275126836477        7.29403860554263
N           -5.98413843947014       24.92966379395239        9.52287614187703
N           -8.11206557851757       25.70268441784141        7.81136130286660
N           -6.75796780550616       24.53670014718097        5.63088487361040
C           -4.02839554924649       23.52511078936282        6.11164463432257
C           -2.71277123073383       22.95971715333712        6.32450224150962
C           -2.52237719764470       22.93398110765110        7.67025123717688
C           -3.69671149308315       23.53766734570418        8.25889587846798
C           -4.92109180812976       24.40870985544839       10.19888352669070
C           -5.00629981531447       24.71389365570528       11.59775982360380
C           -6.14436265556239       25.46420689570358       11.76221751598328
C           -6.74210539841260       25.57335289867695       10.44819517616434
C           -8.52048046456579       26.34805936150543        8.93693689021025
C           -9.75090010570742       27.06201860295213        8.69947693213511
C          -10.11581124351796       26.78781274778517        7.40467431023043
C           -9.05905717135878       25.93864794316055        6.87124895784071
C           -7.93996874800512       24.79818074097250        5.01391744526364
C           -7.89824781144017       24.37574503486530        3.63322104764941