72
 energy: -105.980692821984 gnorm: 0.000054430731 xtb: 6.7.1 (edcfbbe)
Fe          -6.29014387127430       24.80339733697286        7.51401443559299
N           -4.58029751534181       23.81254961996685        7.26836305800177
N           -5.87363142818171       25.06179859258330        9.45357658525677
N           -8.05366035581333       25.74700998446400        7.76888385864344
N           -6.75579657750407       24.47842181914215        5.59172901333946
C           -4.09350600514912       23.29649732418014        6.11149751719725
C           -2.81029655293833       22.66435464383557        6.33225845098735
C           -2.54151559687741       22.80105394589545        7.65722870558944
C           -3.66019171100203       23.52264238802424        8.22496619539096
C           -4.78863503029961       24.58814781606165       10.12384035367504
C           -4.83910440376509       24.96471077601100       11.51334249082138
C           -5.98951597163601       25.68951890501716       11.67408325046897
C           -6.62710818060683       25.72048994927936       10.37221067705002
C           -8.49462234519344       26.35394790099721        8.90721323661044
C           -9.77954630226792       26.96559260019914        8.69472731981979
C          -10.11787545415300       26.70870774032314        7.39185551200686
C           -9.01194437283763       25.96173941650459        6.82991768902382
C           -7.89254887976460       24.85584241221271        4.94758574079134
C           -7.83860117766367       24.47663275711855        3.55313568344270
C           -6.63196716003012       23.87813951237293        3.36679181764376
C           -5.97101730473475       23.88732363073713        4.65254496161681
C           -4.72423033310925       23.34050295716830        4.88287480027634
H           -4.21130655447509       22.89878575177708        4.04290798318022
C           -3.75024004500560       23.86998972012652        9.55711019548314
H           -2.94332334304306       23.56597392021300       10.20548152866176
C           -7.82884835611982       26.35315803878608       10.12021864975225
H           -8.30224126500525       26.86557678757665       10.94296051934733
C           -8.95636493444163       25.52627498439548        5.51922103313015
H           -9.79774323693998       25.75136542308554        4.88309312339432
C           -1.36166869394944       22.33292616915570        8.43694424386986
H           -0.84933124380844       23.17522208398669        8.90276861117430
H           -0.65443730824935       21.81503909668801        7.79403821001634
H           -1.67319947388525       21.64799581217641        9.22558503968903
C           -2.00472357001117       22.00525440173013        5.26651680238503
H           -1.77356455551598       22.71090997614299        4.46832926266170
H           -2.55564215578634       21.17118010927528        4.83148857470317
H           -1.06934628287582       21.62453148180358        5.66889796466483
C           -3.84639411496792       24.56001144227273       12.54560966475812
H           -2.96649054005373       25.20519018105490       12.51624546193975
H           -3.51879505066090       23.53468481368761       12.38144714459526
H           -4.29016502761037       24.62982814862658       13.53648238919562
C           -6.53001047811236       26.29295479045598       12.87258693329826
H           -7.61087270129305       26.29390979303601       12.95148485327745
C           -5.81146341609072       26.83630203680197       13.84933197461553
H           -4.73851146240493       26.90416540877527       13.80184266995133
H           -6.27786168297838       27.25780894289755       14.72411623350276
C          -10.52536073398312       27.76357744859511        9.70560379781235
H           -9.84211590646152       28.36889676672831       10.29951788671507
H          -11.07824577081277       27.11301710912777       10.38541443674268
H          -11.23426888411696       28.42315779827246        9.20954277536454
C          -11.30129850372331       27.10470809369170        6.66010985057816
H          -11.15043135543607       27.32530116218048        5.61001781209096
C          -12.52329893944223       27.20432531827647        7.17212453034862
H          -12.73820577661279       26.95279850268859        8.19613777992482
H          -13.36107778642986       27.51860652400082        6.57231998420164
C           -8.92718236646916       24.73631239854042        2.57007608459100
H           -9.09756002938706       25.80782827680459        2.46392272415087
H           -9.85963045663010       24.27623304223637        2.89791643624442
H           -8.67049891369311       24.33246076584834        1.59402351756086
C           -6.04371160377769       23.30232467054069        2.12538936281061
H           -6.72589619121670       23.41407678143158        1.28646092616253
H           -5.83191700921220       22.24098583786945        2.25735978155314
H           -5.10921726036422       23.80553891321455        1.87728383988331
O           -7.40154419257487       22.90876345152332        7.97783305410574
H           -8.20013112251803       23.26775624103430        8.38155915515698
H           -7.64042945780688       22.61463808317829        7.09115667960548
C           -3.62456969034155       26.91934888544096        7.61140264871484
H           -3.27591694884275       27.94738128635258        7.62762974609395
H           -3.01979080569082       26.32911571375127        6.93094622466529
H           -3.60062981970198       26.47736225557775        8.60159032333917
S           -5.33194839450716       26.87689705403582        6.96203613090186
H           -5.85882005683293       27.59252627545908        7.96227409020570
