87
 energy: -124.429484879730 gnorm: 0.371823481043 xtb: 6.7.1 (edcfbbe)
Fe          25.10200000000000       24.44200000000000        0.19800000000000
N           23.73200000000000       23.77400000000000       -1.17500000000000
N           23.58200000000000       25.21000000000000        1.37700000000000
N           26.44900000000000       25.23600000000000        1.54900000000000
N           26.64900000000000       23.81300000000000       -0.98000000000000
C           24.02400000000000       23.05600000000000       -2.26100000000000
C           22.88000000000000       22.77000000000000       -2.98500000000000
C           21.84400000000000       23.38200000000000       -2.28100000000000
C           22.40800000000000       23.98400000000000       -1.17100000000000
C           22.27400000000000       25.19300000000000        1.07300000000000
C           21.54200000000000       25.75500000000000        2.12300000000000
C           22.46500000000000       26.03800000000000        3.13700000000000
C           23.70400000000000       25.71600000000000        2.61000000000000
C           26.22000000000000       25.65700000000000        2.81700000000000
C           27.41300000000000       25.90500000000000        3.48900000000000
C           28.43600000000000       25.65900000000000        2.56200000000000
C           27.78400000000000       25.23000000000000        1.40300000000000
C           27.94900000000000       24.08599999999999       -0.83600000000000
C           28.68000000000000       23.48900000000000       -1.85100000000000
C           27.77800000000000       22.76100000000000       -2.61300000000000
C           26.53100000000000       23.01400000000000       -2.03900000000000
C           25.30000000000000       22.50400000000000       -2.49700000000000
H           25.33800000000000       21.59200000000000       -3.09300000000000
C           21.75000000000000       24.73600000000000       -0.15300000000000
H           20.70900000000000       24.99000000000000       -0.34800000000000
C           24.91400000000000       25.86499999999999        3.28200000000000
H           24.83500000000000       26.19000000000000        4.31900000000000
C           28.46900000000000       24.85400000000000        0.21800000000000
H           29.49900000000000       25.19500000000000        0.11600000000000
C           22.84400000000000       21.89700000000000       -4.22800000000000
H           23.38500000000000       21.03000000000000       -3.79300000000000
H           23.55600000000000       22.49900000000000       -4.83100000000000
H           22.02200000000000       21.52200000000000       -4.87400000000000
C           20.35500000000000       23.40600000000000       -2.65400000000000
H           20.24600000000000       24.51200000000000       -2.66600000000000
H           19.99600000000000       23.01900000000000       -1.67600000000000
H           19.74800000000000       22.97500000000000       -3.47900000000000
C           27.98200000000000       21.80500000000000       -3.77700000000000
H           28.42900000000000       22.59300000000000       -4.42000000000000
H           27.48500000000000       21.05100000000000       -4.42400000000000
H           28.78900000000000       21.32400000000000       -3.18400000000000
C           30.07300000000000       23.58000000000000       -2.04800000000000
H           30.76100000000000       22.93800000000000       -1.49700000000000
C           30.57999999999999       23.83100000000000       -3.40200000000000
H           30.01300000000000       24.46099999999999       -4.10300000000000
H           31.53300000000000       23.39200000000000       -3.73200000000000
C           29.95800000000000       25.84800000000000        2.69100000000000
H           30.10500000000000       26.58000000000000        1.86800000000000
H           30.21200000000000       24.83200000000000        2.31900000000000
H           30.62300000000000       26.12000000000000        3.53800000000000
C           27.58400000000000       26.27600000000000        4.84300000000000
H           26.84400000000000       25.75200000000000        5.44700000000000
C           28.29400000000000       27.51599999999999        5.22000000000000
H           29.02700000000000       27.97000000000000        4.53600000000000
H           28.09800000000000       27.99900000000000        6.18800000000000
C           22.13300000000000       26.63900000000000        4.49300000000000
H           21.52300000000000       27.44300000000000        4.02800000000000
H           22.64600000000000       27.04799999999999        5.39000000000000
H           21.46300000000000       25.80300000000000        4.78700000000000
C           20.03500000000000       26.03500000000000        2.22600000000000
H           20.16700000000000       27.11500000000000        2.44900000000000
H           19.92800000000000       25.48000000000000        3.18200000000000
H           19.12200000000000       25.90400000000000        1.60700000000000
C           26.62300000000000       19.53300000000000        2.30700000000000
H           26.24200000000000       18.63600000000000        1.77300000000000
H           26.52300000000000       19.37000000000000        3.40100000000000
H           27.69100000000000       19.68400000000000        2.04100000000000
N           24.45800000000000       20.85500000000000        2.08300000000000
H           23.89100000000000       20.14700000000000        2.50200000000000
C           25.81900000000000       20.74300000000000        1.89600000000000
C           24.02300000000000       22.02500000000000        1.63000000000000
H           22.98800000000000       22.36100000000000        1.65700000000000
N           25.07100000000000       22.67800000000000        1.15500000000000
C           26.20000000000000       21.90200000000000        1.31000000000000
H           27.17200000000000       22.25300000000000        0.98600000000000
C           23.89100000000000       28.43400000000000        0.43600000000000
H           24.03300000000000       29.48600000000000        0.76400000000000
H           23.65700000000000       27.81300000000000        1.32700000000000
H           23.04100000000000       28.39800000000000       -0.27900000000000
C           25.15900000000000       27.91900000000000       -0.23800000000000
H           25.94800000000000       27.79900000000000        0.53400000000000
H           25.50300000000000       28.67599999999999       -0.97400000000000
S           24.88500000000000       26.34800000000000       -1.07100000000000
C           26.14699999999999       26.41300000000000       -2.34200000000000
H           27.16200000000000       26.49500000000000       -1.89900000000000
H           25.98600000000000       27.29500000000000       -2.99700000000000
H           26.11600000000000       25.49100000000000       -2.96100000000000
87
 energy: -124.571065517767 gnorm: 0.197825317607 xtb: 6.7.1 (edcfbbe)
Fe          25.10015998903702       24.46608577912230        0.19616998777161
N           23.74313063140592       23.77837202670755       -1.15696123191585
N           23.60247118315490       25.18312430473698        1.36041541138975
N           26.44978017831309       25.22066766763782        1.54144071704585
N           26.62235159776795       23.82289145610756       -0.95631875355525
C           24.02778231261163       23.03129299113834       -2.24170429380731
C           22.85197748844584       22.75729407158865       -2.98385043934214
C           21.83326206526688       23.37424098427763       -2.30519200282427
C           22.40833250350887       23.99926448555431       -1.16528775472316
C           22.28553078286446       25.19257527349067        1.04641744316002
C           21.54596530589674       25.75393443288823        2.11670002420139
C           22.46512815234869       26.03889896085418        3.12375082661359
C           23.72694893152017       25.69723841363028        2.60365583849578
C           26.21155347479915       25.64060498568566        2.81320073071172
C           27.43417713210779       25.91238531361956        3.49035360160334
C           28.44141967216733       25.67999061284998        2.57307495518495
C           27.79300659072920       25.23473802411688        1.38784527437132
C           27.93707635646857       24.10446666276370       -0.82706287703719
C           28.67289253497987       23.48980699511261       -1.87380643678755
C           27.75123113539340       22.75573255837666       -2.60668251106647
C           26.49814479607159       23.00469414094799       -2.01709705497900
C           25.29211490431854       22.49790854381636       -2.49609936891298
H           25.34289139196715       21.61007627092906       -3.11668982803017
C           21.74960591410147       24.73462795246246       -0.16204455592104
H           20.70711791103325       24.97592549891409       -0.34131759157015
C           24.92355172035001       25.85844906612810        3.29038545455838
H           24.83697977422160       26.19733089154575        4.31784180600276
C           28.47078386322710       24.85943100870537        0.21610270857327
H           29.50330627664063       25.17658286159343        0.12030474131965
C           22.87504291470805       21.89842264764150       -4.22080956223087
H           23.39071788187161       21.01216654012703       -3.82878195301637
H           23.56208062872437       22.47092019873445       -4.85676378696695
H           22.02110322758808       21.55951440087795       -4.82773209913413
C           20.35422262089059       23.42857125716446       -2.62115643323999
H           20.20554555042814       24.51437936038268       -2.66342391307598
H           19.95337425599203       23.03104441845428       -1.68052369166980
H           19.81057579092968       22.97114306639356       -3.46474981298000
C           28.03400483287571       21.82604589598476       -3.76729918727998
H           28.46162549395230       22.56426292555983       -4.45458723995650
H           27.45717505625741       21.09651861823805       -4.36588952508518
H           28.83030571945303       21.29191689731461       -3.23477648945078
C           30.08871082217760       23.54036714867386       -2.11974955763553
H           30.76455422287741       22.95385597490944       -1.49319981605926
C           30.57282140320801       23.82046618891104       -3.38023350787649
H           30.01634919462986       24.44038912058655       -4.08275729216858
H           31.52869475447762       23.42190985389044       -3.71226477671780
C           29.94827960940600       25.83455265093874        2.65847660736029
H           30.13533581806569       26.57395277035456        1.86781250899387
H           30.25444251114261       24.83941879385590        2.31265457857437
H           30.55870505876317       26.11117958011175        3.53431136815250
C           27.57449082332472       26.33979809594908        4.84939240490134
H           26.86530865157972       25.79388502864305        5.47471597768656
C           28.27023866195566       27.47858845048299        5.21640311246403
H           28.99128763530303       27.94750215295553        4.54363568283873
H           28.11027393562392       27.96460080771270        6.17800526937929
C           22.09059938182996       26.63324998351543        4.46527067089787
H           21.48879473455387       27.46243740243380        4.07347211292057
H           22.67221572783137       27.01494315618161        5.32587878246048
H           21.43570334309397       25.82664704980828        4.82173620949361
C           20.05944552071129       26.04592390251493        2.26348172807486
H           20.12524162105423       27.12311129394107        2.46838401969401
H           19.88310622232263       25.49916297876340        3.19831578029641
H           19.19354048914970       25.88555803360376        1.59520842549787
C           26.61574831860941       19.53568911667360        2.30552170801543
H           26.24756319915135       18.64317887336974        1.78085964365018
H           26.52701574997451       19.36908658518398        3.38778590196522
H           27.67169254464194       19.68369768400791        2.04659497498583
N           24.46265638297323       20.84187749669435        2.08805877524099
H           23.88825888490683       20.13460886400266        2.50776930136104
C           25.81929397068867       20.73786464678001        1.89955442022606
C           24.04013210316994       22.02941436480771        1.62473815296346
H           23.01154419114064       22.36206877354687        1.65214910528869
N           25.07391848860480       22.69483625046710        1.14652448097527
C           26.18837700715286       21.90883212421583        1.31057078852854
H           27.15707159052091       22.25253476480981        0.99023205602156
C           23.89136751999891       28.43420334943275        0.43544969807197
H           24.03038978285531       29.47342102628958        0.76195323775074
H           23.65547627258742       27.82207563496448        1.31326991288544
H           23.04967262088018       28.39740241186179       -0.26842122367986
C           25.16577088315013       27.93006950756657       -0.23115813020702
H           25.94925765432370       27.79900882545800        0.52791119687419
H           25.50410895510150       28.66742400444515       -0.97320617323498
S           24.87582941878766       26.35392728578430       -1.08077830795843
C           26.15789605054853       26.42109200563622       -2.34692282573985
H           27.15636474911944       26.49378484480616       -1.89978465096863
H           25.98569699217200       27.28945785166536       -2.99464935585355
H           26.11030798146830       25.50440482661666       -2.94902410283553
87
 energy: -124.645215625111 gnorm: 0.089737685007 xtb: 6.7.1 (edcfbbe)
Fe          25.09582285016567       24.48011958170846        0.19696208534734
N           23.75189400873980       23.77992546147977       -1.13977598042399
N           23.62023956693112       25.15852734769590        1.34714071833404
N           26.44949385180704       25.20379445067122        1.53266671918263
N           26.59908794490281       23.83228754351390       -0.93750814313973
C           24.02892444208680       23.00381068131010       -2.21644663242357
C           22.82711542667714       22.74167662035062       -2.97596681655286
C           21.82462573163339       23.36961736464934       -2.32336130392629
C           22.41224747350578       24.01501884420347       -1.15968224028794
C           22.29689812774563       25.19354001180585        1.02445534910508
C           21.55079381357149       25.75668628040710        2.11220692632584
C           22.46431165426532       26.03924935351417        3.11083336966683
C           23.74623206683349       25.67596970937420        2.59960391897866
C           26.20524854574393       25.62458964603375        2.80431672985346
C           27.45536569903105       25.91011580460608        3.48421199035654
C           28.44602283809954       25.69779318160361        2.57713063788393
C           27.79768582019399       25.23870811476131        1.36963786654550
C           27.92323888142715       24.12354572266821       -0.82303684336780
C           28.65895188620836       23.49397755287671       -1.89024299492046
C           27.73266944577679       22.74893176813931       -2.59659709978805
C           26.47129130119149       22.99299385027120       -1.99392304508309
C           25.28233464413822       22.49100735149960       -2.49585144144161
H           25.34893869597324       21.63521431830224       -3.15361315058288
C           21.74958995823113       24.73255464532108       -0.17121208649159
H           20.70311907469016       24.95717263456783       -0.33229402172215
C           24.93325930750951       25.85018722665692        3.29888670165217
H           24.84087308890933       26.20549942087976        4.31617168035508
C           28.47120833241992       24.86431634547789        0.21211200699631
H           29.51069741485258       25.15054323712414        0.12538142385450
C           22.90518098311085       21.89927321056958       -4.20937208061141
H           23.39994870881121       20.99039375217603       -3.86680298285865
H           23.56877307008313       22.44483738993724       -4.88013892778761
H           22.01132372465342       21.60372279972928       -4.77278846636690
C           20.35638078993584       23.45321242561128       -2.58758893448887
H           20.16010812881392       24.52127527902151       -2.65742823389848
H           19.90839149940027       23.04575064862312       -1.68225998875136
H           19.88587398092088       22.96412926060585       -3.45366886216682
C           28.08614181224491       21.85064410697958       -3.75017791268516
H           28.49568605429061       22.53701599151499       -4.48617166342641
H           27.41669435637107       21.15254692625283       -4.29100001605046
H           28.87653350122412       21.26120130039268       -3.28787780700493
C           30.09172149921640       23.49764005560053       -2.18280968142595
H           30.74864428627518       22.96256189626928       -1.48442121103908
C           30.56854339494335       23.81121486096460       -3.36305700083304
H           30.01220228417356       24.40841369082355       -4.07563558719162
H           31.54133025674388       23.46828261530211       -3.69325460689193
C           29.93718775840211       25.82408962518793        2.62541070749038
H           30.17152162636526       26.56868611082056        1.86243449259277
H           30.29546536149629       24.84617600612204        2.30550803777389
H           30.48178134054685       26.10365787992295        3.53875477362717
C           27.55886245476455       26.39361974257761        4.85003277906129
H           26.87692463789923       25.83934682701037        5.49891072972376
C           28.24377440541427       27.44940957123328        5.21201307080994
H           28.95085916523078       27.93737460597715        4.54628524338708
H           28.13279286303679       27.92706911495975        6.17963889485501
C           22.05137294430340       26.62475385370744        4.43329507676234
H           21.45308548290555       27.47996064536569        4.11873468416090
H           22.71434359827484       26.97505430608120        5.24665683399230
H           21.40661930945685       25.85025214662384        4.85393373465714
C           20.08772284245218       26.05624703458550        2.29650116372188
H           20.08341137379440       27.13147286893502        2.48933833499729
H           19.84097817283235       25.51906877969202        3.21361668932266
H           19.28006254661669       25.85882105266546        1.57034004513649
C           26.61031606409765       19.53968377827443        2.30363589201095
H           26.24962013419135       18.64956556533302        1.78591465393671
H           26.52876952566031       19.36946146501780        3.37849946010254
H           27.65814020473346       19.68576139303331        2.04988333829374
N           24.46529008506202       20.83226248236499        2.09172539262892
H           23.88380997398714       20.12733807307724        2.51108316672457
C           25.81984583881265       20.73577877572013        1.90184877257302
C           24.05552680660890       22.03234250326046        1.62094561072894
H           23.03295472328831       22.36331219118244        1.64743626321275
N           25.07682360992722       22.70472663187504        1.14376627892683
C           26.17890451058258       21.91419542954146        1.31210793394473
H           27.14684159072184       22.24975963701097        0.99555379308485
C           23.89276383112878       28.43681996930562        0.43676067711353
H           24.02795662071230       29.46735415347669        0.76276803189767
H           23.65477100754116       27.82619623763070        1.30294961031662
H           23.05934799260313       28.39639466360735       -0.26280421788647
C           25.17175936792401       27.94341276019596       -0.22467426990199
H           25.95118000761690       27.79728616417001        0.52269634498384
H           25.50605258497485       28.66210005201511       -0.97409975709369
S           24.86816316374104       26.35883961845257       -1.08725930755472
C           26.16836743326524       26.42984952355121       -2.35300298743470
H           27.15191109312174       26.49440558636117       -1.89743886602456
H           25.98609994240155       27.28873503181012       -2.99392572167401
H           26.10435777902905       25.51486786041643       -2.93852774578933
87
 energy: -124.678925591181 gnorm: 0.051198471811 xtb: 6.7.1 (edcfbbe)
Fe          25.09288193990852       24.48687862168299        0.19531015401964
N           23.75543266895570       23.77069025867749       -1.12193998275902
N           23.62661109782345       25.14180760308851        1.34340209079979
N           26.44688941154926       25.19250700865667        1.52206661478012
N           26.58542353474040       23.83279792025222       -0.93119666511824
C           24.02649092036504       22.97844040768848       -2.18864651925962
C           22.81986993738125       22.72321602355545       -2.95823371982356
C           21.82117393063406       23.37242021449124       -2.31996545873531
C           22.41908645246564       24.02163671294123       -1.15198474034788
C           22.30325452635154       25.19487427247800        1.01653206029978
C           21.55617925825557       25.76084609720872        2.10966614688927
C           22.46264265866434       26.03588501909320        3.10281069966321
C           23.75228954834475       25.65641478787932        2.59933603606772
C           26.20068922215463       25.61065952979863        2.79191829583031
C           27.45575663641220       25.90688067243297        3.47215913776299
C           28.44498299406270       25.70772219499078        2.56409476385067
C           27.79426650353479       25.24275466563409        1.35295837864266
C           27.91018942590960       24.13304217893067       -0.82665037241612
C           28.64543269419604       23.49124603480739       -1.89067056913821
C           27.72938711580277       22.74216627489217       -2.58830247964975
C           26.46069200786691       22.98000072507584       -1.97984657638346
C           25.27613899348159       22.48175051845865       -2.49346031929213
H           25.35533968271170       21.66834272051240       -3.20713369431838
C           21.74956918334265       24.73299731466227       -0.17338121386023
H           20.69605599057265       24.93317819687208       -0.31971938234022
C           24.93672505079947       25.83558267887965        3.30091533248022
H           24.84737041640394       26.21274972381222        4.31042688889251
C           28.46968731578653       24.86654506172410        0.20393449457353
H           29.52142919208570       25.11418431221056        0.12990309957817
C           22.91918800816300       21.89731587956918       -4.19664362002887
H           23.40569223288099       20.96115668086410       -3.90979544681806
H           23.57211077745477       22.41891510541410       -4.89924518984255
H           21.98527881271072       21.65036856353515       -4.71700890940667
C           20.35711199298420       23.47227757098743       -2.56514879797808
H           20.10887247355937       24.53115461523892       -2.65156063137630
H           19.85734083883867       23.06380742388753       -1.68355961200309
H           19.96198815308780       22.95318075696868       -3.45210895088503
C           28.11634007605788       21.86453207725278       -3.73558568357767
H           28.52770035022898       22.50560896963364       -4.51656825555862
H           27.36853210735147       21.20187413876935       -4.21740927245508
H           28.92336351045352       21.23269988436075       -3.34657167067325
C           30.08018820296446       23.45716919209706       -2.19094401264387
H           30.72572191357393       22.95036558899904       -1.46888756741665
C           30.58484140651751       23.82489816705628       -3.36719586939044
H           30.00093251121675       24.37620860840813       -4.09217949885219
H           31.58420342670886       23.54143606140473       -3.67904020492490
C           29.92996023571107       25.81962432540927        2.60273940980059
H           30.21616957002721       26.56585914427790        1.85594768852820
H           30.33957455222219       24.85340883767793        2.29798988299730
H           30.39940040529522       26.10080265489245        3.55725274167787
C           27.52445204009576       26.40683253234159        4.84033086365554
H           26.85802299162816       25.87449771708487        5.51580006325661
C           28.25570619866230       27.44988234891025        5.22456687759008
H           28.92390968339891       27.95542063720041        4.53898723501174
H           28.17635535693154       27.89724273222923        6.20644986951347
C           22.03012491564202       26.61755960982311        4.41020759691818
H           21.41999178024572       27.49573453474614        4.16701068147387
H           22.77239897880746       26.93482976471338        5.16785211892067
H           21.37713601045829       25.87680641839018        4.88636072769248
C           20.10685926514406       26.06179783556808        2.31189895296799
H           20.03676775743219       27.13864744213993        2.50809763951340
H           19.79731527469124       25.53952911099787        3.22451113573940
H           19.36682325261466       25.82481007451472        1.52718024227218
C           26.60637306909068       19.54296495060894        2.30311781966864
H           26.24833143535306       18.65230898649158        1.78758589917869
H           26.52866944461960       19.36987330474225        3.37618113346848
H           27.65168065163670       19.69042285885453        2.05087687854179
N           24.46548174170846       20.83081049789235        2.09253334306522
H           23.88060124658774       20.12628397557724        2.51105711259082
C           25.81961594944871       20.73803245302664        1.90313554012767
C           24.06364269188072       22.03509856188910        1.61918347652379
H           23.04574882551978       22.36831946098682        1.64247411825174
N           25.08058963810725       22.70971086397791        1.14385408944112
C           26.17727545751614       21.91785777695883        1.31512224952739
H           27.14552158437387       22.24837526079090        1.00162596138237
C           23.89747251004288       28.44098268583794        0.43716518154901
H           24.02570673852399       29.46887533514098        0.76786058577800
H           23.65438909321662       27.82605685747507        1.29681915901090
H           23.06741180777070       28.39769483752737       -0.26345835529868
C           25.17736289379309       27.95322568569942       -0.22219287050328
H           25.95849545623438       27.79502574468582        0.51873304007614
H           25.51189399206320       28.66260723171313       -0.97730406567174
S           24.86028330301443       26.36871341114524       -1.09340123198891
C           26.17224262462480       26.44034099461294       -2.35491842362381
H           27.15074599392858       26.49830890777785       -1.89140934278753
H           25.98853049979789       27.29563752139152       -2.99689372799620
H           26.09761997682273       25.52299907844318       -2.93078060469780
87
 energy: -124.693238546406 gnorm: 0.044586507155 xtb: 6.7.1 (edcfbbe)
Fe          25.09283740706377       24.48502280903993        0.19480732974060
N           23.76085345638795       23.75559944287985       -1.10057762063147
N           23.62726644290337       25.13170425563077        1.34632060176306
N           26.44214650879904       25.18728261455077        1.50980892604947
N           26.58008541137443       23.82786371151873       -0.93687548090049
C           24.02540242085466       22.95679961555788       -2.16162306086758
C           22.81774820635401       22.70322385732157       -2.93314892989986
C           21.82149932571974       23.37421263109145       -2.30428277888707
C           22.42887222720455       24.01759009279003       -1.13674227189422
C           22.30519017058931       25.19365015312321        1.01871654980084
C           21.55764221605530       25.76520231947160        2.11138310663782
C           22.45982969748739       26.03173766764150        3.10381701823221
C           23.75319992790110       25.64173269188460        2.60438387581809
C           26.19911478157053       25.60249411909361        2.77930409112117
C           27.45474111836669       25.91776573613374        3.45723884816954
C           28.44263981962771       25.72272487806808        2.54107046262322
C           27.78765289868452       25.24681943130407        1.33615943418530
C           27.90340392681941       24.13431607855973       -0.83531229961899
C           28.64288863348963       23.49340469363632       -1.89567981511353
C           27.73835902281969       22.73229118785602       -2.58770091691459
C           26.46062943664937       22.96917015078359       -1.98125767540502
C           25.27482709714903       22.47969157250693       -2.50027810734988
H           25.35831397688345       21.71249227397814       -3.26590630644775
C           21.74941188137607       24.72723155666613       -0.16608436581645
H           20.69155435824440       24.90492807054851       -0.30523044374963
C           24.93918384780148       25.82186167570280        3.30148075774548
H           24.85856068155449       26.21446700878906        4.30504537249039
C           28.46872264245505       24.86150291277815        0.19467842993711
H           29.52958174730719       25.07235867239885        0.13262893875540
C           22.91038292590467       21.89458971120787       -4.18043922358302
H           23.38686139259745       20.93555703093367       -3.94526040049867