87
 energy: -128.467183411280 gnorm: 0.000070566676 xtb: 6.7.1 (edcfbbe)
Fe         -36.39786917083276       15.67188326122220        2.96474095885898
N          -38.16501539247372       16.60227183405038        3.15160308692625
N          -37.33417240914598       14.00838643295623        2.35203938281665
N          -34.62522837646669       14.75607998592073        2.75322309354884
N          -35.46614130420011       17.32822032494649        3.60154686509131
C          -38.38026404813726       17.87446470227314        3.57464318999168
C          -39.79166341554652       18.19191980649403        3.54718903259347
C          -40.42334183721191       17.07718730098258        3.09234971683723
C          -39.38923815947074       16.09321398150270        2.85395725801757
C          -38.67249980385368       13.84419553919040        2.18355501646261
C          -38.97191894560628       12.50329517602288        1.75599199155718
C          -37.77609382092839       11.83816785073572        1.69689892080940
C          -36.76253412345623       12.81392762005948        2.04968405317427
C          -34.41202198181525       13.48816205458580        2.30490361174697
C          -33.00265845965622       13.20282234576919        2.22539448878968
C          -32.35754196943666       14.33622941305912        2.64732893120513
C          -33.39979343928004       15.28916430638557        2.97873278247972
C          -34.12738879993016       17.50463317658610        3.74318257985650
C          -33.83682088453487       18.83063874131825        4.24435518894632
C          -35.03674613906719       19.45103097247055        4.40078594098421
C          -36.04226793428765       18.49626982766969        3.98854928472977
C          -37.39977216310885       18.76419277035056        3.97842267873048
H          -37.71792389534141       19.74319064903205        4.30522867375522
C          -39.63730667824535       14.81409331508415        2.39917407062932
H          -40.66444098255348       14.54320421467645        2.20586370946098
C          -35.40224773695800       12.57509425630264        1.98003589286780
H          -35.09058394714611       11.60583209008855        1.62192544110149
C          -33.15633793323652       16.56920272420479        3.44214468480281
H          -32.12688723932828       16.86499693896959        3.57670422548155
C          -41.87770993126293       16.84233196644051        2.86491798465436
H          -42.45694476766529       17.72994706267946        3.10832833979102
H          -42.23438097578074       16.01958050055151        3.48513934253354
H          -42.06610127658502       16.58479137243397        1.82227163342505
C          -40.36738111889402       19.50661198352173        3.95179124715060
H          -39.96055958382726       20.31102287593325        3.33791132447607
H          -40.13051119371742       19.72544492368080        4.99348646159435
H          -41.44904161139846       19.50610393620194        3.84072028207905
C          -40.33980790626774       11.97104139361151        1.49934284955431
H          -40.85450783072550       12.57900144011724        0.75477981212931
H          -40.93498733933512       11.98369655681157        2.41329741348535
H          -40.29183989535478       10.94615149377667        1.13944622239771
C          -37.57469139674929       10.44408169707827        1.36277211198754
H          -38.23065086194770       10.05361286281035        0.59156819921979
C          -36.70635729548312        9.62065363716603        1.94036277943237
H          -36.06793210395199        9.93599726050963        2.74839081502046
H          -36.61976625492933        8.58976330207713        1.63887538825959
C          -32.41113417043713       11.89321279651374        1.83304424037808
H          -32.34089676310552       11.80672424069600        0.74731102061097
H          -33.02192783054976       11.06733511664740        2.19488203876333
H          -31.41062868527879       11.79530915320299        2.25008286449730
C          -30.94003465336192       14.58198012303533        2.78642633982827
H          -30.65797283528424       15.24511141621320        3.59639911915724
C          -29.98574813562874       14.07585230802231        2.01123331442990
H          -30.20657109947515       13.45197312343101        1.16293334749334
H          -28.94462219374004       14.29336253907467        2.18472470443190
C          -32.46497013437560       19.34691743664851        4.51522175882981
H          -31.86178590102611       19.32776274386797        3.60707218323636
H          -31.96559269558261       18.73221818310085        5.26462455020579
H          -32.50060922131784       20.37047626424089        4.88091015155967
C          -35.33294215012597       20.82874594191096        4.88844572915878
H          -34.41633519008984       21.35218472642546        5.14943516119776
H          -35.97114913344983       20.79450533619214        5.77191669466134
H          -35.85029441733042       21.40655796119112        4.12156593358332
C          -37.14284811630840       15.20833286647163        8.49491255392465
H          -36.25824145057511       15.06038908948588        9.11453663665733
H          -37.92693541557179       14.54273120069926        8.85612132887983
H          -37.47838762277726       16.23455750752758        8.60733156973400
N          -36.39669797934263       13.71872192421347        6.62492996721621
H          -36.23923007504053       12.90652341869509        7.19859728193401
C          -36.83780403465196       14.93909659135268        7.06669752416190
C          -36.21402601546611       13.80959334167808        5.28834094017082
H          -35.87267430698208       13.00240357346861        4.67377483247062
N          -36.51218805847234       15.01025625981523        4.85760586197698
C          -36.90186074905329       15.72429786912836        5.95166689491046
H          -37.19999815039085       16.74815311106994        5.86350520382898
C          -35.68946813615951       16.10804698423343       -2.56864231932925
H          -34.85372032367606       16.70883370507678       -2.92768108284600
H          -36.56061806010288       16.33382279270545       -3.18381735978427
H          -35.44037055666715       15.05846230718569       -2.68971639072889
N          -36.31795675174071       17.63624521135616       -0.68627917978602
H          -36.42138823150511       18.46046794218034       -1.25502483336253
C          -35.96593027797136       16.39048844935899       -1.13724518331203
C          -36.49549943652698       17.55138731799098        0.65158054987090
H          -36.77624932350805       18.37637648288992        1.27318442762880
N          -36.27799181498275       16.33077147821084        1.07409486677226
C          -35.94793983705382       15.59687467592940       -0.02654377916825
H          -35.72086773027686       14.55413061051485        0.05328357673626
