72
 energy: -105.894088270758 gnorm: 0.271055701041 xtb: 6.7.1 (edcfbbe)
Fe          24.57100000000000      -17.89000000000000       -1.54900000000000
N           26.26200000000000      -19.20200000000000       -1.92000000000000
N           25.85700000000000      -16.32800000000000       -1.66600000000000
N           23.12500000000000      -16.62800000000000       -0.81400000000000
N           23.46200000000000      -19.59200000000000       -1.04000000000000
C           26.15500000000000      -20.53800000000000       -2.04800000000000
C           27.46600000000000      -21.04000000000000       -2.41600000000000
C           28.31300000000000      -20.00500000000000       -2.47100000000000
C           27.50300000000000      -18.82200000000000       -2.20300000000000
C           27.18600000000000      -16.37900000000000       -2.02700000000000
C           27.61400000000000      -15.02400000000000       -2.25800000000000
C           26.56400000000000      -14.23600000000000       -1.98800000000000
C           25.46100000000000      -15.02600000000000       -1.59900000000000
C           23.10700000000000      -15.29700000000000       -0.93400000000000
C           21.80800000000000      -14.81600000000000       -0.53000000000000
C           21.10000000000000      -15.86700000000000       -0.17200000000000
C           21.91000000000000      -17.04700000000000       -0.37900000000000
C           22.19500000000000      -19.52000000000000       -0.52100000000000
C           21.64500000000000      -20.84600000000000       -0.36200000000000
C           22.69500000000000      -21.71200000000000       -0.92400000000000
C           23.79200000000000      -20.85000000000000       -1.33000000000000
C           25.01500000000000      -21.27000000000000       -1.85100000000000
H           25.07100000000000      -22.31900000000000       -2.13900000000000
C           27.94000000000000      -17.52700000000000       -2.17100000000000
H           29.01500000000000      -17.38300000000000       -2.27100000000000
C           24.18800000000000      -14.55600000000000       -1.30400000000000
H           24.03800000000000      -13.47900000000000       -1.37600000000000
C           21.53600000000000      -18.36900000000000       -0.15000000000000
H           20.60200000000000      -18.51100000000000        0.39200000000000
C           29.81400000000000      -19.89100000000000       -2.79200000000000
H           30.22300000000000      -20.90000000000000       -3.01500000000000
H           30.35400000000000      -19.46800000000000       -1.91800000000000
H           29.96000000000000      -19.23900000000000       -3.68000000000000
C           27.77100000000000      -22.50200000000000       -2.64500000000000
H           27.43400000000000      -22.79600000000000       -3.66200000000000
H           27.23400000000000      -23.12000000000000       -1.89400000000000
H           28.86600000000000      -22.67400000000000       -2.56500000000000
C           29.01400000000000      -14.52600000000000       -2.67800000000000
H           28.97600000000000      -14.14900000000000       -3.72300000000000
H           29.74200000000000      -15.36300000000000       -2.62300000000000
H           29.33500000000000      -13.69900000000000       -2.00900000000000
C           26.44500000000000      -12.71200000000000       -2.01300000000000
H           25.68300000000000      -12.24000000000000       -1.37700000000000
C           27.18700000000000      -11.89200000000000       -2.74200000000000
H           27.97100000000000      -12.28800000000000       -3.40400000000000
H           27.02800000000000      -10.80500000000000       -2.69400000000000
C           21.43300000000000      -13.32800000000000       -0.53700000000000
H           21.17300000000000      -13.01600000000000       -1.57100000000000
H           22.29400000000000      -12.72200000000000       -0.18300000000000
H           20.55400000000000      -13.15900000000000        0.12100000000000
C           19.70600000000000      -15.97100000000000        0.36800000000000
H           19.49100000000000      -16.80000000000000        1.05600000000000
C           18.69600000000000      -15.17700000000000        0.11300000000000
H           18.81700000000000      -14.31900000000000       -0.56500000000000
H           17.71400000000000      -15.35800000000000        0.57400000000000
C           20.30500000000000      -21.26900000000000        0.24700000000000
H           19.47400000000000      -20.80500000000000       -0.32600000000000
H           20.24800000000000      -20.92800000000000        1.30300000000000
H           20.20300000000000      -22.37400000000000        0.19900000000000
C           22.66700000000000      -23.22200000000000       -1.00900000000000
H           21.61600000000000      -23.56800000000000       -1.10800000000000
H           23.10500000000000      -23.65800000000000       -0.08600000000000
H           23.24200000000000      -23.55900000000000       -1.89800000000000
O           25.58500000000000      -18.12000000000000        0.71200000000000
H           26.34300000000000      -18.69500000000000        0.60400000000000
H           25.31000000000000      -17.75000000000000        1.47200000000000
C           24.77600000000000      -18.50100000000000       -4.92500000000000
H           25.84400000000000      -18.63300000000000       -4.65000000000000
H           24.73600000000000      -18.03200000000000       -5.93100000000000
H           24.30800000000000      -19.50700000000000       -4.97500000000000
S           23.87600000000000      -17.42700000000000       -3.67100000000000
H           24.77700000000000      -16.45600000000000       -3.68300000000000
72
 energy: -105.949459658035 gnorm: 0.106978583059 xtb: 6.7.1 (edcfbbe)
Fe          24.62060864202527      -17.89857501219226       -1.44392804722470
N           26.22978392637135      -19.18719649450394       -1.93780446152850
N           25.85192610807424      -16.32840629750665       -1.67907029631763
N           23.12068489572751      -16.65651441264968       -0.83540029716719
N           23.45032995301746      -19.56428972243179       -1.07019240169293
C           26.14508124595329      -20.53314579853598       -2.05939347026059
C           27.46446221201279      -21.04686864628936       -2.41586021746288
C           28.31320421520108      -19.99175197219729       -2.47286489419212
C           27.49833343626801      -18.81451630061127       -2.18497190589458
C           27.17876994426071      -16.35750714758754       -2.03017013423646
C           27.63052149504655      -15.00114585470967       -2.24711590787539
C           26.56638074068686      -14.19266087351971       -1.98243938794854
C           25.46057248373086      -15.02416206801204       -1.61730729216966
C           23.10318729321067      -15.30938303016639       -0.93513480012881
C           21.80551908088080      -14.80426897138960       -0.52995140332629
C           21.07853711606040      -15.88257115666435       -0.15763238994950
C           21.91229733449024      -17.05732718955982       -0.36722622903512
C           22.20540231193610      -19.52851512122345       -0.51303819776904
C           21.68031699037912      -20.86927598978566       -0.37473081693647
C           22.67455219278828      -21.70477372964756       -0.91653598644118
C           23.77241873318462      -20.84586673952892       -1.32692961166114
C           24.99933607804093      -21.27784884645615       -1.84987394547883
H           25.06757436472384      -22.32735369239884       -2.11418100012369
C           27.94410116653059      -17.50836592369710       -2.16938530818338
H           29.01230559789166      -17.36931103726456       -2.29340446508324
C           24.19055957895947      -14.55527593045404       -1.31129077002176
H           24.04260762841456      -13.48381298284222       -1.37118367381407
C           21.53417845569534      -18.37405383489142       -0.14158153859220
H           20.59009923663131      -18.51636126863388        0.37073667572306
C           29.79143435480169      -19.90037329669968       -2.78822681393444
H           30.21262427061426      -20.88640456066950       -3.01089158641224
H           30.33741844720235      -19.47701410751488       -1.93596056300671
H           29.95292094353260      -19.25352311211170       -3.65909416523004
C           27.77011429888871      -22.49683874164610       -2.64410334561690
H           27.43949278969042      -22.79764457250408       -3.64621958804810
H           27.24823103989574      -23.11607055639145       -1.90696296318931
H           28.84701375372789      -22.67744107809845       -2.56585015197234
C           29.00607786870751      -14.53930771547454       -2.67196096516919
H           28.97896334428088      -14.16713735839367       -3.70369358831750
H           29.73360684074440      -15.35354745775735       -2.62003231491335
H           29.33001453987671      -13.71952865285503       -2.02073522930223
C           26.45677889335022      -12.71545020520274       -2.01169163389367
H           25.69146672974352      -12.26883255926459       -1.37930918147065
C           27.19546560592936      -11.89283627971314       -2.74179832625362
H           27.96226614467622      -12.26583007659408       -3.40658507589154
H           27.03769335667878      -10.82061241928876       -2.70133620500505
C           21.43552496356182      -13.34086397932848       -0.53562348154501
H           21.17816258951910      -13.02216172194883       -1.55346808710903
H           22.27710205534201      -12.73294389947320       -0.18733250783922
H           20.57352306391045      -13.16163594265135        0.11416335139233
C           19.71099870751349      -15.97453436798190        0.37414823083305
H           19.51252456895292      -16.80422095392212        1.04978843209854
C           18.69572013092734      -15.16781383638670        0.11114316829970
H           18.80007620071526      -14.32806850904433       -0.56534834904294
H           17.72323622562892      -15.34067483786324        0.55944490459349
C           20.34461381478486      -21.26306413118150        0.22563597633984
H           19.50555057970350      -20.80976932674793       -0.32149278868281
H           20.26402992992830      -20.93617768691601        1.27201922489401
H           20.21373133486714      -22.35009155255914        0.19862459951584
C           22.65863627768866      -23.20336000379406       -1.00731864502678
H           21.63061460923920      -23.56733259214356       -1.10532150235825
H           23.09730799862085      -23.65113083816239       -0.10545136819298
H           23.22889174702546      -23.55076499656737       -1.87734991977265
O           25.57185535355885      -18.12691829893751        0.67363113822491
H           26.33909399007971      -18.69171463923005        0.60540408369603
H           25.30393427072512      -17.74243936810161        1.48835846323308
C           24.78784803247768      -18.50405154090822       -4.93044873454113
H           25.83382224939451      -18.62618684958695       -4.63948962584745
H           24.72575093896100      -18.02809626283815       -5.91391927621266
H           24.30514908409527      -19.48416832034818       -4.96271385928059
S           23.90497002324385      -17.47249621226491       -3.66275792399936
H           24.76809557899900      -16.45682053558157       -3.71601163125017
72
 energy: -105.965232561505 gnorm: 0.033238014231 xtb: 6.7.1 (edcfbbe)
Fe          24.64883781985110      -17.91208145772577       -1.41890792463519
N           26.19591368121723      -19.16501340239199       -1.93266998046973
N           25.84802653285701      -16.33305497434748       -1.67103986257019
N           23.13364282769982      -16.68904543737031       -0.83550813743213
N           23.46155988556401      -19.53488136019699       -1.07107743655579
C           26.13020582282135      -20.51700331357066       -2.06350829516302
C           27.44952172561367      -21.03919924326819       -2.41224960446962
C           28.29607557775527      -19.97019433496991       -2.46542516663732
C           27.48288432674957      -18.79900398158277       -2.16709742970610
C           27.16878175925548      -16.34126805653922       -2.02221439427131
C           27.63581786802996      -14.98833142980530       -2.23430836508759
C           26.56440553109089      -14.16423860459248       -1.97772589607261
C           25.45997263232537      -15.02866719817813       -1.62245807643214
C           23.10672500940493      -15.33239610755173       -0.93190285308139
C           21.81298787334037      -14.81184308083567       -0.53062362796373
C           21.07271001291865      -15.90197447424949       -0.14652697130828
C           21.92506808669504      -17.07001989588041       -0.35356040162437
C           22.22303000096954      -19.52780545499806       -0.50889760140765
C           21.71647825719063      -20.88207735512355       -0.38677315070857
C           22.66777910321519      -21.69043930604321       -0.91048308412575
C           23.76806355205117      -20.83264736109258       -1.32263081809270
C           24.98664551923283      -21.27609894114187       -1.84626892382702
H           25.06795210243713      -22.33156911939357       -2.07310752733018
C           27.94110313232409      -17.48985582475812       -2.17213872671738
H           29.00251543857278      -17.35461299809847       -2.33166488965493
C           24.19156315689316      -14.56286640792108       -1.31490721736938
H           24.04075665592837      -13.49530571099752       -1.36372592629488
C           21.53203144437957      -18.38103114120296       -0.14130374988729
H           20.57184892458378      -18.52872197907223        0.33438246020140
C           29.75696924638085      -19.90434307314587       -2.77917505782085
H           30.17384283894172      -20.88271779558613       -3.00052335327041
H           30.31303196707259      -19.48380035376606       -1.94090080337624
H           29.93334765916779      -19.26425725208660       -3.64342776658837
C           27.76191171830892      -22.48120048596904       -2.64281897599168
H           27.43696374941443      -22.79167325492705       -3.63601319325836
H           27.25435591197451      -23.10703642380179       -1.91335060556842
H           28.82970807702406      -22.66577002986556       -2.56615825794506
C           28.99586677000494      -14.55570345041618       -2.65908775561238
H           28.97848886706385      -14.19555911696081       -3.68768467720124
H           29.72087647359471      -15.35974628378738       -2.60299707734448
H           29.33012202629782      -13.73393117830834       -2.02752340119307
C           26.46761711979521      -12.72539431575279       -2.01106088091703
H           25.70157090317739      -12.29759343144534       -1.37681696173540
C           27.20448444637103      -11.89579017475656       -2.74229795764598
H           27.96203125135595      -12.24546330787861       -3.41423329205711
H           27.04912873273935      -10.83227753468412       -2.70233418415611
C           21.44329393054851      -13.36679909609072       -0.53288226125960
H           21.18391540901042      -13.03915203664893       -1.54012321246506
H           22.27212384598048      -12.75242939200568       -0.18893649689751
H           20.59094632556088      -13.18156107633920        0.11396932738585
C           19.72397676095420      -15.97966426868420        0.37364360325705
H           19.53599774836560      -16.80965338924299        1.04280693661664
C           18.70737271801944      -15.16361854865179        0.10416417377664
H           18.79533209703906      -14.33631976518405       -0.57382601808284
H           17.74064992934460      -15.32283070544540        0.54975883062167
C           20.38839575596143      -21.25616451494884        0.20438883102980
H           19.55823139328570      -20.80028223484698       -0.33881497905067
H           20.30554716324620      -20.93094062039286        1.24323421381400
H           20.24302438182320      -22.33368764414271        0.18696195357012
C           22.65448087638212      -23.18170581720567       -1.00950696874389
H           21.63798052475136      -23.55463628733630       -1.10370763125412
H           23.09428157742034      -23.63374083084936       -0.11867462311291
H           23.22114232789372      -23.53027860381691       -1.86994288782552
O           25.52768215004388      -18.13902540613726        0.63611715339443
H           26.32574069404478      -18.67214376583245        0.61615009945456
H           25.30219712205309      -17.73569001876498        1.47810457122383
C           24.79970397938551      -18.51210717206326       -4.92561412396566
H           25.83277290441722      -18.62675343397289       -4.62671035996766
H           24.72144331243103      -18.02410061696224       -5.89076245307200
H           24.30747949947128      -19.47532348770470       -4.95377613293015
S           23.90084384721653      -17.50483531732142       -3.68497525805288
H           24.73822170569440      -16.46005053337089       -3.75431850708667
72
 energy: -105.969898446886 gnorm: 0.027638963481 xtb: 6.7.1 (edcfbbe)
Fe          24.65883859173837      -17.91861264007616       -1.39177448339327
N           26.17369804826442      -19.14756563432585       -1.93344234486552
N           25.84435791592877      -16.33350509666861       -1.66840887440864
N           23.14388607743727      -16.70451747835888       -0.82348440581663
N           23.47263511209049      -19.52468835176623       -1.07378683793778
C           26.11861925926630      -20.50095090008374       -2.06474182529113
C           27.43093353895818      -21.02352124549775       -2.41128241954600
C           28.27325942716983      -19.95208703378749       -2.46169771844359
C           27.46461061774283      -18.78380810099872       -2.16864142116845
C           27.16189983145037      -16.33525341738224       -2.02022924751975
C           27.63282203505403      -14.98767302967922       -2.22855731522072
C           26.56194614483299      -14.15972878269517       -1.97778141541439
C           25.45818680396018      -15.03048287578254       -1.62145030362477
C           23.11250824213041      -15.34778148157039       -0.92753445352317
C           21.82260987204856      -14.82785093203101       -0.53104732643343
C           21.07839528877112      -15.91645150260507       -0.14453032960372
C           21.93352268100539      -17.07986377842021       -0.34691601133096
C           22.23535801081114      -19.52188900521994       -0.51250605281516
C           21.73167075986003      -20.87602924941919       -0.39341251172558
C           22.68062945921371      -21.68702846889730       -0.92126040326365
C           23.77696966383849      -20.82472445244444       -1.32844145375694
C           24.98675368985516      -21.27225564785248       -1.84188496566070
H           25.07933708220935      -22.33453207526072       -2.03361195324483
C           27.93260902111077      -17.47960841752078       -2.18385404757195
H           28.98901922228383      -17.34534450222425       -2.37734622746308
C           24.19057684686911      -14.56926177827480       -1.31291373422114
H           24.03354976880935      -13.50314127526206       -1.35791833345132
C           21.53023498425570      -18.38777661917059       -0.14663091328143
H           20.55212021771867      -18.54285446517723        0.29255915539502
C           29.73051030405436      -19.90155569925241       -2.77095193297971
H           30.12771244801582      -20.88939732032160       -2.98665064349651
H           30.28960583964042      -19.48461077325831       -1.93281187491494
H           29.91413764274378      -19.26802028325530       -3.63887792177768
C           27.74860428208437      -22.46320416891459       -2.64080373341091
H           27.42306331106144      -22.77821227852847       -3.63275954944435
H           27.24892636843390      -23.09331676254020       -1.90852574980679
H           28.81818666137808      -22.64136009529655       -2.56643711442089
C           28.99726222063756      -14.57172641791859       -2.64674869402893
H           28.98834434925281      -14.23127564259687       -3.68306299746636
H           29.71516943125137      -15.38191587382743       -2.57017901364357
H           29.33593231991857      -13.74055475332205       -2.02842843131442
C           26.47425265970698      -12.72343767375870       -2.00973430653985
H           25.70853307865569      -12.29948593230601       -1.37254164860406
C           27.21427858683591      -11.89142058761565       -2.73790160276628
H           27.96480967201595      -12.23293922718076       -3.42432200992747
H           27.06117241209587      -10.82787382223320       -2.69366369040390
C           21.45237713355550      -13.38709123390029       -0.52781035181692
H           21.18698404128072      -13.05772322374454       -1.53345184250437
H           22.28168522258972      -12.77144201277953       -0.18520767629079
H           20.60250196980972      -13.20948552798691        0.12523226480905
C           19.73248133181050      -15.98648116050642        0.37242291654630
H           19.54511927118853      -16.81534452814491        1.04376876084390
C           18.72157154378536      -15.16394110477084        0.09899663763249
H           18.80501220038019      -14.34775142891998       -0.59454556969632
H           17.75354637916812      -15.30948991940580        0.54711818153180
C           20.41108483022465      -21.24521974918289        0.19395325200672
H           19.59471071582165      -20.78099646551661       -0.35940420151752
H           20.34118478716201      -20.91553224297806        1.23039117468432
H           20.26855535102070      -22.32239342043879        0.17386995604822
C           22.66304384487009      -23.17516095800260       -1.02077692463413
H           21.64358695071002      -23.54217425290369       -1.10865152069220
H           23.10503142686646      -23.62270717320533       -0.12933524294551
H           23.22483176685693      -23.51975739610546       -1.88437746970277
O           25.46114854609599      -18.18833059800939        0.64284506107743
H           26.32841012852201      -18.62974459902593        0.64136348648405
H           25.30456138585371      -17.70548655734820        1.47091387932023
C           24.80616105152468      -18.52366561356596       -4.91811470533302
H           25.83885081116426      -18.63007297182833       -4.61194858216576
H           24.72695169831264      -18.03157634508430       -5.88147436838015
H           24.32137346890256      -19.49048542583148       -4.94987241942398
S           23.89602038826031      -17.53537825352685       -3.67822649364470
H           24.68715395179130      -16.45047228670839       -3.80474911268621
72
 energy: -105.972209168059 gnorm: 0.030560146882 xtb: 6.7.1 (edcfbbe)
Fe          24.65129513854938      -17.92314943082646       -1.41017871879790
N           26.15404086307350      -19.13076392306915       -1.92594149134562
N           25.84131527984403      -16.33369552871694       -1.65652288473876
N           23.15581665049983      -16.72032300402495       -0.81276292589207
N           23.48597406524427      -19.51432344421211       -1.08169856063699
C           26.10946945462545      -20.48430138521938       -2.05944113690682
C           27.41248843699548      -21.00500944501121       -2.40845471804762
C           28.25011296838165      -19.93264207403495       -2.46031513656467
C           27.44558541832443      -18.76831164190943       -2.16972135235870
C           27.15568456860237      -16.33098210894955       -2.01589508008209
C           27.62835547465575      -14.98842261705641       -2.22234917798322
C           26.55991554801387      -14.15935115031953       -1.97585028314158
C           25.45752514083961      -15.03090287732364       -1.61384779482807
C           23.12200147637213      -15.36359127858832       -0.91832810177191
C           21.83457120668466      -14.84720104927507       -0.52892415250172
C           21.08774881634374      -15.93247864880703       -0.14421913176643
C           21.94234403266119      -17.09141380291591       -0.34343633702986
C           22.24988308745035      -19.51572338846688       -0.52142189847388
C           21.74686628050403      -20.86697537154845       -0.40312921549216
C           22.69828618300662      -21.68123967800192       -0.93289709034914
C           23.79011522962123      -20.81565275576875       -1.33250132742114
C           24.99265838693423      -21.26929171383619       -1.83136233069908
H           25.09421670791460      -22.33377005164980       -1.99629140478243
C           27.92267864357892      -17.47082798116781       -2.19902425371567
H           28.97209887493905      -17.33833548178116       -2.42804045145971
C           24.19045184593609      -14.57493435314518       -1.30556344080178
H           24.02372609378114      -13.51061077193164       -1.35274425640792
C           21.52788647878930      -18.39643810857504       -0.15884481088593
H           20.53922520782313      -18.55890656784043        0.25051979370389
C           29.70682164513413      -19.89588802534174       -2.76600894427028
H           30.08443910359991      -20.89415114132085       -2.97343703267468
H           30.26770247251334      -19.48271137365258       -1.92698380233761
H           29.89966040244424      -19.27093647098074       -3.63860754211120
C           27.73294423526957      -22.44286217960423       -2.63753373552342
H           27.40094907786905      -22.76066375183151       -3.62724126674176
H           27.24256560256504      -23.07485565654362       -1.89902489553008
H           28.80522727196509      -22.61384518230861       -2.57009870704259
C           29.00095016711553      -14.58876243246253       -2.63369807792646
H           29.00781465231518      -14.27776412180734       -3.68118078746689
H           29.71102058804139      -15.40516532612437       -2.52292733419633
H           29.33930371971084      -13.74396332127312       -2.03254773977449
C           26.47811529311810      -12.71953788533406       -2.00909189702447
H           25.71802235498913      -12.29412288287654       -1.36501383990483
C           27.22014138369655      -11.88942055753232       -2.73733678783392
H           27.97195329639719      -12.22654759220675       -3.42698129551656
H           27.07927954698677      -10.82338367131011       -2.67976691413211
C           21.46210758920155      -13.40771569703870       -0.51858291097543
H           21.18817701095601      -13.07592291891161       -1.52193564411806
H           22.29318656422210      -12.79170609520533       -0.17832917135597
H           20.61536183875084      -13.23966643164034        0.14270951336388
C           19.74069140470153      -15.99639472127996        0.37037075883429
H           19.55305858034300      -16.81763214612995        1.05265685081685
C           18.73750334363532      -15.16891275172672        0.08819205032053
H           18.82447306704937      -14.36050507826786       -0.61618015415679
H           17.76808469820304      -15.29463439822636        0.54278387547289
C           20.43039211712719      -21.23247945735343        0.18324834425874
H           19.62139868468501      -20.76305161033588       -0.37505256668049
H           20.36859218183037      -20.89925539537216        1.21816630212983
H           20.28726473683576      -22.30955814995110        0.16278621144704
C           22.67588558727153      -23.16736957613695       -1.03483096427644
H           21.65297012099431      -23.52919685362621       -1.11580326598054
H           23.12248929837163      -23.61536350800615       -0.14557275034029
H           23.22975696272467      -23.51003082847897       -1.90430100467529
O           25.40489017838677      -18.21320424334906        0.65501063591555
H           26.30280258771928      -18.59145847266302        0.66110965986203
H           25.31310311874187      -17.66593944425420        1.46382328759289
C           24.81196795095572      -18.54133803683868       -4.90761659530388
H           25.84347325469484      -18.63683594886576       -4.58459036815296
H           24.74469826608611      -18.05242194034255       -5.87367695865548
H           24.34078991852455      -19.51645711072720       -4.94715058492897
S           23.86317597742080      -17.55508449202017       -3.69696502480563
H           24.62045658683905      -16.45071348676934       -3.83760125442015
72
 energy: -105.971340293728 gnorm: 0.044873260286 xtb: 6.7.1 (edcfbbe)
Fe          24.64729791417610      -17.92690866801146       -1.39898329593879
N           26.13956452856559      -19.11871006341208       -1.92743326088836
N           25.83668913116465      -16.33082663898018       -1.65905132762789
N           23.16131407049484      -16.72962765030587       -0.80993463189264
N           23.49403296730323      -19.50895624320522       -1.09243251099072
C           26.10332283327521      -20.47207233149836       -2.05736272519953
C           27.39965629850490      -20.98978100742236       -2.40711992159735
C           28.23307224635665      -19.91736683066726       -2.46450413310938
C           27.42960362692216      -18.75610378238414       -2.18084514274587
C           27.14966152105669      -16.32771633156387       -2.02368732103764
C           27.62340576522810      -14.98802179271619       -2.22412815430828
C           26.55832400192165      -14.15980204040049       -1.97848635759344
C           25.45550782266514      -15.02789097445559       -1.61443154188553
C           23.12872632983056      -15.37348913735354       -0.91391332059217
C           21.84363743681710      -14.86179177567380       -0.52607462619301
C           21.09576108416882      -15.94297175538516       -0.14595280919233
C           21.94496873156846      -17.09956425473020       -0.34803696348187
C           22.25741813443431      -19.51133046747700       -0.53650285324707
C           21.75522317938611      -20.85960963420389       -0.41380679000511