77
 energy: -118.926649022435 gnorm: 0.253515036609 xtb: 6.7.1 (edcfbbe)
Fe           3.33700000000000        2.09100000000000       11.62400000000000
N            1.69000000000000        1.91900000000000       10.51300000000000
N            4.36100000000000        0.93900000000000       10.33500000000000
N            5.03000000000000        2.39600000000000       12.68900000000000
N            2.32400000000000        3.20200000000000       12.95400000000000
C            0.44300000000000        2.45600000000000       10.76500000000000
C           -0.50500000000000        2.05600000000000        9.74000000000000
C            0.17900000000000        1.28200000000000        8.85400000000000
C            1.53900000000000        1.21000000000000        9.33400000000000
C            3.88100000000000        0.35600000000000        9.18300000000000
C            4.88000000000000       -0.49700000000000        8.59100000000000
C            5.98900000000000       -0.43700000000000        9.37400000000000
C            5.67500000000000        0.49700000000000       10.44400000000000
C            6.28300000000000        1.86100000000000       12.45000000000000
C            7.28400000000000        2.48500000000000       13.29800000000000
C            6.61300000000000        3.33500000000000       14.14500000000000
C            5.21400000000000        3.23000000000000       13.77500000000000
C            2.80900000000000        3.75300000000000       14.11700000000000
C            1.73400000000000        4.25200000000000       14.92500000000000
C            0.59300000000000        4.11600000000000       14.20700000000000
C            0.97100000000000        3.47700000000000       12.96800000000000
C            0.12200000000000        3.17600000000000       11.91300000000000
H           -0.90200000000000        3.54100000000000       11.99100000000000
C            2.56700000000000        0.50100000000000        8.71800000000000
H            2.32500000000000        0.00800000000000        7.77700000000000
C            6.55300000000000        0.95100000000000       11.43500000000000
H            7.56400000000000        0.54400000000000       11.40700000000000
C            4.15300000000000        3.80300000000000       14.46700000000000
H            4.40100000000000        4.34800000000000       15.37800000000000
C           -0.43400000000000        0.58600000000000        7.63600000000000
H           -1.29500000000000        1.18100000000000        7.26300000000000
H           -0.79200000000000       -0.42600000000000        7.92300000000000
H            0.32500000000000        0.50500000000000        6.82800000000000
C           -1.99300000000000        2.37600000000000        9.66800000000000
H           -2.15700000000000        3.22000000000000        8.96500000000000
H           -2.36300000000000        2.66800000000000       10.67400000000000
H           -2.55100000000000        1.48800000000000        9.30100000000000
C            4.69300000000000       -1.27300000000000        7.28600000000000
H            4.85100000000000       -0.59100000000000        6.42300000000000
H            3.66200000000000       -1.68300000000000        7.23800000000000
H            5.43300000000000       -2.10000000000000        7.23200000000000
C            7.17500000000000       -1.12000000000000        9.12600000000000
H            7.52700000000000       -1.19700000000000        8.08700000000000
C            8.00300000000000       -1.75100000000000       10.13500000000000
H            7.71500000000000       -1.71500000000000       11.19600000000000
H            8.92900000000000       -2.27300000000000        9.85100000000000
C            8.79400000000000        2.27100000000000       13.15100000000000
H            9.03800000000000        2.06800000000000       12.08600000000000
H            9.11100000000000        1.40200000000000       13.76500000000000
H            9.33600000000000        3.18400000000000       13.47700000000000
C            7.11100000000000        4.17600000000000       15.16200000000000
H            6.59300000000000        5.12800000000000       15.35000000000000
C            8.25400000000000        3.89900000000000       15.99100000000000
H            8.82400000000000        2.96700000000000       15.86300000000000
H            8.57100000000000        4.61600000000000       16.76200000000000
C            1.88600000000000        4.77600000000000       16.34700000000000
H            2.43200000000000        5.74400000000000       16.32900000000000
H            2.46300000000000        4.04800000000000       16.95600000000000
H            0.88300000000000        4.93600000000000       16.79700000000000
C           -0.78300000000000        4.64100000000000       14.59900000000000
H           -0.66800000000000        5.56000000000000       15.21300000000000
H           -1.32100000000000        3.87400000000000       15.19600000000000
H           -1.36500000000000        4.88800000000000       13.68500000000000
O            3.76100000000000        3.56400000000000       10.74700000000000
O            3.70100000000000        3.73900000000000        9.43400000000000
C            2.26300000000000       -1.56600000000000       15.83000000000000
H            3.12300000000000       -2.18500000000000       16.16500000000000
H            1.36200000000000       -2.21200000000000       15.75300000000000
H            2.08900000000000       -0.75900000000000       16.57300000000000
N            2.84100000000000       -1.72600000000000       13.37500000000000
H            2.85900000000000       -2.72600000000000       13.36300000000000
C            2.57100000000000       -0.96400000000000       14.49000000000000
C            3.06800000000000       -0.93300000000000       12.34300000000000
H            3.30700000000000       -1.27900000000000       11.33800000000000
N            2.95400000000000        0.32000000000000       12.74800000000000
C            2.64400000000000        0.32700000000000       14.08800000000000
H            2.50400000000000        1.25400000000000       14.62900000000000
77
 energy: -118.977925402391 gnorm: 0.102299926710 xtb: 6.7.1 (edcfbbe)
Fe           3.35188884411295        2.13924734608367       11.58499231616033
N            1.66855256923710        1.89709984248870       10.51526636426761
N            4.36506025980740        0.92475407409730       10.33182424557021
N            5.04124689156309        2.38300179077056       12.70861364418714
N            2.31703796506038        3.20220484413613       12.96170569534556
C            0.43837243435362        2.44201116810033       10.77314870004268
C           -0.50606587403969        2.05288043536139        9.74437155742553
C            0.17993243653366        1.28057843254583        8.85444510004924
C            1.54107643347665        1.20418671242620        9.33694426919317
C            3.87214139337976        0.35072069092760        9.19110358675736
C            4.87469262081977       -0.48435254918411        8.58190316512495
C            5.98862228615803       -0.43259792596186        9.38623161669277
C            5.66180367842337        0.48805298679654       10.46317982996525
C            6.28656381785448        1.87966249940707       12.42749157134337
C            7.28475241897526        2.47285837645138       13.29237844003265
C            6.61755123344345        3.32194872490224       14.14675902387396
C            5.21214872997218        3.22819906495540       13.77144187070989
C            2.81214864410850        3.73125814360255       14.12371787035669
C            1.73897232159794        4.25647940751665       14.92843744956000
C            0.59536607554538        4.12902225839989       14.19928594960257
C            0.97282345837135        3.47624662318819       12.96359208943690
C            0.12037767995620        3.17183013721871       11.91258724754307
H           -0.89885217666480        3.53372044953642       11.99225834896070
C            2.56683083988094        0.50034754870505        8.72308383121491
H            2.32737597349088        0.01160252076195        7.78530317456537
C            6.54873770505219        0.94880605560320       11.43037327701104
H            7.55773637167742        0.55090701093631       11.39324635016573
C            4.15612076273973        3.79789923772086       14.46751194958300
H            4.40107659338282        4.34557778356954       15.37145839417516
C           -0.41726096066155        0.59632164483826        7.64770276781619
H           -1.27060265293072        1.17165152437475        7.27264567094441
H           -0.77674356373070       -0.40564764839324        7.91653038121040
H            0.31589429961154        0.50371378806323        6.84127905629152
C           -1.97504510545711        2.37898387117312        9.67475157580863
H           -2.15154618387306        3.20888370123829        8.97966819175068
H           -2.36110740635041        2.66342071377954       10.65763845635084
H           -2.53614843764785        1.50933307019043        9.31404511130619
C            4.69420463343117       -1.26293064093174        7.30158253498649
H            4.84626098890171       -0.60100768358282        6.44021542354787
H            3.68333723413626       -1.67884456607085        7.23840465098191
H            5.41735181085556       -2.08281230084306        7.23795416928596
C            7.21046820492025       -1.13084050544869        9.15743794901499
H            7.53496388472759       -1.22007538810391        8.11973507662908
C            7.98501120420867       -1.72433448812030       10.10815264919993
H            7.70602426211454       -1.71148424202354       11.15620143176207
H            8.89498908011489       -2.25090281032831        9.84275530789584
C            8.77285085439597        2.26836538109237       13.15122866448537
H            9.03140820358056        2.07179462770448       12.10521494058977
H            9.10599533590758        1.41559892317953       13.75462011041933
H            9.31446938440531        3.16312136679710       13.47846449050267
C            7.13680392987544        4.16723553364568       15.18074940173300
H            6.60790456098004        5.10301371097947       15.36520629932090
C            8.22482901557243        3.90802610812168       15.95744509430329
H            8.79059711525088        2.98902018647383       15.85655729687355
H            8.54561310993872        4.60313771352564       16.72627172111632
C            1.88846539543185        4.77792758412960       16.33238573823879
H            2.42764536705034        5.73203567550885       16.33229749070443
H            2.45112887938223        4.06405879809642       16.94489269871087
H            0.90545765434013        4.93299391277879       16.78776357325421
C           -0.77022155149293        4.63223525889424       14.58970569670319
H           -0.67078098375137        5.53871275330648       15.19749651047078
H           -1.31428923031724        3.88412837779632       15.17950615567369
H           -1.35861440787305        4.87974818100673       13.70148587525300
O            3.78055477392555        3.59637117531180       10.74214346383700
O            3.69343182150809        3.71849903893167        9.45615839168419
C            2.26595052520741       -1.56886254808107       15.82538777520469
H            3.10847504750257       -2.18108901872578       16.16708609276150
H            1.37508892167644       -2.20417485454016       15.76283977709854
H            2.09030336050781       -0.77576731075666       16.55670700927161
N            2.83763588887820       -1.73198869023490       13.38684664541278
H            2.85759639457137       -2.73733019913644       13.37024359349499
C            2.56901382814320       -0.96952279299239       14.49495057138460
C            3.06485866779441       -0.91464172318044       12.35139358025322
H            3.30093496872225       -1.25660289321975       11.35658576831204
N            2.95726725054092        0.34040544405955       12.73814399763141
C            2.64723749837389        0.32350915423906       14.07372047780470
H            2.50924473933025        1.24045939441344       14.61514376379566
77
 energy: -118.987708090923 gnorm: 0.039381521966 xtb: 6.7.1 (edcfbbe)
Fe           3.36248580476723        2.17826584868148       11.56256886583893
N            1.65701639321713        1.89015263029753       10.51614281746860
N            4.36724738094836        0.92416773449506       10.32858238563341
N            5.05452691441264        2.38492795674760       12.70780800992926
N            2.31424470187825        3.21224785359158       12.96218415431940
C            0.43648256769510        2.42710126215069       10.78423315401355
C           -0.50618011072455        2.04547822888784        9.75348681312720
C            0.18235459276660        1.28025251803664        8.85881703991791
C            1.54325508504249        1.20094666799411        9.34587554832899
C            3.86683904813390        0.35483167599638        9.19813683922247
C            4.86813700332389       -0.47497810686848        8.57887617873545
C            5.97868459243211       -0.42531432125958        9.39044198081916
C            5.64930906275112        0.49093264729799       10.46781113385899
C            6.28762194295224        1.89286480055526       12.40633483080989
C            7.28263139903792        2.46828193456630       13.28150277929277
C            6.61358788412126        3.30791400829861       14.13962479394903
C            5.20788299204613        3.21639791602012       13.76782003049581
C            2.81584046686274        3.71944237566816       14.12291910875921
C            1.74422961547617        4.26131817484391       14.92668854898605
C            0.60164413137074        4.14227886159317       14.18982757077407
C            0.97869263063867        3.48123802985589       12.95690823285200
C            0.11903856676044        3.16525458899756       11.91591469205215
H           -0.89867301761210        3.51986371690716       11.99895610499269
C            2.56638536612946        0.50128476281462        8.73077727947974
H            2.32856929053985        0.01451898438517        7.79552163269104
C            6.54661043510399        0.95143580025435       11.41936598228076
H            7.55543018455677        0.56566882801167       11.36738913895050
C            4.15758254266600        3.78707088218572       14.46857425986066
H            4.40122425400771        4.33765109455783       15.36665440437175
C           -0.39598480589158        0.60646565915280        7.65729108222815
H           -1.24446332589523        1.17415060728432        7.28224136138107
H           -0.75262033323315       -0.39227174226555        7.91747934909789
H            0.33060369821464        0.51049312574811        6.85693253818178
C           -1.95946424064961        2.38110245698560        9.68490627211542
H           -2.13315565486958        3.20624974924726        8.99382383814440
H           -2.35092288535971        2.66388888143305       10.65677235949830
H           -2.52306221178053        1.52171386562734        9.32564969019266
C            4.69486088367739       -1.25191285166060        7.31606195884603
H            4.84173179144382       -0.60011398730819        6.45428242659493
H            3.69482587913930       -1.67416537350503        7.24915810496213
H            5.41415500852003       -2.06446148480830        7.25520013923722
C            7.22164446604856       -1.13888209526160        9.17605550838928
H            7.52827421099191       -1.22108340790844        8.13773117037075
C            7.96367697914614       -1.71099839358386       10.09610885392483
H            7.70151983652095       -1.70010681862234       11.14069305300891
H            8.87405345177821       -2.22875438583347        9.84472311087197
C            8.75388608400844        2.26417674075897       13.15262163856070
H            9.02163058279298        2.07314572529551       12.11609688045228
H            9.09212206012648        1.41816106310123       13.75156586180447
H            9.28730557083019        3.15143456185927       13.48837359341696
C            7.14108782203647        4.15426827891919       15.19012236782740
H            6.59910047552474        5.07868074487775       15.36198194871493
C            8.19563333871980        3.90149034622850       15.93834956956748
H            8.77124173457965        2.99727030322688       15.84554611818385
H            8.53350135407407        4.59502057756767       16.69095821033259
C            1.89330454735075        4.78219738022910       16.31707416082809
H            2.42995759743499        5.72935799478339       16.32529120900860
H            2.44954920493648        4.07435240343985       16.93008482814805
H            0.91915718140042        4.93444585441157       16.77320967556300
C           -0.75810839509151        4.62485907428718       14.57581734195708
H           -0.67076885100935        5.52273191437408       15.18485642255871
H           -1.29738628863148        3.87651469005765       15.15738378689482
H           -1.35118193849719        4.86774333650304       13.69956739994514
O            3.79408089693585        3.60876026277122       10.74597158945319
O            3.68230181715806        3.68430750596650        9.47611029896370
C            2.26747457683506       -1.57152134406506       15.82547039119530
H            3.10134557814489       -2.18096387339150       16.16931833193707
H            1.38156551683071       -2.20182589763510       15.77028397175791
H            2.09088278197768       -0.78303124029741       16.54848497783252
N            2.83415681294200       -1.74056256976384       13.39465382651832
H            2.85690822846277       -2.74769863562082       13.37215376706146
C            2.56745503862746       -0.97678814041306       14.50021398469718
C            3.05932381372023       -0.90608051513757       12.36027656788629
H            3.29283300882597       -1.24049903615001       11.37032673424152
N            2.95297923884052        0.34389254876471       12.73871576619076
C            2.64850994067825        0.31578013496998       14.06856179968696
H            2.51277620033094        1.22556864979573       14.61370184995636
77
 energy: -118.989759747367 gnorm: 0.013897528748 xtb: 6.7.1 (edcfbbe)
Fe           3.36643307937059        2.19294042085353       11.55940232529957
N            1.65536764094030        1.88671652986302       10.52551330514680
N            4.36491235987863        0.93086260424718       10.32845319635403
N            5.05438443999069        2.38167418409349       12.70132131013208
N            2.31707812261213        3.21874947860799       12.95736124426950
C            0.43559638541128        2.41758580629560       10.79561501445024
C           -0.50589297364992        2.03757397612333        9.76534262179619
C            0.18525854176648        1.27995017759446        8.86780907962317
C            1.54382053447900        1.20064709831865        9.35647413949720
C            3.86252370546462        0.36074339837472        9.20193623389428
C            4.86222096859885       -0.46839145985312        8.57990888798822
C            5.97237484891295       -0.41362889877898        9.38544862662310
C            5.64532671753141        0.50125085407765       10.46160842764884
C            6.28710803798880        1.90015727313467       12.39096389805696
C            7.27802430848025        2.46599342447942       13.27519212663336
C            6.60450628526958        3.29566358827296       14.13553898249239
C            5.20279821721454        3.20553711222504       13.76397446964665
C            2.81866614003447        3.71930366919062       14.11785597251133
C            1.74927117152429        4.26874314397014       14.91950238804139
C            0.60840528115866        4.15067799055882       14.18205197311409
C            0.98413881870253        3.48643269424692       12.95231360353147
C            0.11751599270479        3.15985064281118       11.92209899875243
H           -0.90277699759243        3.50402411967922       12.01109403185143
C            2.56348873898261        0.50315840305845        8.73673727937030
H            2.32491183344252        0.01591371795018        7.80270735829398
C            6.55021423885648        0.96497438326409       11.40212124787081
H            7.56162196753549        0.59001033026274       11.33565089257275
C            4.15770335036522        3.77881485669361       14.46779457463566
H            4.40283412497405        4.32368785586300       15.36791864256964
C           -0.37605083110727        0.61327034522638        7.65838059326431
H           -1.22258404121726        1.18042267762766        7.27959259949396
H           -0.72815028065223       -0.38917055018440        7.91020996299675
H            0.36045397098049        0.52504922085614        6.86616078745540
C           -1.95370149090698        2.38470349956059        9.69623838122052
H           -2.11617376746968        3.21365333436391        9.00719364735761
H           -2.34455221215777        2.66888400929066       10.66798585035843
H           -2.52332859020970        1.53092260711297        9.33404264989313
C            4.69040362868952       -1.24694782520101        7.32201340342102
H            4.83147620152006       -0.59592349057118        6.45875326449720
H            3.69376595559535       -1.67760239640210        7.25809999618739
H            5.41699125489060       -2.05299605760880        7.26594470431386
C            7.21934168199428       -1.12609665198424        9.17150187619934
H            7.51814828722617       -1.21584759216999        8.13240949997315
C            7.96677760728147       -1.69729980094755       10.10756460147672
H            7.69317850650678       -1.69592715190929       11.14925468347763
H            8.87186843514908       -2.22612871137800        9.85952296728573
C            8.74648837925250        2.25919221668067       13.15571350898798
H            9.02249566137269        2.07556981410288       12.11997755330681
H            9.07770402741190        1.40844196666669       13.75155191571753
H            9.27439475485693        3.14402025419091       13.50551928498064
C            7.12682510320029        4.14629603965632       15.18574581343543
H            6.57226820934768        5.06231131890727       15.35785722949245
C            8.20127707868872        3.89952879191655       15.92502038892891
H            8.76568213627982        2.98747807005580       15.84243598017993
H            8.53308575239139        4.58883370742813       16.68310654759052
C            1.90128024326786        4.79336112281861       16.30594669912928
H            2.44006356892916        5.73950630659682       16.31238823018650
H            2.45684329524473        4.08572956086094       16.91971906070978
H            0.92763358281473        4.94745745184434       16.76219625941049
C           -0.75508304147235        4.61796028632838       14.56339711521723
H           -0.68040166379959        5.51351935062792       15.17709371127652
H           -1.28630483852944        3.85802748265027       15.13738558143195
H           -1.34836813541732        4.85652199543554       13.68601798015088
O            3.79991676272124        3.60625914719474       10.74091830396370
O            3.66673287183399        3.65274300083491        9.46939242704054
C            2.26755713295191       -1.57774074062326       15.83005001636919
H            3.10038714664701       -2.18761459447438       16.17610202382273
H            1.38081745536090       -2.20756368714464       15.77877440086946
H            2.09129780408143       -0.78712415546429       16.55083444969940
N            2.82988333995502       -1.74636486572290       13.39715723681854
H            2.85342949833714       -2.75347462523148       13.37106161065717
C            2.56606868740461       -0.98360348211504       14.50473371757832
C            3.05222919086549       -0.90614916731047       12.36488852205439
H            3.28244634237522       -1.23459149389266       11.37298389975395
N            2.94837896726406        0.34102814677144       12.74608167239285
C            2.64684412591616        0.30950752639298       14.07467889711008
H            2.51342636338465        1.21635041285676       14.62468964019661
77
 energy: -118.990877382671 gnorm: 0.012228083553 xtb: 6.7.1 (edcfbbe)
Fe           3.37082456542960        2.20488896331616       11.55805564434300
N            1.65560670204259        1.88638085905889       10.53691901039630
N            4.36439285422975        0.94014725527465       10.32827365535879
N            5.05380918628354        2.38514754852283       12.68577230700287
N            2.32315569041018        3.22636460274420       12.94890269038941
C            0.43440427954650        2.40827012371388       10.80852503314630
C           -0.50682889621034        2.02825529645242        9.77915010737222
C            0.18859746655568        1.28133631935281        8.87754033830005
C            1.54552611121589        1.20455473229004        9.36779793022714
C            3.85921091685387        0.36857695877577        9.20551580404092
C            4.85687676814486       -0.46077766359538        8.58001762559084
C            5.96722359281831       -0.40275004342688        9.37979557859951
C            5.64533201983483        0.51604493643076       10.45192393840024
C            6.28756713926010        1.91123147282262       12.37287805946279
C            7.27467448535194        2.46521372395431       13.26837373728040
C            6.59500388709080        3.27989369238620       14.13547186453459
C            5.19838715651594        3.19730127869824       13.75607069983229
C            2.82322289665719        3.72546358563446       14.10797609468719
C            1.75614006126821        4.28013743648068       14.90922139612031
C            0.61683969757980        4.16097115617674       14.17252121662500
C            0.99176587235734        3.49243927953257       12.94633498626603
C            0.11489092544165        3.15268874335250       11.93083189491872
H           -0.90861422226216        3.48344923055614       12.02913733631242
C            2.56069397276360        0.50704944672237        8.74275724111069
H            2.32024851730199        0.01819977935466        7.81064057442021
C            6.55899007215515        0.98616602804710       11.37929552852315
H            7.57350034631597        0.62496971431031       11.29480445243425
C            4.15910624366196        3.77260310339412       14.46481398465735
H            4.40593298948581        4.30331210032740       15.37214625085558
C           -0.35142702948881        0.62266315349338        7.65543243376820
H           -1.19731112767138        1.18661865719042        7.26939677773371
H           -0.69571248643666       -0.38737454206613        7.89148312450913
H            0.40122295907063        0.55128403235543        6.87479800106308
C           -1.95039653387201        2.38883854915509        9.71039985687869
H           -2.09880122360636        3.22533090499925        9.02599814080337
H           -2.33861058108878        2.67379743322551       10.68404104390188
H           -2.53072777942937        1.54399174200550        9.34216980906810
C            4.68294473184763       -1.24349608295129        7.32630020400673
H            4.81269460800836       -0.59333370317084        6.45966541146089
H            3.68993559985662       -1.68549905930486        7.26937598212071
H            5.41943618092084       -2.04173161985746        7.27155904934332
C            7.21297275188493       -1.11944822495428        9.16886069505562
H            7.51651438942681       -1.20732804639221        8.13309978670843
C            7.95441736809532       -1.69067966337328       10.11579298607099
H            7.68329226479672       -1.66229313427136       11.15725904239151
H            8.86929181466521       -2.20642770008028        9.87480935943756
C            8.74231518674399        2.25340732612456       13.16105245845700
H            9.03013299461972        2.08087938902769       12.12581507627394
H            9.06039883575689        1.39250681354107       13.75091545927501
H            9.26825110866546        3.13237928012725       13.53086380729878
C            7.10716596892301        4.12843565262570       15.19079809742719
H            6.54807024906211        5.04077066383669       15.35803496222518
C            8.18838709631014        3.88273674675411       15.92858669289771
H            8.76878389862205        2.98413879813216       15.82104033783052
H            8.53489107531238        4.58648284993226       16.66742660355839
C            1.91347327054182        4.81286899551637       16.29140328197226
H            2.45510266038883        5.75844836021879       16.28991525247057
H            2.47026400804634        4.10709966026455       16.90771595168258
H            0.94046955350618        4.97248582555180       16.74916376216271
C           -0.75372108132161        4.60912446099664       14.54799768647162
H           -0.69903435940095        5.50083001786454       15.17052661603636
H           -1.27542783123905        3.83209230156841       15.11012466689466
H           -1.34464234867307        4.84457360665267       13.66701461795295
O            3.80102438186433        3.59598107770071       10.73188379177641
O            3.64849728234340        3.60986983746236        9.45835565687058
C            2.26684610838702       -1.58985816230540       15.84113085612722
H            3.10006014863704       -2.20017064068159       16.18802332341100
H            1.37848830069145       -2.21938791415621       15.79324726478246
H            2.09242022159378       -0.79569281426037       16.56019329983078
N            2.82134242620256       -1.75915901460677       13.40321536313810
H            2.84510654468927       -2.76570967745832       13.37238743321325