77
 energy: -118.995472144289 gnorm: 0.000195985960 xtb: 6.7.1 (edcfbbe)
Fe           3.35416624216473        2.17289608199155       11.57114047823584
N            1.62708110424097        1.79869683493807       10.58923136379742
N            4.34826581009309        0.91852409039795       10.33567411111304
N            5.03786855935603        2.39723769986050       12.66744111520115
N            2.31146917385973        3.21313703289846       12.94981845791661
C            0.39901967226636        2.30081406518032       10.86818658048021
C           -0.54906103312731        1.90957667375845        9.84629667578571
C            0.14761999490053        1.17423214506082        8.93839470966637
C            1.51110393745126        1.11517106284591        9.42124511349023
C            3.83959920619423        0.34154364449785        9.21677439647295
C            4.85955022795443       -0.41297076545804        8.53504326376993
C            5.99815763637480       -0.29563675858174        9.28679989289526
C            5.65945298238492        0.57565027979284       10.39533211346924
C            6.27372751527564        1.91557558212144       12.36500856524085
C            7.24390329730577        2.38359730115655       13.32345054695715
C            6.55786306868876        3.16010152994129       14.22038256981411
C            5.17673531861901        3.16043280536010       13.77762635275735
C            2.82350654727709        3.82535986263678       14.04826846553011
C            1.77726294465488        4.51138321567604       14.77518177566856
C            0.62589246407690        4.29911179573290       14.08173612557126
C            0.98172856569767        3.48976029244360       12.93640190034903
C            0.08210059180673        3.07512619098307       11.97048006285294
H           -0.94375336776632        3.39393315558049       12.07654293126449
C            2.52739266119529        0.43385547587044        8.78064847981137
H            2.28369873630102       -0.05801365055760        7.85107414516473
C            6.57006382900640        1.06117683118762       11.31625759334834
H            7.59925968704425        0.76112065995765       11.19366914288434
C            4.14982569043953        3.81172242222970       14.43869112043735
H            4.40446942406245        4.35952477925701       15.33334136657581
C           -0.32412648848129        0.53514555423243        7.67824022399721
H           -1.38677456417980        0.70955735680865        7.53042500183353
H           -0.15224891848529       -0.54131964702427        7.70227451937922
H            0.21340895028494        0.94556610044998        6.82406496613445
C           -1.98822714566740        2.29339530190901        9.84740898791118
H           -2.09087610054197        3.37699751915657        9.79497571997982
H           -2.47672929645125        1.95044963600367       10.75961370003581
H           -2.50558448513726        1.85901418611113        8.99586479895514
C            4.65295329036913       -1.19076556123827        7.28216370702304
H            4.28898022617886       -0.53888772703143        6.48839494093723
H            3.91761303686068       -1.98184358262728        7.43374676692544
H            5.58399513704621       -1.64872230470089        6.95859977466741
C            7.28280281573573       -0.91407613234113        9.02540841247515
H            7.57015405977990       -0.96112629691971        7.98111345791904
C            8.08386708168520       -1.44407661157999        9.94222329467526
H            7.82010329758260       -1.46933546990516       10.98624400491532
H            9.02506497891356       -1.89493198474754        9.67510482249354
C            8.70481603147205        2.10703410781156       13.26472084682795
H            9.05442137741906        2.11310743828112       12.23397196655885
H            8.93406996981867        1.13027134727980       13.69392347530387
H            9.25004662231716        2.86467796765392       13.82350197467620
C            7.05338727003742        3.88249281268481       15.37241351988775
H            6.55259016827054        4.81895645392340       15.58678849024311
C            8.04533589668218        3.48485139284312       16.16207100372861
H            8.54699041892672        2.54316300937418       16.02271039225662
H            8.37428341559892        4.08199626601891       16.99609653486261
C            1.99499375673123        5.28429573449228       16.03016211554719
H            2.67433888293226        6.11728630924282       15.85013930853251
H            2.43269656847385        4.65076892645184       16.80175179683627
H            1.05654741334771        5.68387712510081       16.40573292651547
C           -0.75362731039340        4.78009648919011       14.37251404756785
H           -0.77811047822430        5.34900436738364       15.29834278414286
H           -1.44125566755201        3.93954633769245       14.46600789154817
H           -1.10995110701970        5.42124992756868       13.56651519517440
O            3.72109753904610        3.55821274708860       10.70604025676852
O            3.55431739001702        3.54089410217601        9.43609200556043
C            2.68749715337193       -1.74366929130708       15.91571435250624
H            3.34897379493849       -2.60971803277473       15.93133369563289
H            1.68009296420794       -2.08022072205176       16.16045642951879
H            3.01457341568966       -1.04221736332660       16.67679648279049
N            2.35547379600359       -1.73388813039572       13.43278951881235
H            2.04932792695224       -2.69147311318839       13.37017056076572
C            2.71435202193759       -1.08385952175411       14.58658739547748
C            2.49073207464799       -0.85950363071691       12.41315654191319
H            2.28005784475405       -1.09111992883614       11.38891770597040
N            2.91080569428934        0.29926039483869       12.84618408245773
C            3.05570046259943        0.17965939220367       14.19468859235631
H            3.39407832944849        1.00528641173876       14.78570159247649
