87
 energy: -128.285353479260 gnorm: 0.397251261699 xtb: 6.7.1 (edcfbbe)
Fe           4.19500000000000      -24.28600000000000        9.14600000000000
N            5.42000000000000      -22.60100000000000        8.85200000000000
N            3.76300000000000      -24.23000000000000        7.07900000000000
N            3.01100000000000      -25.96400000000000        9.50100000000000
N            4.67500000000000      -24.30600000000000       11.23200000000000
C            6.09200000000000      -21.98500000000000        9.75100000000000
C            6.86200000000000      -20.89200000000000        9.25200000000000
C            6.60600000000000      -20.88800000000000        7.85700000000000
C            5.65700000000000      -21.93700000000000        7.62600000000000
C            4.15700000000000      -23.39000000000000        6.10200000000000
C            3.63000000000000      -23.65100000000000        4.83900000000000
C            2.81100000000000      -24.88800000000000        5.08800000000000
C            2.95100000000000      -25.12400000000000        6.48100000000000
C            2.36300000000000      -26.54500000000000        8.58900000000000
C            1.61100000000000      -27.69000000000000        9.06800000000000
C            1.86700000000000      -27.74299999999999       10.57900000000000
C            2.81100000000000      -26.61700000000000       10.73100000000000
C            4.24500000000000      -25.21900000000000       12.23700000000000
C            4.79500000000000      -24.87800000000000       13.63900000000000
C            5.55500000000000      -23.69600000000000       13.39900000000000
C            5.46400000000000      -23.40300000000000       11.86800000000000
C            6.06500000000000      -22.39000000000000       11.20300000000000
H            6.64700000000000      -21.73400000000000       11.84600000000000
C            5.04300000000000      -22.32500000000000        6.43700000000000
H            5.29000000000000      -21.68500000000000        5.59300000000000
C            2.37000000000000      -26.11800000000000        7.19500000000000
H            1.75400000000000      -26.75800000000000        6.57200000000000
C            3.41300000000000      -26.24300000000000       11.97400000000000
H            3.16300000000000      -26.87500000000000       12.82500000000000
C            7.16900000000000      -19.97400000000000        6.71800000000000
H            7.87600000000000      -19.23500000000000        7.15100000000000
H            6.33500000000000      -19.42900000000000        6.22700000000000
H            7.70900000000000      -20.59400000000000        5.97100000000000
C            7.75400000000000      -19.96100000000000       10.05500000000000
H            8.65100000000000      -20.51600000000000       10.40400000000000
H            7.20000000000000      -19.58000000000000       10.93900000000000
H            8.08100000000000      -19.11199999999999        9.41700000000000
C            3.86300000000000      -22.87000000000000        3.47400000000000
H            4.95300000000000      -22.73000000000000        3.30800000000000
H            3.37500000000000      -21.87300000000000        3.52400000000000
H            3.44300000000000      -23.45700000000000        2.62900000000000
C            2.01600000000000      -25.67100000000000        3.96100000000000
H            1.32800000000000      -25.12100000000000        3.30200000000000
C            2.14200000000000      -27.02900000000000        3.75800000000000
H            2.81600000000000      -27.62800000000000        4.38800000000000
H            1.57000000000000      -27.53000000000000        2.96300000000000
C            0.67900000000000      -28.65700000000000        8.12500000000000
H            1.30700000000000      -29.12200000000000        7.33600000000000
H           -0.11900000000000      -28.05400000000000        7.64200000000000
H            0.22500000000000      -29.46000000000000        8.74400000000000
C            1.40000000000000      -28.60800000000000       11.59400000000000
H            2.10100000000000      -28.64200000000000       12.42300000000000
C            0.43500000000000      -29.35500000000000       11.85400000000000
H           -0.39400000000000      -29.46500000000000       11.13900000000000
H            0.40000000000000      -29.91300000000000       12.80100000000000
C            4.50600000000000      -25.64300000000000       14.91800000000000
H            4.85300000000000      -26.69300000000000       14.80900000000000
H            3.41300000000000      -25.64399999999999       15.11600000000000
H            5.04500000000000      -25.17200000000000       15.76700000000000
C            6.30600000000000      -22.87500000000000       14.39900000000000
H            7.38600000000000      -23.13200000000000       14.35400000000000
H            5.92700000000000      -23.09000000000000       15.42100000000000
H            6.18200000000000      -21.79600000000000       14.16700000000000
C           -0.44100000000000      -21.83800000000000       11.23000000000000
H           -1.36800000000000      -21.97000000000000       10.63200000000000
H           -0.37000000000000      -20.77800000000000       11.55400000000000
H           -0.48700000000000      -22.50400000000000       12.11800000000000
N            1.04600000000000      -21.53200000000000        9.22300000000000
H            0.52600000000000      -20.76200000000000        8.85500000000000
C            0.74400000000000      -22.19100000000000       10.39700000000000
C            2.11600000000000      -22.07800000000000        8.67800000000000
H            2.56700000000000      -21.75100000000000        7.74200000000000
N            2.52400000000000      -23.06500000000000        9.45700000000000
C            1.68200000000000      -23.15600000000000       10.54000000000000
H            1.83200000000000      -23.90100000000000       11.31100000000000
C            9.39900000000000      -26.42600000000000        8.76900000000000
H            9.88400000000000      -26.52700000000000        7.77400000000000
H            9.55100000000000      -27.36600000000000        9.34100000000000
H            9.86200000000000      -25.57300000000000        9.31000000000000
N            7.10000000000000      -27.06200000000000        7.93900000000000
H            7.40500000000000      -27.90200000000000        7.49000000000000
C            7.93300000000000      -26.17500000000000        8.58800000000000
C            5.85500000000000      -26.62400000000000        8.00900000000000
H            4.99500000000000      -27.13700000000000        7.58100000000000
N            5.85100000000000      -25.48300000000000        8.67400000000000
C            7.13800000000000      -25.17700000000000        9.04300000000000
H            7.36700000000000      -24.27500000000000        9.59600000000000
87
 energy: -128.387751986273 gnorm: 0.181609271229 xtb: 6.7.1 (edcfbbe)
Fe           4.20159367243667      -24.28264080816442        9.15510961009248
N            5.40010834522225      -22.60889422395094        8.84513448770305
N            3.76214514323292      -24.23171548449773        7.08438734329319
N            3.02726060738865      -25.95776529411388        9.52242491039643
N            4.67323971469181      -24.31877755357919       11.25481028884261
C            6.08997982009024      -21.98969822332936        9.78167546773407
C            6.85952496232356      -20.89344517652107        9.24067569482684
C            6.59900858590381      -20.88878147256007        7.86689938744925
C            5.65393322880388      -21.95452915971272        7.63131561142848
C            4.16445525792960      -23.37515156536929        6.11450823319610
C            3.61089599388373      -23.67864597623115        4.83722168502294
C            2.81936640484101      -24.87173131290426        5.05928621561966
C            2.94992048377383      -25.13761221724509        6.47657704382222
C            2.34659534980315      -26.56449372049627        8.57077229411741
C            1.59055322788709      -27.69681969657894        9.07707220134819
C            1.87716235387156      -27.72308069498978       10.51170723723481
C            2.80941296502201      -26.61562741916385       10.72034737261276
C            4.24511554652506      -25.21353368934966       12.22993211838200
C            4.79710315735982      -24.85279535208419       13.58841924367224
C            5.54008250985689      -23.70799829517062       13.36844466660397
C            5.46039130284026      -23.40421820770349       11.87192405079571
C            6.07692287133905      -22.37230358933243       11.20179730084705
H            6.66023287737508      -21.71994219221825       11.83915612626523
C            5.05148193069405      -22.31476510089170        6.42980682107596
H            5.29863665554945      -21.67810841196733        5.58731658291989
C            2.34482114909902      -26.15628319235228        7.19021293861269
H            1.73116543483947      -26.78388615399137        6.56483171122419
C            3.39953405538316      -26.25494287811000       11.96229230661919
H            3.15201285859272      -26.88164027185693       12.81399590873909
C            7.15827518124054      -19.99002680435967        6.74995435686058
H            7.86292479874097      -19.24978333038140        7.15049321892701
H            6.34832040208592      -19.44524560646432        6.24213319821899
H            7.69224787010698      -20.58679601873144        5.99444843937419
C            7.74647838845674      -19.97179200666272       10.04082567998420
H            8.63834823228129      -20.50737127360844       10.39852693494978
H            7.20965969847788      -19.58602429771097       10.91974578095597
H            8.07550277390411      -19.12435885400009        9.42700324255204
C            3.85375393212797      -22.90001577247780        3.51338633989310
H            4.92800111794161      -22.74182109223880        3.32534189046847
H            3.38131310953381      -21.90402670834468        3.53540747897514
H            3.44651783166763      -23.45250423546338        2.65613908080331
C            2.04464848490784      -25.66809669313379        3.99425185378639
H            1.36311531040291      -25.11627781533109        3.33531214080593
C            2.14749783920019      -26.99428875505831        3.77949754136178
H            2.80732046581038      -27.61370300943145        4.38083270714026
H            1.58524789196392      -27.50038875836296        2.98921505839417
C            0.70697139501858      -28.63092094117804        8.16320991462530
H            1.30506769180861      -29.10117522936505        7.36615160572236
H           -0.09231970957125      -28.05786412520572        7.66761648546723
H            0.24148184942850      -29.43618492408445        8.74470573691287
C            1.44105443181337      -28.58968339708556       11.57442803551855
H            2.13696656357345      -28.60999398061854       12.41482115111669
C            0.41236584157019      -29.36806595800919       11.83942498151958
H           -0.41097813181877      -29.47666926536356       11.14313502984540
H            0.37542783903186      -29.91539286701240       12.77798090111654
C            4.51544277975633      -25.61925248023709       14.87508081719691
H            4.84798381798541      -26.66784701330943       14.80108583057985
H            3.43700641281278      -25.63859867126496       15.10380587816763
H            5.03456276727206      -25.17519848899093       15.73873738126807
C            6.29500786793147      -22.88851799017964       14.37778475266952
H            7.37003052510063      -23.12699207344127       14.35254306637877
H            5.93247106296633      -23.08634403529771       15.39748450883499
H            6.18376975918211      -21.81452529661735       14.17125209738187
C           -0.44303186738044      -21.83567436175800       11.22863183034160
H           -1.36312627243674      -21.96570481386983       10.64372401644544
H           -0.37759149599616      -20.79001564708876       11.55574775811442
H           -0.48664417199272      -22.49099761186105       12.10527380474922
N            1.03466822313966      -21.52876540701568        9.22933822972609
H            0.51518444181355      -20.75504877197937        8.85592687464022
C            0.73732614487761      -22.18855512674470       10.39723302758210
C            2.12264734688192      -22.08868743366804        8.68843981761361
H            2.56864774892571      -21.76406116307948        7.76005674678648
N            2.54166459406096      -23.07269228571785        9.45746078800054
C            1.68915543145939      -23.15295251442317       10.52767402996359
H            1.83441733477326      -23.89200610931628       11.29650897307929
C            9.39841167762505      -26.42702343361864        8.76336208540320
H            9.88605244084804      -26.52787927445886        7.78522084307250
H            9.55579715611586      -27.35242766921812        9.33335858195347
H            9.85420897440972      -25.58850546253379        9.30156217182235
N            7.11290865781335      -27.06617109308698        7.94089507376888
H            7.41462022172427      -27.90981320396855        7.48751280784179
C            7.93880698512833      -26.18098504719461        8.59041931856369
C            5.85557248412436      -26.61113808165893        8.01692040857019
H            5.00332528797237      -27.11992979575212        7.59109972797524
N            5.83708637381169      -25.47543453520714        8.68192118463843
C            7.12648530323980      -25.18575254850389        9.04201583350550
H            7.35926441978903      -24.28920350481763        9.58987808757104
87
 energy: -128.431638939807 gnorm: 0.056940591614 xtb: 6.7.1 (edcfbbe)
Fe           4.20432900416069      -24.28148887830728        9.15514948929253
N            5.38079443873225      -22.62389717375635        8.84399707019715
N            3.75779353217853      -24.24183789995313        7.09171144663213
N            3.04078822585847      -25.94989035694507        9.52385153440342
N            4.67020333339288      -24.32567644884079       11.26368872204780
C            6.08164141513085      -22.00264931304403        9.81449922292399
C            6.84975034294408      -20.90274503988220        9.23271136370661
C            6.58795090945714      -20.89872254153824        7.88166640921056
C            5.63987322489184      -21.97890458837477        7.64831781342301
C            4.16945623882292      -23.36732797590674        6.13485265478158
C            3.59297385281013      -23.71055043517163        4.84457122642650
C            2.83798343330491      -24.85751605452230        5.04675561794380
C            2.95249897402439      -25.15596277665633        6.48193189577139
C            2.33630401921034      -26.57135212129023        8.54597077445004
C            1.58938886625915      -27.69706175607670        9.08947775250735
C            1.87085813250425      -27.71470244739469       10.44920657281265
C            2.80822825075579      -26.61339873735668       10.69298616968960
C            4.24261605307384      -25.20539822064071       12.20816023974975
C            4.79059570717963      -24.83639255115038       13.53157821956925
C            5.52828369992617      -23.71329573582545       13.32730782370989
C            5.45587373192521      -23.40401066653815       11.86835261956695
C            6.08406279221033      -22.35678589488905       11.19297104167733
H            6.67344374414120      -21.70913884926673       11.82713141406074
C            5.05321771681490      -22.31071620774279        6.42775862108268
H            5.30875338473913      -21.67704792180545        5.58683203621739
C            2.32337463154261      -26.18955077418620        7.18512803768967
H            1.70752062969361      -26.80912798805948        6.55534333725290
C            3.38566646562709      -26.26350440359960       11.93501357079177
H            3.13906435300408      -26.88120374941801       12.79148979563878
C            7.14257680562799      -20.01187953722008        6.78733217481458
H            7.84595355110066      -19.27192197299700        7.16919645842180
H            6.34871576595206      -19.46667950780552        6.26792913331599
H            7.67244598878913      -20.59515793047488        6.02742192025094
C            7.73551602132380      -19.98544876266544       10.02525648283809
H            8.62384491787959      -20.50853736059492       10.38821809478156
H            7.20992970072423      -19.59513656659494       10.89960521726177
H            8.06683314823473      -19.13902399774295        9.42688983305071
C            3.83980233690755      -22.93804983792248        3.55828065826301
H            4.90526158849889      -22.76970279181253        3.36483001473978
H            3.37809621260775      -21.94253559357620        3.56983208499022
H            3.44123480706958      -23.46497804734786        2.69033222174221
C            2.08652196059435      -25.64468461125136        4.03141968571836
H            1.40812083930302      -25.09040619747233        3.37665536999899
C            2.16298491611393      -26.95328932162458        3.80983250393584
H            2.80805547179081      -27.59980814132859        4.38519754326942
H            1.59884421654715      -27.45794349034368        3.02847569894225
C            0.73975299259407      -28.59786616736108        8.21709892662908
H            1.32288541780596      -29.06715777429180        7.41420616244816
H           -0.05986046408795      -28.04412244239541        7.71013041750342
H            0.26623305197944      -29.40791688733108        8.77069375038054
C            1.46677905906580      -28.57890845516269       11.55338895195460
H            2.16326374853975      -28.58546955566188       12.39195478472889
C            0.41042460792550      -29.36131739734362       11.80868692163298
H           -0.41331131992276      -29.47522488396860       11.13139505860993
H            0.36613605587855      -29.90091388457182       12.74262048555451
C            4.52229308102679      -25.59556170520294       14.82549509271536
H            4.85028053031856      -26.63915389950646       14.76770965756204
H            3.45454064887028      -25.62126129988916       15.07107441668108
H            5.03315283511268      -25.15974165211235       15.68922122403512
C            6.28348662231469      -22.90121333213706       14.34988369462425
H            7.35304859781161      -23.13144429371835       14.33679417672688
H            5.92662421950494      -23.09421232109642       15.36412192749961
H            6.17833505182368      -21.83157231719670       14.16232517685600
C           -0.44397593557952      -21.83559082160550       11.22797379845145
H           -1.36095514150873      -21.96220790380632       10.65311628195381
H           -0.38309051761795      -20.79903501102725       11.55744066494276
H           -0.48577919472996      -22.48237069130844       12.09801488609942
N            1.02751133473640      -21.52846054470474        9.23305369014341
H            0.50933334005171      -20.75303638611680        8.85371660041585
C            0.73355562932932      -22.18924614201626       10.39654265268437
C            2.13159860656797      -22.09711787105186        8.70030406324658
H            2.57365185137896      -21.77550453968362        7.77790337422083
N            2.55916236601379      -23.07637773369807        9.46205878473753
C            1.69713714265247      -23.14969302382288       10.51889248153305
H            1.83482941291709      -23.88397442969342       11.28703494387003
C            9.39729405201460      -26.42647581554570        8.75878080393756
H            9.88672879068215      -26.52810939809384        7.79158574408870
H            9.56120700798171      -27.34258086224485        9.32682256230235
H            9.84831843214928      -25.59778726390429        9.29519752904212
N            7.12044162188435      -27.06905051846881        7.94371900423763
H            7.41767222807040      -27.91488248992465        7.48576619455303
C            7.94109808445368      -26.18535283257308        8.59452031927282
C            5.85521053916182      -26.59937638207188        8.02667457969451
H            5.00904151376422      -27.10269485806842        7.60111078336061
N            5.82591960247557      -25.47011354689651        8.69313679050132
C            7.11622676058573      -25.19461580844508        9.04536862818179
H            7.35577038262175      -24.30324567936571        9.58934642282331
87
 energy: -128.448403561100 gnorm: 0.036315747575 xtb: 6.7.1 (edcfbbe)
Fe           4.20376502484337      -24.28255200255852        9.15032550968407
N            5.36167433693306      -22.63863609613459        8.85238039327638
N            3.75513072836105      -24.25917684188442        7.11016511881212
N            3.05140868990024      -25.93838017954895        9.50372924773947
N            4.66951462003414      -24.31537734941302       11.23656472005528
C            6.06820383510880      -22.01230717391605        9.82884880426025
C            6.83526142579138      -20.91561087260392        9.23699103370464
C            6.56915753237378      -20.91678452594841        7.89797766063806
C            5.62262390510294      -22.00124966007935        7.66887103417643
C            4.17257141741659      -23.37388139769477        6.16555643954807
C            3.59574668702641      -23.72159320851339        4.87263146847908
C            2.85574197954234      -24.86018174863565        5.06621670585945
C            2.95928682343017      -25.17399979416410        6.49767908156373
C            2.33709186855234      -26.56671890259599        8.52499924729614
C            1.59001826813947      -27.68101722476053        9.08918305686750
C            1.88286650136623      -27.70427900774007       10.43100618579372
C            2.81716271652745      -26.59767231892438       10.66739556147624
C            4.23838713316929      -25.19377796365464       12.17199438137822
C            4.77940865961081      -24.82904054684165       13.48301838935146
C            5.52397524049889      -23.70571368938594       13.28669153251398
C            5.45241978279438      -23.39796043826249       11.85034939601384
C            6.08754449380889      -22.34547868882699       11.18719770407297
H            6.68810399429034      -21.70341453837282       11.81906886347108
C            5.05049008101229      -22.31986647053989        6.44050175644512
H            5.31711787045168      -21.68827018077812        5.60046413578817
C            2.31247455030382      -26.21150570255751        7.17504716207603
H            1.68867851786570      -26.82792116485051        6.54250157375665
C            3.38034814793561      -26.25669577160489       11.90364374071658
H            3.12654412471056      -26.86927617511190       12.76069837821777
C            7.12299945269925      -20.03438067521077        6.81813334550896
H            7.82489335336775      -19.30042741391357        7.20967745272532
H            6.32951459825046      -19.49049620350330        6.30143271110117
H            7.65160469693337      -20.62260408034811        6.06469057298619
C            7.72507777788523      -19.99865564348150       10.01613293577886
H            8.61202008003951      -20.52244232300264       10.37686553970838
H            7.20059222868505      -19.60356956196563       10.88654490886282
H            8.05472396034478      -19.15622070566794        9.41285589723089
C            3.83137583597806      -22.96633453061556        3.59668758781265
H            4.89678506357259      -22.80699987484086        3.41689806717542
H            3.36524255452388      -21.97699714909244        3.62426187032249
H            3.42796784405801      -23.49658360268439        2.73551931596767
C            2.11234071764356      -25.61889580180100        4.06244677510874
H            1.45602499282196      -25.04470373123018        3.40822735690306
C            2.17706277112032      -26.92650546241845        3.84383322056217
H            2.82121834913478      -27.58279230622552        4.40770688265264
H            1.60574598965089      -27.41497995771411        3.06532988541269
C            0.75095201357506      -28.58538292996608        8.25029623707010
H            1.35112470994960      -29.04228010432975        7.45736502905161
H           -0.04439267982831      -28.02181943137468        7.75540627861045
H            0.29362470029575      -29.38584001173450        8.82426013809896
C            1.48842242309473      -28.57062343925266       11.53472175680232
H            2.19286139391436      -28.57170896363277       12.36278580326344
C            0.42112280015763      -29.34723317344523       11.76722915462886
H           -0.40733395965355      -29.45624705983032       11.09210776688087
H            0.35386665244892      -29.88927186698344       12.69786690522940
C            4.52217055709185      -25.57679011572855       14.77094639885918
H            4.85692846379331      -26.61417903685516       14.70696628623333
H            3.45775691385117      -25.59659663278326       15.01622536536734
H            5.04043648736443      -25.12667172894433       15.61829961452428
C            6.27498404823013      -22.90798375185256       14.31578162599900
H            7.34123778836292      -23.14306077481111       14.30274735497744
H            5.90931884790547      -23.11288269587667       15.32195358555945
H            6.16851936690543      -21.83907353195649       14.13685780767476
C           -0.44364425718774      -21.83746620317760       11.22770675362878
H           -1.36403612661315      -21.96160240030829       10.65836028629062
H           -0.38490503628123      -20.80182105881983       11.55956791360228
H           -0.48401230465467      -22.48170834228995       12.09878733870866
N            1.02875305306004      -21.53182340698296        9.23281410977926
H            0.51021844422403      -20.75800993177546        8.84923271104272
C            0.73376763823109      -22.19273243728599       10.39575211269796
C            2.14126576214006      -22.09916543667612        8.70908974761232
H            2.58715791444375      -21.78014530393449        7.78986475056317
N            2.56945361914304      -23.07600205303008        9.47054824420833
C            1.70191090319842      -23.14877080919230       10.52062956413681
H            1.83491766390097      -23.88110997330182       11.28948755532990
C            9.39648220351326      -26.42588243450852        8.75583476582291
H            9.88570442809069      -26.52615899021921        7.78861641893772
H            9.56958484917741      -27.34037378913071        9.32282879835210
H            9.84616521159754      -25.59724018532953        9.29176271869871
N            7.11790861706536      -27.07040913363253        7.94840755312980
H            7.41250873606831      -27.91542578178763        7.48602390414835
C            7.93890125439234      -26.18885569771844        8.60112227762198
C            5.85254352519228      -26.59477121154354        8.03625935678978
H            5.00562853251490      -27.09036154445308        7.60808291669092
N            5.82285654393750      -25.46963393896196        8.70664980272007
C            7.11325963515602      -25.20167969790037        9.05824483137357
H            7.35809943861949      -24.31427632906250        9.60356585043005
87
 energy: -128.458244327969 gnorm: 0.024140203111 xtb: 6.7.1 (edcfbbe)
Fe           4.20414939589768      -24.28322249603866        9.15173201594422
N            5.34571555067172      -22.65640206717107        8.86572445081608
N            3.75512708132845      -24.27909456087048        7.14343620342105
N            3.06283886023805      -25.92156729094386        9.48104139212776
N            4.66832391165211      -24.29729540744598       11.19401406679071
C            6.05728262382173      -22.02000712299101        9.83671414707372
C            6.81995966485967      -20.92775778714624        9.24462285850626
C            6.54844609893434      -20.93586553106297        7.91256635599618
C            5.60610057292457      -22.02235735348767        7.69163390974689
C            4.17548134647566      -23.38820535099702        6.20641704395501
C            3.60444647719874      -23.72718020194850        4.91554503645344
C            2.86898394981952      -24.86805490276204        5.10223957685719
C            2.96769279410934      -25.19002117705607        6.52272757048655
C            2.34035117065342      -26.55777439721586        8.51321292090725
C            1.60192674938246      -27.66476499620563        9.09140932833571
C            1.90181730276688      -27.68632046797220       10.43067861628440
C            2.83445362570810      -26.57738235350878       10.64556414774385
C            4.23674755241665      -25.17597281486403       12.13088410845324
C            4.76904268216656      -24.82026577874803       13.43487379050964
C            5.51930753727665      -23.69561947153515       13.24486092586218
C            5.44910763865335      -23.38993172747087       11.82652602739004
C            6.09322956712729      -22.33495241837760       11.18580168861733
H            6.70265813420415      -21.69854483198771       11.81531559060416
C            5.04737088072554      -22.33466561626076        6.46045420031361
H            5.32131993289314      -21.70672865540467        5.62060865741694
C            2.30321376068737      -26.22888455486586        7.16657656924518
H            1.67515324351686      -26.84275432906388        6.53176782745810
C            3.38235060216262      -26.24160195160825       11.87503976902109
H            3.11895085624418      -26.84814938806051       12.73179096254850
C            7.10096562358938      -20.05630952811582        6.83984662305500
H            7.80073533400397      -19.32907999546357        7.24644269988709