87
 energy: -128.467255221650 gnorm: 0.000036577703 xtb: 6.7.1 (edcfbbe)
Fe           4.22610872726565      -24.27749260025373        9.14861786339103
N            5.35629473406142      -22.64306583392661        8.87268915147504
N            3.77546383014427      -24.29644686347641        7.19274367534543
N            3.08298488845823      -25.90138995146442        9.43075124022179
N            4.69407935944620      -24.26824292411484       11.09520081284082
C            6.04349145408274      -21.95647887169100        9.82052871123056
C            6.72892643160170      -20.82371880390339        9.23668971433679
C            6.43862701312860      -20.84562026089088        7.90861276330315
C            5.57817635381751      -21.99046914834785        7.70100797175723
C            4.22035552454713      -23.42798234511162        6.24576729593754
C            3.69780657242897      -23.77366519981141        4.95100134095731
C            2.93757050349023      -24.89935474468157        5.12752187238631
C            2.98598950161584      -25.19278838365805        6.54666942482153
C            2.31604403174771      -26.52864055080913        8.49723982970095
C            1.58561307933224      -27.62200016074679        9.08525104741166
C            1.93962158067983      -27.65271213009202       10.40910043937346
C            2.88107995221463      -26.56520713149935       10.59520227932530
C            4.29346905548673      -25.16448894946851       12.03334352834860
C            4.84705444991573      -24.83129346790172       13.32858732180016
C            5.58834481080300      -23.70628037561162       13.14748563608732
C            5.47982119460788      -23.37094046101707       11.74379005222406
C            6.10680739363727      -22.28420236938190       11.16295472068497
H            6.69821150926554      -21.64783517670839       11.80418874353057
C            5.05813038471068      -22.34751713475287        6.47264148369905
H            5.32201435067110      -21.73742036043165        5.62151565480600
C            2.25875014065908      -26.19926934914047        7.15371441837803
H            1.58962848794231      -26.76865486303794        6.52726144030702
C            3.44916912202251      -26.23636777703657       11.81351840185302
H            3.19822297720853      -26.85140378599483       12.66469420442272
C            6.88062473073566      -19.91726366655346        6.82890023141914
H            7.52696324315052      -19.13904401071554        7.22769791288612
H            6.02202650446497      -19.43977199677272        6.35528380545324
H            7.43128746729494      -20.45926020097606        6.05960953866093
C            7.57341015508761      -19.86378145915607       10.00347612033915
H            8.41178543112072      -20.37970419935995       10.47261561332290
H            6.99052545542220      -19.38365082824704       10.78995292998681
H            7.97079970792138      -19.08992155979942        9.35098371489922
C            4.00082436487003      -23.05140246098195        3.68295392473035
H            5.06533592501309      -23.10937772438127        3.45259030559771
H            3.73259911695936      -21.99750662847162        3.76569385107190
H            3.44945108358618      -23.48633417611307        2.85294035977690
C            2.24462367130030      -25.64606912044813        4.09839613648226
H            1.79444962784938      -25.04541800774881        3.31462697527539
C            2.15843098664681      -26.96940969440275        4.01881924851557
H            2.63120426035739      -27.61822061954910        4.73669444683260
H            1.62762923356231      -27.45312992904103        3.21543461418322
C            0.69729177376761      -28.56060758886253        8.34474660085947
H            1.08865591823987      -28.76101755402620        7.34846190814726
H           -0.30415160736832      -28.14162750710118        8.23255099321419
H            0.61685487075397      -29.50284135075936        8.88358076470892
C            1.52126643087482      -28.56727192408218       11.44730052378488
H            2.26495658672808      -28.78462447387276       12.20575917687475
C            0.32399405992844      -29.13768925713935       11.54177950656413
H           -0.46959480161499      -28.92329649656606       10.84760373578244
H            0.08797057541535      -29.82339070597126       12.33892865162423
C            4.60531503217712      -25.61381597461645       14.57415747490098
H            4.94677733681430      -26.64218898854517       14.45299871630437
H            3.54144941086962      -25.63758471275009       14.81265412074355
H            5.13451159660792      -25.17473284799168       15.41656020185439
C            6.37733851693702      -22.92402389357999       14.14152359834883
H            7.43036048036071      -22.89490225689584       13.85954530798478
H            6.30096206094011      -23.36696819547764       15.13166054903377
H            6.01433215598621      -21.89733018163337       14.19637106135177
C           -0.41339933418426      -21.95734644949279       11.23980734710854
H           -1.31891451426039      -21.99708647524791       10.63423122071588
H           -0.33889999784816      -20.96125484641998       11.67644055411371
H           -0.49941256425562      -22.68357267011703       12.04201478138843
N            1.14289972826011      -21.51606406984999        9.32760579442978
H            0.65062140727195      -20.70959205515287        8.98013327548304
C            0.78472608382048      -22.26517744923251       10.41832070675914
C            2.26797667294260      -22.05971923587936        8.81023595464246
H            2.77685935898993      -21.67995493925975        7.94852210952210
N            2.64310186268805      -23.10459511300773        9.50559837269455
C            1.73095429924571      -23.24509029651976       10.50930139337803
H            1.81516655326587      -24.03681373091698       11.22438574891714
C            9.31599861070755      -26.59006011106883        8.94484887310900
H            9.84165850619046      -26.58104741354003        7.98990622099822
H            9.45193072567729      -27.57157937657988        9.39921783998422
H            9.76045044104064      -25.84186623069062        9.59371739477118
N            7.05529499000615      -27.06791746438716        7.97876089688835
H            7.33339376609892      -27.89224225443473        7.47214913776067
C            7.87371238130636      -26.29053082813051        8.75648843800188
C            5.81723148771908      -26.52549836018924        8.01916850973059
H            4.97028619884628      -26.92407379140997        7.50001905868163
N            5.80217568659199      -25.45421735025101        8.77302270759204
C            7.07348833794006      -25.29518518891988        9.23913312203368
H            7.32458053418690      -24.48038413175190        9.88582687983728
