78
 energy: -116.058005100244 gnorm: 0.000164358101 xtb: 6.7.1 (edcfbbe)
Fe          16.45468665360831        2.04918613341876       22.09201203065157
N           15.64837061623922        2.14921159252052       23.93392386940070
N           16.59888657915396        4.05890890016281       22.06044765840188
N           17.17570493393911        1.96396699059994       20.23598638781100
N           16.27314908433555        0.06555862370655       22.12775824406703
C           15.22978279915310        1.10718445420524       24.70186701129921
C           14.72861395832791        1.57740757121785       25.97296380804245
C           14.86578779356732        2.93117791017158       25.96119714953435
C           15.44746801513626        3.26979641692580       24.68202570326358
C           16.30031304704002        4.91932262289493       23.07405325692817
C           16.59970094014264        6.27629352725075       22.69860779372175
C           17.09054820820799        6.22387664644786       21.41993905408728
C           17.08965830753685        4.82293238413812       21.04909017810762
C           17.53241319592260        3.01413452102076       19.44680349575439
C           18.00090048061314        2.55606843471390       18.16252865170322
C           17.93343267006312        1.18918798722545       18.19595063960897
C           17.40454565825181        0.84718118526364       19.50335233596384
C           16.65547796280466       -0.80063553509890       21.15512781952589
C           16.40263988862683       -2.16787974163442       21.55726054979063
C           15.84946492385384       -2.10426189034548       22.79708571902413
C           15.77953261912633       -0.69929765023965       23.13704150295190
C           15.28288515933422       -0.22593854420831       24.33710215678389
H           14.91684225955731       -0.95130702205354       25.04771274053393
C           15.75281226533766        4.55923613357453       24.29390339295293
H           15.54632208406378        5.34968133157070       24.99891353310576
C           17.49882318744397        4.34719734934809       19.81776168031868
H           17.83444603098793        5.07204816016457       19.09195013865015
C           17.19115108568221       -0.44881933612281       19.93201053229777
H           17.44755778236936       -1.24882657180420       19.25456102831690
C           14.51084580581725        3.92490537643537       27.01364757941859
H           14.07742083477938        3.43226361888928       27.88055657877484
H           13.78810155936872        4.64684341254583       26.63257525232152
H           15.39608300185100        4.47284899471684       27.33766584347632
C           14.18195833817377        0.69224610548162       27.04028890558153
H           14.94109053777155       -0.01169504763495       27.38282494973371
H           13.33484450036718        0.11774454247859       26.66496278367334
H           13.84788783178815        1.27642300741189       27.89419937248176
C           16.45582975966859        7.46311298150278       23.58613389274850
H           16.72565402495801        7.21235108372533       24.61091217425113
H           15.42713367377223        7.82801380213326       23.58746245210002
H           17.10387539441475        8.26661648756508       23.24201557982899
C           17.55812303658275        7.29954535660909       20.57413771633832
H           18.37083095588262        7.04738861913611       19.90262003250186
C           17.06991164422869        8.53564102337036       20.55597956099083
H           16.23292795755473        8.83096273470687       21.16428200916501
H           17.47759541021731        9.29249898060391       19.90655809327755
C           18.39927528241416        3.43765768444618       17.03064134994638
H           19.43027512152185        3.77777986046405       17.14400235226209
H           17.75744111329595        4.31612627587660       16.98188679816796
H           18.31891952711477        2.89550653286215       16.09066170793142
C           18.26581931774983        0.23163081730199       17.16461830701160
H           17.65413564674100       -0.66271537781435       17.14274847538259
C           19.24289863312708        0.36481077144223       16.27342308239008
H           19.91066346592588        1.20859947278882       16.27637362839316
H           19.42476122675840       -0.38443300894115       15.52073591852604
C           16.70603543348120       -3.36091470893440       20.71768811380620
H           17.76434410820710       -3.38772168019369       20.45756316214489
H           16.13114029528252       -3.33177111710090       19.79188210306075
H           16.45856443037390       -4.27917352795548       21.24480414113316
C           15.38467780548271       -3.20877810300948       23.68373898240515
H           15.54257305766780       -4.17525807501115       23.21170876895768
H           14.32159953144137       -3.10348843553894       23.90104430922495
H           15.92561266450749       -3.19723688188723       24.63064659124938
O           14.31856470893011        2.32064553980311       21.30169487134979
H           13.83007820027503        2.24838639238387       22.12897645686511
H           14.33895818853357        3.25411313224743       21.06434499866687
C           21.88036909639210        2.64657972055317       23.22322233208873
H           22.53214120210800        1.78757599638977       23.06410130598509
H           22.15747164497687        3.11447534879965       24.16781745192799
H           22.04250218040653        3.35945073488022       22.42095861085429
N           19.95662392148120        1.34069810330318       24.15307677620435
H           20.48359631868686        0.89082005031626       24.88347868305893
C           20.45507761491871        2.23091508069313       23.23830573296530
C           18.63960526892616        1.17978404140876       23.89287129094787
H           17.99052199221691        0.53796519169218       24.45205189400748
N           18.27434268588522        1.91344903369086       22.86968999127691
C           19.39272337897214        2.57299705732502       22.45174656046194
H           19.35865447857938        3.24522041302971       21.61973441210850
