78
 energy: -115.950381614889 gnorm: 0.286472892717 xtb: 6.7.1 (edcfbbe)
Fe          16.68600000000000        2.01200000000000       22.26899999999999
N           15.86000000000000        2.16000000000000       24.07500000000000
N           16.78300000000000        4.14400000000000       22.25500000000000
N           17.42300000000000        1.89500000000000       20.36900000000000
N           16.49500000000000        0.06700000000000       22.24400000000000
C           15.33700000000000        1.13400000000000       24.80200000000000
C           14.77500000000000        1.61000000000000       26.00900000000000
C           14.87100000000000        2.93600000000000       25.99200000000000
C           15.46100000000000        3.29300000000000       24.72500000000000
C           16.19700000000000        5.00200000000000       23.12300000000000
C           16.33400000000000        6.34500000000000       22.67800000000000
C           16.90900000000000        6.27500000000000       21.46000000000000
C           17.02700000000000        4.86300000000000       21.10900000000000
C           17.71500000000000        3.01400000000000       19.60700000000000
C           18.19700000000000        2.55800000000000       18.37800000000000
C           18.09000000000000        1.19400000000000       18.37200000000000
C           17.51000000000000        0.79100000000000       19.62000000000000
C           16.58100000000000       -0.76500000000000       21.17200000000000
C           16.16200000000000       -2.09600000000000       21.51500000000000
C           15.61600000000000       -2.04100000000000       22.67400000000000
C           15.75100000000000       -0.62300000000000       23.13300000000000
C           15.35900000000000       -0.18100000000000       24.40400000000000
H           15.04900000000000       -0.93400000000000       25.12900000000000
C           15.70500000000000        4.62400000000000       24.34600000000000
H           15.48900000000000        5.40800000000000       25.07200000000000
C           17.62700000000000        4.36800000000000       19.95100000000000
H           18.06100000000000        5.09100000000000       19.26100000000000
C           17.20799999999999       -0.48500000000000       19.97300000000000
H           17.46400000000000       -1.30200000000000       19.29900000000000
C           14.32600000000000        3.83500000000000       27.11500000000000
H           14.68600000000000        3.46100000000000       28.09700000000000
H           13.21500000000000        3.81500000000000       27.10600000000000
H           14.68800000000000        4.87600000000000       26.97200000000000
C           14.15300000000000        0.84800000000000       27.15300000000000
H           14.18200000000000       -0.24100000000000       26.93300000000000
H           13.09500000000000        1.16200000000000       27.28200000000000
H           14.72300000000000        1.04200000000000       28.08700000000000
C           15.90000000000000        7.66800000000000       23.34300000000000
H           15.41200000000000        7.45100000000000       24.31700000000000
H           15.17600000000000        8.19700000000000       22.68800000000000
H           16.79000000000000        8.30900000000000       23.52000000000000
C           17.20799999999999        7.37700000000000       20.45300000000000
H           17.63400000000000        7.08700000000000       19.48200000000000
C           17.00300000000000        8.66800000000000       20.63200000000000
H           16.57900000000000        9.04000000000000       21.57600000000000
H           17.25300000000000        9.38800000000000       19.83900000000000
C           18.76800000000000        3.39100000000000       17.20400000000000
H           19.86100000000000        3.21100000000000       17.11900000000000
H           18.59400000000000        4.47200000000000       17.39200000000000
H           18.27800000000000        3.08700000000000       16.25500000000000
C           18.47500000000000        0.27300000000000       17.27300000000000
H           18.17300000000000       -0.77300000000000       17.40300000000000
C           19.12500000000000        0.49800000000000       16.15500000000000
H           19.48100000000000        1.51000000000000       15.91000000000000
H           19.32200000000000       -0.32200000000000       15.44900000000000
C           16.23900000000000       -3.34300000000000       20.78300000000000
H           16.71500000000000       -3.16400000000000       19.79500000000000
H           15.21700000000000       -3.74800000000000       20.62200000000000
H           16.85200000000000       -4.07500000000000       21.35100000000000
C           14.96800000000000       -3.24800000000000       23.33000000000000
H           15.72400000000000       -4.05200000000000       23.45700000000000
H           14.14400000000000       -3.62700000000000       22.68800000000000
H           14.57200000000000       -2.96500000000000       24.32900000000000
O           14.34100000000000        2.24300000000000       21.80900000000000
H           13.91100000000000        2.31700000000000       22.66100000000000
H           13.94100000000000        2.25800000000000       21.01500000000000
C           22.29700000000000        2.59600000000000       22.82700000000000
H           22.98200000000000        1.72800000000000       22.72000000000000
H           22.62100000000000        3.20500000000000       23.69800000000000
H           22.34100000000000        3.20600000000000       21.89900000000000
N           20.51600000000000        1.32100000000000       24.09400000000000
H           21.11800000000000        1.00800000000000       24.82800000000000
C           20.90700000000000        2.10900000000000       23.04300000000000
C           19.22500000000000        1.05100000000000       23.96900000000000
H           18.68000000000000        0.37200000000000       24.62400000000000
N           18.71900000000000        1.73300000000000       22.93300000000000
C           19.79200000000000        2.33300000000000       22.29900000000000
H           19.65800000000000        2.86900000000000       21.36700000000000
78
 energy: -116.016264083536 gnorm: 0.103711520626 xtb: 6.7.1 (edcfbbe)
Fe          16.67519422889278        2.02161779380162       22.26816798756393
N           15.83747023505173        2.16930208160512       24.07283217964586
N           16.72913821882078        4.12931365783250       22.22081391263675
N           17.37077944256002        1.92322773654812       20.36678804863855
N           16.42416665491989        0.07514455665310       22.22391409492536
C           15.35499707690612        1.12733759660220       24.81285547352464
C           14.77165399806840        1.60555218928832       26.02624717548649
C           14.86086793453418        2.95513770346414       26.00306721645995
C           15.49234859851376        3.30670686261413       24.75189895772605
C           16.22639263423841        5.00720851171402       23.13229728329154
C           16.33710079607314        6.36299627142154       22.66323103061588
C           16.89684659773186        6.28944055584454       21.41870208583898
C           17.08647819007101        4.87083245344071       21.12513019503649
C           17.73053409683176        3.01516643411152       19.60794682028790
C           18.21543236143494        2.56026336029753       18.34952725953525
C           18.10371379761261        1.19272887136191       18.33846623085904
C           17.53879303091366        0.81493708421875       19.61158075311245
C           16.61922668307022       -0.77523316480539       21.17329463244450
C           16.16380831937835       -2.09815263422166       21.50558388039828
C           15.60141629475284       -2.03748267158922       22.71484319452908
C           15.76368368048134       -0.64734779376988       23.16679803514002
C           15.37468568570232       -0.19505074795634       24.41583564232838
H           15.02908505630738       -0.93685433562390       25.12420997522560
C           15.72291467881311        4.62218825566116       24.36022329647457
H           15.47243206230024        5.40337966439945       25.06749687586708
C           17.64800479819188        4.36013963356849       19.96500495851026
H           18.04463124415301        5.07846810026518       19.25746132962803
C           17.23543057451189       -0.47612259401272       19.97804066760825
H           17.45569292735852       -1.28705975006791       19.29491040300480
C           14.33226807176970        3.84194066926497       27.10244492880144
H           14.67914117836250        3.46951244127752       28.07454087320310
H           13.23509569571855        3.82212752606047       27.10406595798045
H           14.67820075808243        4.87078746716619       26.97728678361560
C           14.15356595687215        0.83488577603475       27.14845847050301
H           14.17610540838567       -0.23881651319011       26.94438667000861
H           13.11197354981613        1.15117114487307       27.28549792942360
H           14.70593157041521        1.03342298691002       28.07529089810169
C           15.90119351144331        7.64301813436290       23.34985588834833
H           15.41899000728504        7.44765754135767       24.31213291950644
H           15.18510042335599        8.17629295802677       22.71097032247825
H           16.77205513934781        8.28934437224358       23.52177375785729
C           17.20154831136991        7.36879694014770       20.45499983363670
H           17.62720007968735        7.06761667925657       19.49965092471672
C           17.00225736026157        8.66909496607306       20.63200698260445
H           16.58842642414220        9.05802539910829       21.54922965162410
H           17.24600658158456        9.38187197401390       19.85114345619956
C           18.76389679752986        3.39532030020761       17.21448120168753
H           19.84357158638147        3.22096751408491       17.12403044262785
H           18.59570473910954        4.46130946022124       17.38806025298516
H           18.27991903290428        3.10428963434460       16.27552410488138
C           18.46857871826418        0.26536161998556       17.27420144198426
H           18.16471724450391       -0.76959870106797       17.42308347329387
C           19.12943784406228        0.49834861470104       16.14814523835979
H           19.49448218511625        1.48322298187977       15.89502059004306
H           19.32659410950719       -0.30702248788506       15.45044687587535
C           16.24724509460777       -3.35240467975534       20.75057477212970
H           16.71671969836023       -3.19020796595069       19.77891272609468
H           15.23810558152064       -3.75922999515829       20.60776674156854
H           16.83982467463132       -4.07691362429430       21.32516262810600
C           14.96339340229830       -3.23204200663229       23.35566701704898
H           15.70660740849150       -4.03420595053651       23.46240086173500
H           14.15761199120368       -3.61287254199572       22.71200273072883
H           14.56210190613136       -2.97702804135367       24.33646745307880
O           14.36986173462223        2.23603598876826       21.81660039065559
H           13.91049843925521        2.31901783328370       22.65143322314357
H           13.92297645662758        2.26082415013113       20.99106250257448
C           22.29880135144107        2.59087446784584       22.83089532222409
H           22.98366989689970        1.74097845863214       22.72215465638767
H           22.62559775365356        3.19809287397305       23.68396077262275
H           22.34219414838172        3.19630020681354       21.92047452527533
N           20.52286810438960        1.31775735842434       24.08653224694043
H           21.12648558972332        0.99964553962933       24.82511971422229
C           20.90747793263135        2.11315087320411       23.04051412718383
C           19.20984498832803        1.07313488148874       23.96747089421294
H           18.66963580218299        0.40200085693498       24.61645569418332
N           18.71155506400269        1.71392678195634       22.92119166025084
C           19.77607733430895        2.33895059730197       22.31517337292752
H           19.64796346283195        2.87147885516326       21.39010650001321
78
 energy: -116.033417290410 gnorm: 0.030078990425 xtb: 6.7.1 (edcfbbe)
Fe          16.64752723542550        2.03688165883619       22.25170264816204
N           15.84439022080534        2.17202333122315       24.08267332881905
N           16.72204286507093        4.12227074345112       22.20193556905253
N           17.33364044229446        1.94674024949690       20.35979991445980
N           16.37645813884813        0.08028475705347       22.21403871249685
C           15.37537140232075        1.12481810312470       24.82332342220895
C           14.77983211934122        1.60338853401610       26.04136105830030
C           14.86905738536094        2.96357571636724       26.01503083278787
C           15.52793462736118        3.31004717794327       24.77577785598376
C           16.25385569199802        5.00204320543623       23.13369217198387
C           16.34950509799704        6.36321384582138       22.65512117346419
C           16.90285751042575        6.29134708901171       21.39704482902092
C           17.11846528720372        4.87101376628958       21.13549907784007
C           17.73742687678185        3.01535731279383       19.60447306856440
C           18.23546837359354        2.56525081936587       18.33205624281844
C           18.12375695826977        1.19467285377239       18.32031727992254
C           17.55455194476030        0.83798633924141       19.60490707626471
C           16.64034077458379       -0.77910124473821       21.18230974878009
C           16.17296566347706       -2.09974666728356       21.50680974650072
C           15.61147322538567       -2.03492530017573       22.74103430094262
C           15.77046825588173       -0.66643304901940       23.18401960889461
C           15.37610847102738       -0.20128894139262       24.42071655968944
H           14.99869157226889       -0.93435562323176       25.11903551486089
C           15.73914062880911        4.61469447812916       24.36323538005630
H           15.45462637365570        5.39781576780929       25.05287868321634
C           17.64999435635638        4.35323985291151       19.96878066131844
H           18.02375261157970        5.06899738166894       19.25031447827411
C           17.24411475492325       -0.45625146361669       19.98534553141384
H           17.44962336313533       -1.26263893189828       19.29848893498910
C           14.34166715382037        3.85070467776185       27.08909478253944
H           14.67673615112283        3.48362181734642       28.05949344329608
H           13.25076431320095        3.83393134845938       27.09573884542666
H           14.67382557445496        4.87595063260040       26.97456213818588
C           14.15504893989981        0.82286873673857       27.14473936360695
H           14.17154044572394       -0.24291855941956       26.94910268781216
H           13.12134129807249        1.13794780918131       27.28748113126555
H           14.69063304613525        1.01650387335892       28.07435078063562
C           15.90437189302105        7.60732314603606       23.35670314543296
H           15.42957332127224        7.40870940127500       24.31189572950242
H           15.18820028341825        8.14719208319831       22.73436809854125
H           16.75995634619670        8.26218076915033       23.53206624901537
C           17.19349874568042        7.35172079771463       20.46060821322935
H           17.61640367006412        7.03751986808371       19.51478563743329
C           16.99889007226447        8.66071507233625       20.62683972243568
H           16.59466547068846        9.07885304604674       21.52444718638682
H           17.24863600977269        9.36493457162230       19.85164837338543
C           18.76248991445935        3.40871091764109       17.22594267818750
H           19.83600632027215        3.24483826878852       17.12405890192406
H           18.59253082569929        4.46583189614789       17.39602450515737
H           18.28103357018017        3.12828991815771       16.29051942787651
C           18.47005444452900        0.25840667789690       17.28128887426375
H           18.15199162716006       -0.76468696672674       17.44607048414492
C           19.13539308580080        0.49230638763163       16.14932850096136
H           19.51450585350066        1.45666839716750       15.88132185575016
H           19.32700501497419       -0.30510227199792       15.45373628317539
C           16.25591279524136       -3.35700474572059       20.72398102137482
H           16.71856870602085       -3.20763548478475       19.75787123757718
H           15.25682736854328       -3.76968426630866       20.58422818452727
H           16.83708511329642       -4.08742771150483       21.28898692349461
C           14.96497995401206       -3.21106730978413       23.38419391938322
H           15.69330147264064       -4.01802105263665       23.48645081239868
H           14.16570900016883       -3.58995681485702       22.74256742589791
H           14.55206847304489       -2.97866897227266       24.35683160313205
O           14.39479060206389        2.21955035158776       21.79332934968983
H           13.90534081589433        2.32652925302433       22.61108880613666
H           13.90414889960824        2.27159335779996       20.97402080867326
C           22.29545200608926        2.58529733153016       22.83484183476041
H           22.97985052624320        1.74496040458755       22.72695282505792
H           22.62628071876403        3.18995453983024       23.67851118113747
H           22.34289912425394        3.18976512326675       21.93530928484768
N           20.51890188648429        1.31191097896403       24.07723412550444
H           21.12244323175193        0.98389167442926       24.81534519529528
C           20.90051335023377        2.11540858169830       23.03599273321010
C           19.18830852616219        1.09602790581594       23.96335586595262
H           18.64342859668867        0.44461923297153       24.61682805702666
N           18.69551086802067        1.72795248950330       22.92505981064773
C           19.75696869524475        2.34810982898184       22.32647429008826
H           19.63250364920144        2.89395122527402       21.41460425352751
78
 energy: -116.038666765890 gnorm: 0.020723299200 xtb: 6.7.1 (edcfbbe)
Fe          16.63163077706508        2.04196815949011       22.24054071328499
N           15.85424248303522        2.16674042729378       24.09020073487556
N           16.72254414567325        4.11110153242820       22.19002597837121
N           17.31945618807811        1.95946810542379       20.35219488050090
N           16.36265899412622        0.07634977813339       22.21440209005822
C           15.38734710914564        1.12148387069478       24.83094207979144
C           14.79296520779349        1.60000324985080       26.05258254742910
C           14.88768853662757        2.96120485592530       26.02546314677260
C           15.55010338918325        3.30321106807086       24.78840499472996
C           16.26613006026798        4.98588520883260       23.13123594987531
C           16.35827606893986        6.34621916240138       22.65670803104874
C           16.90921557972833        6.28198711810295       21.39549031362073
C           17.12971114403961        4.86476028308059       21.13667621395625
C           17.73748703726693        3.01869268189762       19.59899594465409
C           18.24810102856396        2.57138672005030       18.32738364923435
C           18.13650261927416        1.20006887124980       18.31848217470568
C           17.55313680194612        0.85105945256547       19.60199693612569
C           16.64138559098140       -0.77915674711538       21.18834440645507
C           16.18400919953051       -2.10526302668754       21.50923771393018
C           15.62556851339413       -2.03920338120489       22.75197944063383
C           15.77124874037707       -0.67448132042421       23.18921377714787
C           15.37089285156657       -0.20334472161340       24.42392683896194
H           14.96609507807864       -0.93033561041320       25.11537323684181
C           15.75221012903424        4.60294928467930       24.36218684497085
H           15.44530174029731        5.39001255027834       25.03836960855179
C           17.65053444066696        4.35346725264743       19.96359421227053
H           18.00672772214150        5.07015583165291       19.23723915285942
C           17.23889611861791       -0.44003455707631       19.98987722493898
H           17.44461957609433       -1.24359617256558       19.30107611750964
C           14.35467042037166        3.86236695963341       27.08359646865308
H           14.67983474709751        3.50720320829152       28.06171503743901
H           13.26335814326636        3.84800145446909       27.08154585628079
H           14.68328033846493        4.88857809744322       26.96221932110956
C           14.15791065460439        0.81157015094308       27.14522340971473
H           14.17146215837084       -0.25379514227894       26.94490353013363
H           13.12343266806326        1.12580636460072       27.28407014944252
H           14.68232175442824        0.99453472431673       28.08388605449683
C           15.90650489331192        7.57057607969924       23.37584151118214
H           15.44141642571184        7.34530926345160       24.33014584149027
H           15.17934296665289        8.11107678757541       22.76748020170573
H           16.75411541097561        8.23418243109628       23.55609785953201
C           17.19589498681684        7.33833958590611       20.46163370667924
H           17.61010336086080        7.01173580507322       19.51593161753621
C           17.00589222767746        8.65118886173851       20.61273548994074
H           16.60246384294119        9.09655060964235       21.49985636748874
H           17.25220337759975        9.34207172332901       19.82494389682285
C           18.76569270086082        3.43138181205258       17.23138590069708
H           19.84068306215933        3.28301800195936       17.11715701470917
H           18.58636363249922        4.48530333460192       17.41494689360020
H           18.28217021481866        3.16205145322492       16.29313227185595
C           18.47489023053877        0.25322417548288       17.28868667858616
H           18.14083371819556       -0.76213912310937       17.46648641149119
C           19.14373108783789        0.47539170177356       16.15527002130014
H           19.54753892446851        1.42860528104727       15.87746378922879
H           19.32379004684407       -0.32569884588052       15.45981989449802
C           16.26652626700096       -3.35701873259115       20.70380442185961
H           16.72584124157783       -3.20271482578191       19.73526483271934
H           15.26904724674353       -3.77068331328267       20.55660711699137
H           16.84697809003886       -4.10039770704225       21.25203682603262
C           14.96937666414963       -3.19905249797200       23.41518413434483
H           15.68723501485431       -4.01265370892127       23.52919601877808
H           14.16475213050623       -3.57192496105802       22.77842869342928
H           14.55320886608302       -2.95786241623741       24.38580751388838
O           14.40606237582865        2.18865409715400       21.74575621796966
H           13.89810945174680        2.35087220115447       22.54820759294980
H           13.89764200586268        2.29899434101271       20.93565299110140
C           22.28800984331846        2.57758899482999       22.83923077486411
H           22.96814851491763        1.73423474446236       22.73124604412467
H           22.62170716659343        3.17756005943846       23.68492333395060
H           22.34301537443721        3.18627483726243       21.94305699417209
N           20.50204826542794        1.31073673415514       24.07192431877993
H           21.10469571523319        0.96597651688857       24.80326238822373
C           20.88793139861723        2.12038216569082       23.03538968754690
C           19.16309284914130        1.12190988308714       23.96474512170688
H           18.60396810546979        0.49524963441448       24.63004031990023
N           18.67987191863630        1.75604269222771       22.92784819692037
C           19.74150460344330        2.37661537749505       22.33688829131321
H           19.61863802339832        2.94602119988151       21.43917801871233
78
 energy: -116.041665276247 gnorm: 0.030757263970 xtb: 6.7.1 (edcfbbe)
Fe          16.62151855136011        2.04687011057991       22.23016893519127
N           15.85115567259266        2.15893968797429       24.08982340088465
N           16.71542040944730        4.09512756822588       22.17561055169232
N           17.31202342883230        1.96890281184150       20.34334706504423
N           16.35884227451137        0.07093135165285       22.21786998965930
C           15.39023125038686        1.11612171196385       24.83436127365999
C           14.80594510511027        1.59444245881874       26.06325516937054
C           14.90732490455960        2.95446836342515       26.03584191653015
C           15.56046733063326        3.29260325616516       24.79479391621856
C           16.26966884592649        4.96487520041615       23.12567619003168
C           16.36676294297557        6.32450233385196       22.66102840075117
C           16.91592498257738        6.26845298934046       21.39967577681105
C           17.13072798836784        4.85524537364849       21.13272222803150
C           17.73467794376373        3.02227276030140       19.59044098311980
C           18.25807348410567        2.57506936805977       18.32353217015336
C           18.14620554026702        1.20431065764851       18.31974205778757
C           17.55028528853686        0.85882267609432       19.60099154008927
C           16.64140027746198       -0.77963485520851       21.19521139496669
C           16.19719197085486       -2.11335220080365       21.51400871639395
C           15.64117556858545       -2.04682736029768       22.75983097130135
C           15.77390927165652       -0.68027343560644       23.19277455750758
C           15.36330837257266       -0.20630275242502       24.42529336966902
H           14.94150550737673       -0.92736484389845       25.11163077954615
C           15.75889568872445        4.58827605274663       24.35806051922768
H           15.44684338236965        5.37709757804915       25.02634331147147
C           17.64656863378240        4.35553495874855       19.95317831987614
H           17.99376911428846        5.07440991985325       19.22710218988185
C           17.23417768792873       -0.42784582502135       19.99586313424393
H           17.43977041969452       -1.22980410595794       19.30437849154429
C           14.37335974608071        3.87349483353857       27.08065399862467
H           14.68922080449298        3.53567810531626       28.06840846039080
H           13.28103220514959        3.86451373767114       27.06743929105273
H           14.70569444992136        4.89792779592313       26.94318731546219
C           14.16442115139805        0.79858937330499       27.14792974312702
H           14.17749738883207       -0.26649237422727       26.93826166091553
H           13.12763691166868        1.11100925227007       27.28072066846439
H           14.67981035952131        0.96966959418483       28.09475688241161
C           15.91116249288701        7.53520200249343       23.39697857193788
H           15.45684978821784        7.28189333468969       24.35135050482621
H           15.17254093959545        8.07738655916937       22.80393083094549
H           16.75093257465009        8.20609736539398       23.58424134167139
C           17.19696911174769        7.32365130708131       20.46182939257150
H           17.60843985418682        6.98963670396214       19.51682302154655
C           17.00896385936483        8.63663149852533       20.60147506182994
H           16.61494584247842        9.10103278303553       21.48585054873799
H           17.26168158310355        9.31588648350470       19.80342523419413
C           18.77027485947599        3.44897248733406       17.23319053185206
H           19.84733768765849        3.31939005227993       17.11221489011534
H           18.57850707733369        4.49985999883159       17.43199102862908
H           18.28816144006492        3.18836405385724       16.29073370653672
C           18.48005025808478        0.24798996004286       17.29609956144859
H           18.12562560521342       -0.75917190837798       17.48099008256372
C           19.15440019015118        0.45821507463224       16.16527274697221
H           19.57263568672779        1.40522541319308       15.88073756979431
H           19.32262436784059       -0.34723723581175       15.46870781802029
C           16.27934492616588       -3.35417486219425       20.68570560690977
H           16.73695122223692       -3.18224504442484       19.71636231691620
H           15.28125710204343       -3.76496093121448       20.52659380342367
H           16.86153501903997       -4.11257775631401       21.21297227942269
C           14.97740766213729       -3.19005769639747       23.44866881056957
H           15.68414430690554       -4.01028686548636       23.58262608211083
H           14.16241270279706       -3.56244969102732       22.82497091758295
H           14.56735519513630       -2.92099694974626       24.41693430835136
O           14.41204240505589        2.12378956963105       21.68939586023956
H           13.88857519651566        2.40051951501034       22.46788279987929
H           13.90559303064749        2.36018934245318       20.88687300046375
C           22.27620347290912        2.56873601448754       22.84494573252723