77
 energy: -118.807638943193 gnorm: 0.376880367066 xtb: 6.7.1 (edcfbbe)
Fe          14.63400000000000       27.95700000000000        4.72700000000000
N           15.24700000000000       29.03700000000000        6.29900000000000
N           13.80200000000000       26.74400000000000        5.92500000000000
N           14.52600000000000       26.65900000000000        3.32200000000000
N           15.67400000000000       29.19600000000000        3.55300000000000
C           15.64100000000000       30.48400000000000        6.19700000000000
C           15.46400000000000       31.11300000000000        7.46800000000000
C           14.80400000000000       30.22200000000000        8.29400000000000
C           14.56000000000000       28.98200000000000        7.54700000000000
C           13.56600000000000       26.86900000000000        7.32800000000000
C           12.96000000000000       25.67900000000000        7.92600000000000
C           12.92200000000000       24.71300000000000        6.90200000000000
C           13.41100000000000       25.37200000000000        5.70500000000000
C           14.00700000000000       25.37200000000000        3.34900000000000
C           14.21600000000000       24.65900000000000        2.12500000000000
C           14.95300000000000       25.52900000000000        1.26500000000000
C           15.02800000000000       26.81200000000000        2.01900000000000
C           15.92700000000000       29.12400000000000        2.26900000000000
C           16.68000000000000       30.20800000000000        1.72200000000000
C           16.87600000000000       31.04800000000000        2.71300000000000
C           16.19400000000000       30.47900000000000        3.85000000000000
C           16.14700000000000       31.14000000000000        5.03200000000000
H           16.49400000000000       32.17000000000000        5.09400000000000
C           13.89200000000000       27.97800000000000        8.06200000000000
H           13.58700000000000       28.02800000000000        9.10700000000000
C           13.41700000000000       24.76000000000000        4.45800000000000
H           12.95200000000000       23.78200000000000        4.34200000000000
C           15.59200000000000       28.02800000000000        1.51400000000000
H           15.77000000000000       28.08800000000000        0.44000000000000
C           14.33800000000000       30.53200000000000        9.68600000000000
H           13.22800000000000       30.58500000000000        9.70300000000000
H           14.75000000000000       31.51100000000000       10.01000000000000
H           14.67100000000000       29.73100000000000       10.38000000000000
C           15.85300000000000       32.55200000000000        7.70400000000000
H           15.05900000000000       33.22100000000000        7.30800000000000
H           16.80600000000000       32.77400000000000        7.17800000000000
H           15.96900000000000       32.73600000000000        8.79400000000000
C           12.53800000000000       25.51700000000000        9.41100000000000
H           12.07700000000000       26.46200000000000        9.77100000000000
H           13.43100000000000       25.29200000000000       10.03300000000000
H           11.79500000000000       24.69600000000000        9.50300000000000
C           12.51000000000000       23.26100000000000        6.95300000000000
H           12.08900000000000       22.77300000000000        6.06200000000000
C           12.65200000000000       22.48800000000000        8.14100000000000
H           13.06900000000000       22.93900000000000        9.05400000000000
H           12.34600000000000       21.43100000000000        8.15900000000000
C           13.70000000000000       23.22400000000000        1.91800000000000
H           12.62800000000000       23.17100000000000        2.20300000000000
H           14.27800000000000       22.52200000000000        2.55600000000000
H           13.80300000000000       22.93900000000000        0.84900000000000
C           15.53000000000000       25.26600000000000       -0.13700000000000
H           16.11200000000000       26.06400000000000       -0.62000000000000
C           15.37200000000000       24.03400000000000       -0.89500000000000
H           14.80300000000000       23.19100000000000       -0.47700000000000
H           15.82000000000000       23.93200000000000       -1.89400000000000
C           17.13200000000000       30.22500000000000        0.30400000000000
H           16.24800000000000       30.17700000000000       -0.36800000000000
H           17.78200000000000       29.34600000000000        0.10700000000000
H           17.69000000000000       31.16400000000000        0.09900000000000
C           17.69100000000000       32.33400000000000        2.66100000000000
H           17.03200000000000       33.17900000000000        2.36700000000000
H           18.50400000000000       32.23300000000000        1.91100000000000
H           18.12300000000000       32.54500000000000        3.66300000000000
C            9.58500000000000       29.44700000000000        2.48500000000000
H            9.56100000000000       30.43300000000000        1.97300000000000
H            8.66900000000000       29.34000000000000        3.10400000000000
H            9.62100000000000       28.64399999999999        1.71800000000000
N           11.03600000000000       30.28000000000000        4.43300000000000
H           10.42000000000000       31.01400000000000        4.71700000000000
C           10.83000000000000       29.36499999999999        3.38200000000000
C           12.32400000000000       29.91800000000000        4.99800000000000
H           12.80000000000000       30.41900000000000        5.84000000000000
N           12.81700000000000       28.82200000000000        4.26000000000000
C           11.89800000000000       28.47700000000000        3.29500000000000
H           12.07300000000000       27.63900000000000        2.63200000000000
O           16.22600000000000       27.26900000000000        5.30000000000000
O           16.83000000000000       26.59700000000000        4.48600000000000
77
 energy: -118.926463663955 gnorm: 0.191315333594 xtb: 6.7.1 (edcfbbe)
Fe          14.67405296231388       27.92602956982164        4.75033281423426
N           15.17168354095236       29.12412956048114        6.28805568241869
N           13.78113951827199       26.69903130963620        5.95770396479712
N           14.51797106700639       26.64761897125316        3.28211385062565
N           15.66178892824169       29.23115723179671        3.55490195624357
C           15.64148134643204       30.47732272985817        6.20842424575015
C           15.45831096285874       31.12024905495243        7.46697702026770
C           14.80998175330254       30.24395425501800        8.29506193738280
C           14.58776338427259       29.02072014902707        7.54775911145678
C           13.55164665899940       26.84732911723172        7.32689508012645
C           12.96714283519174       25.66001079222355        7.92077499841264
C           12.91662025858179       24.70469739731249        6.90985978845898
C           13.38879321695230       25.37289989428179        5.70672095824089
C           14.01045332886494       25.37230478141879        3.33454776639999
C           14.22337588264605       24.66228325712349        2.10358702187034
C           14.93526773951489       25.51600619367750        1.24462138206352
C           15.03538951329551       26.78703333514753        2.00387185818763
C           15.91829019952400       29.09676659159090        2.25233664578382
C           16.67495765313277       30.19288767338157        1.70275347775879
C           16.87573633546883       31.05490261229727        2.71535398814134
C           16.20446444384260       30.47792414634510        3.86169738418847
C           16.14634378971427       31.11618450056502        5.06530955998103
H           16.48394261473640       32.14793329989841        5.11416158278027
C           13.89250307675207       27.97025802809165        8.06149835533923
H           13.58455693305458       28.02190391836702        9.10052425066556
C           13.41978110007642       24.77744671331724        4.45453124960160
H           12.97215230604021       23.79437084009044        4.34382506409856
C           15.58000763930021       27.98563526424476        1.50532992254278
H           15.77150451722654       28.05805091334354        0.44194845446489
C           14.33845914061043       30.52924348968818        9.68377099767884
H           13.24036614306112       30.58351322489108        9.70838322326957
H           14.74147737463362       31.49425906542243       10.01277605651720
H           14.66592419663226       29.74266388553810       10.37615889481643
C           15.85071163162289       32.54719155439401        7.70697328764861
H           15.07091973754496       33.21642147420020        7.31502612672364
H           16.79288099953379       32.77279169602292        7.19192681005814
H           15.97050784126006       32.73905428525474        8.77990760599622
C           12.54553951350282       25.52218218689300        9.38390059472241
H           12.08705621193086       26.44908766341983        9.75868186400502
H           13.41645990413826       25.29606641986170       10.01782521774167
H           11.81096963448504       24.71220201289355        9.49411695062180
C           12.51777078178237       23.27289811831199        6.98764646925930
H           12.10743971508888       22.79400512354613        6.09084356404061
C           12.64685500377703       22.51462205020854        8.11344027077779
H           13.06497428946197       22.93129444724005        9.02620423727586
H           12.35123554074417       21.46410893587885        8.14360827173268
C           13.70885690958236       23.24399393310023        1.91839527776281
H           12.64729366423057       23.17746439462141        2.19943652174456
H           14.27249611176026       22.53673518018905        2.54398320770907
H           13.79562829897216       22.93964711045125        0.87232567865949
C           15.50189220625194       25.23821309848526       -0.12243353327949
H           16.08776314861358       26.03905335976618       -0.59189545055959
C           15.37430625416562       24.07899167454126       -0.86060702142199
H           14.82383445507936       23.21986600887036       -0.48690788438708
H           15.81358275721113       23.96024869664048       -1.85431777135612
C           17.13398790587727       30.22617658440460        0.29343876488486
H           16.26188730543301       30.17926908611294       -0.37125490892752
H           17.77843659531150       29.35945605905689        0.09998139135353
H           17.68611826134280       31.15173479636233        0.09410203658231
C           17.68193910835027       32.32898257054688        2.66771908485088
H           17.04061897825056       33.17144230747093        2.37276521071698
H           18.48847284602754       32.23436236556108        1.92782257716052
H           18.12135113350867       32.54492542617835        3.64845207035443
C            9.59663881093284       29.44899402395246        2.49676976042750
H            9.56168317386769       30.41962501522907        1.98219834923209
H            8.68204191728578       29.34089189981352        3.09522029086784
H            9.62350111029075       28.65769001069471        1.73713468919859
N           11.06438306252358       30.24873208194201        4.41961849118613
H           10.44554249461638       30.99295671667085        4.71313351566487
C           10.82551636790249       29.36600993727592        3.37822546365338
C           12.30757610730981       29.89914867200057        4.96522446710678
H           12.78019601080620       30.39903298107087        5.80427831719957
N           12.80906113701248       28.84428323845309        4.28433900302020
C           11.89819593744768       28.50516282242591        3.31637560287205
H           12.07353814227721       27.66671447720382        2.65389318328865
O           16.22747652925375       27.25707783681113        5.29674395557889
O           16.87153209212637       26.57746989863696        4.46716984368651
77
 energy: -118.972784979550 gnorm: 0.065502974319 xtb: 6.7.1 (edcfbbe)
Fe          14.74038217168628       27.90409800766882        4.77819489110873
N           15.11256648474434       29.19543865577910        6.29266305104332
N           13.76123293318748       26.65530756248795        5.98922537885343
N           14.52339478814766       26.62921685553792        3.24768828578428
N           15.66004569045799       29.26414512555820        3.54950192118012
C           15.60897944592663       30.45931058310380        6.21251578187303
C           15.45050453800058       31.12703873752301        7.47047762615263
C           14.81254908741262       30.26035934062870        8.30136598068014
C           14.59403926663845       29.05622540144749        7.54028722426586
C           13.54541462090694       26.83290132046089        7.32417165908260
C           12.97326415828095       25.64803342690718        7.91948233496402
C           12.90676459027436       24.70341629776863        6.91733671821263
C           13.37386034164257       25.37718766860603        5.71028901449667
C           14.01392928311819       25.37154852314479        3.32453652136560
C           14.22275122381336       24.65969896908249        2.08467944417798
C           14.91542328271740       25.49871697755613        1.23381905642047
C           15.03624039584281       26.76422613001352        1.98942140824890
C           15.91064689866005       29.07114291859208        2.23581520369266
C           16.66776054510197       30.17660380010318        1.68994296880708
C           16.87359167852340       31.05293194470683        2.71203479508633
C           16.20807599978493       30.47331696480681        3.85907866735798
C           16.13100798297545       31.08343151804957        5.09073105149203
H           16.47920747972337       32.11036721640404        5.14092140736828
C           13.88899040120858       27.97070592612227        8.04550265647412
H           13.59214466915726       28.01873185818269        9.08393205444390
C           13.42576389700512       24.79649454911015        4.45232189458429
H           12.99834650389289       23.80683697286524        4.34718113883977
C           15.56995298354591       27.94531161728597        1.49827378738562
H           15.78492915977927       28.02145567730511        0.44307825288789
C           14.33918838327285       30.52756136021334        9.68732250333772
H           13.24958873593435       30.58036447658818        9.71329730265149
H           14.73510381300887       31.48250977030762       10.02288103117244
H           14.66330936457635       29.74799838764025       10.37337768357438
C           15.84982797738110       32.54467075271046        7.71123716245265
H           15.08082233178280       33.21562860004200        7.32239605730211
H           16.78497570496350       32.77124025701423        7.20435467262636
H           15.97208374663950       32.74108387405160        8.77244221677549
C           12.55357940503077       25.52353021088035        9.35821923095695
H           12.10006235101572       26.44272050635551        9.73341050419406
H           13.40993278433170       25.29850451103324        9.99953026887915
H           11.82334747060168       24.72276033517099        9.47895896862366
C           12.52253313135096       23.29135550380050        7.01142761550890
H           12.12357682321545       22.82544941510518        6.10811310731974
C           12.64582100275350       22.54152372745639        8.09191874266418
H           13.06503179552273       22.92453832150492        9.00894958002094
H           12.35490486868440       21.49804515244412        8.12760349530126
C           13.71487871733892       23.25881170219166        1.91403387955341
H           12.66283674224348       23.19143223404237        2.20082545038931
H           14.27321235285235       22.55643331171897        2.53601932852681
H           13.78931398818687       22.93694080827387        0.88465560120791
C           15.47332069248302       25.22458737381450       -0.10202556957859
H           16.05960140187488       26.03153986723843       -0.55184325254191
C           15.36918875953516       24.12197617865564       -0.82260010557807
H           14.83860812900015       23.24087993290838       -0.49427991434622
H           15.81059283063207       23.99628241216508       -1.80804565912924
C           17.13462197130367       30.22796389042027        0.28431141392971
H           16.27524791863349       30.18221427949960       -0.38232325941254
H           17.77767370289252       29.37179058282638        0.08783673229658
H           17.68400037480390       31.14355883532064        0.08990798604316
C           17.67037598139902       32.31893883858349        2.67160814989084
H           17.04353684087766       33.16336219104848        2.37885282584521
H           18.47458172326257       32.23259274675075        1.94062618817347
H           18.11474430709765       32.53924027392183        3.63863735768331
C            9.60923211448539       29.45170794475145        2.50998346067613
H            9.56665752404066       30.41193561346808        1.99387285154632
H            8.69583985470439       29.34214553820825        3.09498405547273
H            9.63160618990312       28.66689433993140        1.75738418345019
N           11.08976460031779       30.22490400894214        4.41002878994143
H           10.47335588226956       30.97425629944708        4.71090283849038
C           10.82361243210748       29.36621785981894        3.37314558374053
C           12.28559859526584       29.88104790505466        4.93431332353090
H           12.75579399451078       30.38086478143309        5.76768215192255
N           12.79585203213388       28.86602724823515        4.30396488002341
C           11.89909383597143       28.52388506741305        3.33105117562504
H           12.07701606647266       27.69061671862170        2.67077977858519
O           16.22614306233744       27.24686724888169        5.28602712619682
O           16.91064718883903       26.56339825728548        4.45377232815335
77
 energy: -118.983078605991 gnorm: 0.026147944954 xtb: 6.7.1 (edcfbbe)
Fe          14.78595727213151       27.88610484383997        4.77934855649216
N           15.03720869648409       29.22508700006847        6.28358915047747
N           13.76474764702085       26.64529895770620        5.99963636486443
N           14.52918347499756       26.61137439370226        3.23591893517372
N           15.65332843611893       29.26302329032634        3.53185605783622
C           15.58396188940751       30.46556043255447        6.21589303377104
C           15.43583229948922       31.14541736727130        7.47814319433192
C           14.79959893999145       30.27809684365079        8.31173056078280
C           14.56389780151328       29.07608408704935        7.54574332363399
C           13.54516476281818       26.83558447365024        7.32805633592955
C           12.97987914306500       25.64877875160555        7.91993932191060
C           12.90023975940059       24.71381918056921        6.91684224722752
C           13.36781119225351       25.38100063167201        5.71030009971665
C           14.01197679781902       25.36295341781669        3.32441589621475
C           14.20304780335242       24.64858534955154        2.08270309130462
C           14.87900422088179       25.48985823893699        1.23524795866717
C           15.03348554445612       26.74494537272852        1.98345631814446
C           15.90688065314120       29.05064919693723        2.21797195290552
C           16.66017017640557       30.16033756197019        1.67599548818611
C           16.86495486741961       31.03782569123156        2.70014597155933
C           16.20741595290987       30.46105102483385        3.85060293259221
C           16.13187332429984       31.06231983537632        5.09396068902118
H           16.50079341547562       32.07589098814314        5.16407680486532
C           13.87726051581883       27.97677737314147        8.04516438418738
H           13.59605594627478       28.01237153921184        9.08622429626704
C           13.43092948994475       24.79924487071748        4.45440793468879
H           13.03172989303642       23.79957404260107        4.35651980943977
C           15.57831242270096       27.91446757168440        1.48752418225144
H           15.82432274673635       27.96239633658172        0.43608912816745
C           14.33832836559636       30.52845786062815        9.70369003137656
H           13.24948772758994       30.57546427490177        9.73374288201562
H           14.73045783061579       31.47891262596282       10.05409590228966
H           14.66600902178636       29.74180968225278       10.37866548671590
C           15.85076486560333       32.55515451069535        7.72207419414702
H           15.09087217666030       33.23487375142857        7.33261688659793
H           16.78979725575259       32.77292744087667        7.22073724258475
H           15.97323639900386       32.74838381345762        8.78314870314039
C           12.56029659647113       25.52481753804731        9.34521509590176
H           12.11293778824106       26.45122576284792        9.70330611705801
H           13.41558794454661       25.29861561124979        9.98386421198025
H           11.82842679871213       24.72740135935499        9.45683368257596
C           12.51360274744398       23.31774893520230        7.00805703194670
H           12.12416534900114       22.86591691223627        6.10037163201327
C           12.64406681424249       22.55465092519497        8.08862481595546
H           13.08048693849698       22.91891196790047        9.00406796638117
H           12.35351277120615       21.51579539018799        8.10367430147601
C           13.70722847535458       23.25404228469984        1.91476089344452
H           12.66162666424304       23.19623222575382        2.21792054744524
H           14.28151165806046       22.56753392982844        2.53651433807139
H           13.77021761953794       22.92328413597697        0.88766128605566
C           15.43975763728000       25.24864192475968       -0.08177266379128
H           16.02382127592118       26.06865957713232       -0.49623485937101
C           15.37177075494704       24.13810037925099       -0.81618510317023
H           14.85241718469455       23.24307195369608       -0.51311236921366
H           15.83505258191093       24.05090121552083       -1.78811112789516
C           17.13465186998570       30.22688007000522        0.26906426625425
H           16.28605770983946       30.18590369614497       -0.41213433614150
H           17.78574213934428       29.37960022890340        0.06059843833413
H           17.68365735028160       31.14477502881656        0.08465200186949
C           17.65422309641304       32.30566322079472        2.67097393365229
H           17.02911964009005       33.15348489943975        2.38594380935053
H           18.46007963238484       32.22659205109392        1.94349112283588
H           18.09906987087439       32.52113163223863        3.63877330213680
C            9.61824453719637       29.45112818638572        2.51901232623994
H            9.57489876527301       30.41183046868186        2.00580314344928
H            8.70896530022890       29.34132734082365        3.10869022629053
H            9.64218623180678       28.66455749963795        1.77117535303983
N           11.09161534831755       30.22395208791152        4.40282805600507
H           10.47982598106656       30.97061987202347        4.70164315993394
C           10.83260483991204       29.36120537524543        3.36899845922060
C           12.28085708337531       29.88006422852202        4.93072399032166
H           12.74038183402109       30.38381839084628        5.75906817029292
N           12.80059470487635       28.85640246754045        4.30931963036892
C           11.90995558527088       28.52086067059188        3.33035087914736
H           12.09231353608314       27.69672259023870        2.67067245688609
O           16.25142387992118       27.24024057564465        5.27256579647542
O           16.95506473515237       26.56022476429450        4.44605466769391
77
 energy: -118.986789088576 gnorm: 0.015409895944 xtb: 6.7.1 (edcfbbe)
Fe          14.81830503990569       27.88672241636494        4.78520334837626
N           14.99611756324762       29.24010975461279        6.28519903213144
N           13.77492968103744       26.64587154487754        6.00438401602712
N           14.54108295769528       26.60136619624444        3.24098713755635
N           15.65091568052653       29.24831053990410        3.51604471830017
C           15.54671174880718       30.47728197799875        6.20894922760277
C           15.41792843148309       31.16029295165330        7.47860195519136
C           14.78082972470992       30.29548587593420        8.31523156887600
C           14.52834819897902       29.09507898533366        7.54666567009182
C           13.55221431705293       26.83976930464876        7.33156062815047
C           12.98731018523020       25.65348587013476        7.92084497240597
C           12.90023015988180       24.72187552710510        6.91722236723878
C           13.37568527933173       25.38303600579753        5.71491092627187
C           14.01845114648270       25.35558886640728        3.33349452333011
C           14.18314930899863       24.64103363485411        2.08734155201183
C           14.85573502776766       25.48239741422407        1.23950529327298
C           15.03224430022780       26.72957824422801        1.98527087024058
C           15.91256790806877       29.02802912944043        2.20397214404997
C           16.65820734588396       30.14173351649505        1.66192187190039
C           16.85834443726320       31.01865210942586        2.68713300529906
C           16.20213411418376       30.44568281628083        3.83885840826776
C           16.12179312310110       31.04602006635904        5.08512947804003
H           16.53199969149462       32.04144915265449        5.17828250556387
C           13.86351739576240       27.98683771326230        8.04391643367191
H           13.59453578028910       28.01011521550074        9.08870924051067
C           13.44813439600670       24.79510035110647        4.46460909286244
H           13.06814146331454       23.78874501301632        4.37246677025610
C           15.59703647374699       27.88557521645158        1.48090685137998
H           15.87177851013858       27.90337197028051        0.43416588279841
C           14.33634421144748       30.52715677277603        9.71787534143165
H           13.24687940861680       30.56786549067889        9.76368984345874
H           14.72716269921366       31.47234314546186       10.08667083059921
H           14.67378378282485       29.72987239631043       10.37753275280631
C           15.85363759876853       32.56223424741705        7.73228878903706
H           15.10774317858873       33.25957231428416        7.34440846199876
H           16.80024812880732       32.77059665153765        7.23959464924179
H           15.97297035204314       32.74844092473393        8.79623598984427
C           12.56279693455264       25.52981637106316        9.34058095880691
H           12.12013198751773       26.46099938347910        9.69061237399631
H           13.41565278924839       25.29999031793721        9.98031210246801
H           11.82853397058166       24.73429363509981        9.44507617282616
C           12.50950045565520       23.33419859730956        7.00046275797863
H           12.10548586390215       22.89741867113505        6.09634377471584
C           12.64735607074121       22.56231684526636        8.07612574647922
H           13.08712716301146       22.91911555549047        8.99073617953354
H           12.34087816104688       21.53004405530833        8.07346932219320
C           13.68985866376712       23.24740590326885        1.92090203767423
H           12.65012491822509       23.18306615409788        2.24216352191190
H           14.28192951137168       22.56791550555360        2.53411086931148
H           13.74047990326383       22.91475221966927        0.89265831294999
C           15.42084248613878       25.26385260195363       -0.06946548404007
H           15.97624998504004       26.10348451765937       -0.46987604884407
C           15.37154871905865       24.16513415035399       -0.82208456543274
H           14.87164953864180       23.25821831086870       -0.53129622253910
H           15.86648293882644       24.11844138773007       -1.77931008020186
C           17.13564414191464       30.22533838907315        0.25341535862677
H           16.29417695271007       30.18825605876193       -0.43873422184316
H           17.79651889652595       29.38725747347903        0.03185986240614
H           17.68027835890628       31.15026917388871        0.08251476129130
C           17.63681576991066       32.29165320982545        2.66711911359321
H           17.00433378733845       33.13788077461647        2.39296661766392
H           18.44442560936211       32.22524097846313        1.94018216433307
H           18.07707964353345       32.49697508573214        3.64008484406618
C            9.62291441412227       29.44742435701251        2.52026308431697
H            9.57762079312668       30.41024314904578        2.01103734395616
H            8.72066981709060       29.33847958159125        3.12133579549172
H            9.64129487015946       28.65995951407929        1.77332700395393
N           11.09295216511205       30.22328076020315        4.39584192716427
H           10.48567583854869       30.96911166583455        4.69268794503390
C           10.84075239926720       29.35746453756094        3.36205743191613
C           12.28001867061253       29.88031796622920        4.93535859467121