87
 energy: -128.467907877366 gnorm: 0.000059556609 xtb: 6.7.1 (edcfbbe)
Fe          11.71534032108700        2.16199320948436       -2.23069676779173
N           12.37941797919562        3.24652675969598       -3.77843263976288
N           13.37447617759738        2.61322534940375       -1.19916295015215
N           11.04940873607006        1.05808681318311       -0.69038376563918
N           10.04847160219613        1.72453078025088       -3.25710399314374
C           11.75525448330357        3.44119413801671       -4.96715086616523
C           12.55940906177904        4.27219684085599       -5.83779364508741
C           13.68666520853398        4.57578266132860       -5.14152539698914
C           13.55415676994464        3.92603268422564       -3.85495232050246
C           14.40737890189710        3.39526720061077       -1.61282872317906
C           15.41685523353404        3.49685601381852       -0.59000831737011
C           14.97081025712589        2.74574102008091        0.46514032245623
C           13.68517161095452        2.20913115550646        0.05767485143265
C           11.69111953742764        0.83992549582493        0.48921700574081
C           10.91042704846964       -0.01256766995634        1.34733173362671
C            9.76182611735790       -0.30597974482999        0.65819693977114
C            9.88176416170228        0.37031683596297       -0.61889634709673
C            9.00275687925649        0.96656058919816       -2.83388367752687
C            7.97774063488900        0.89448825567845       -3.85174269791138
C            8.43435731203338        1.62671466809462       -4.90315073745525
C            9.72953063170301        2.13711184348352       -4.51094482689403
C           10.51920727007684        2.93272555274995       -5.31936197611140
H           10.14057917993879        3.17707289627066       -6.30043200506272
C           14.50313714951607        4.00604822967405       -2.85368813444836
H           15.39167371942494        4.58518036786911       -3.05716980533749
C           12.91816788583795        1.37321311530523        0.84458487290334
H           13.30305580427399        1.11821618055711        1.82038671468607
C            8.91233808785093        0.33381848908420       -1.60685453315878
H            8.01509268802243       -0.23326186859144       -1.40755742145664
C           14.85836818131974        5.40180123840525       -5.55122338318599
H           14.73197136295392        5.77737891601226       -6.56377405409179
H           15.77528506463702        4.81260481651152       -5.51646485508065
H           14.98013625758345        6.25488167982754       -4.88279402961194
C           12.16401107718348        4.67625849371509       -7.21704745758014
H           11.23195642563581        5.24179146466265       -7.19835904555036
H           12.01321907921853        3.79790701939119       -7.84521108568196
H           12.93118907357490        5.29650932411853       -7.67452297722326
C           16.64971811299024        4.32813474101478       -0.67923590256846
H           16.44978305482160        5.26047557048665       -1.20561465339475
H           17.43927839876109        3.80008211918164       -1.21706465448417
H           17.01380346173397        4.56355438714693        0.31890082476986
C           15.58792208246845        2.52189389505149        1.75295274174437
H           14.90339231905586        2.40679674054596        2.58571146255390
C           16.89511667814483        2.44127239337153        1.98191966137463
H           17.62081929017413        2.49899741546219        1.18960458751552
H           17.28478476076445        2.28644989648856        2.97464013078279
C           11.33934335661179       -0.51246191179791        2.68304852864180
H           11.13524919010847        0.22620642965597        3.46030259208894
H           12.40792196520520       -0.72224487344574        2.69048638006624
H           10.80323622512675       -1.42685475079793        2.93004837909688
C            8.64326613308781       -1.13267830417324        1.05093313809758
H            8.14675795577666       -1.66232082791037        0.24536190066387
C            8.18341595060125       -1.27896086632902        2.29002625196495
H            8.60175059164552       -0.74323770348152        3.12396902691153
H            7.35008063489329       -1.92627339592135        2.50868303569551
C            6.69801558092060        0.14256613161574       -3.70764058350975
H            6.12874968464535        0.51094645273150       -2.85356109696864
H            6.89071337854648       -0.91938265527866       -3.55043518517924
H            6.08417649036764        0.24915389208876       -4.59879516749880
C            7.78738532100842        1.89257778533808       -6.21957653492322
H            7.64265188336319        2.96326603904777       -6.36615861905295
H            6.81754522715755        1.40445656354932       -6.28108997966859
H            8.41005624675433        1.52208680991707       -7.03436432692131
C           10.42901832897037        7.31274878960878       -0.44508166425993
H           10.29959271120652        7.46315184168561        0.62677353400146
H            9.63465361610925        7.85048692490450       -0.96293817742083
H           11.38472615820566        7.73305982197795       -0.74225552456575
N            9.30912026356161        5.07369772410588       -0.51947245675503
H            8.45239248373207        5.37387416881302       -0.08422214560523
C           10.39540753721805        5.86711913269978       -0.78312546644244
C            9.60169637387831        3.82470704927101       -0.94673106270454
H            8.93348794905092        2.99218365241805       -0.86764747779204
N           10.80433807300069        3.77884762148552       -1.46385624631009
C           11.31077566788037        5.04125273922369       -1.36959319548944
H           12.29313125015565        5.26939808466240       -1.72748063162491
C           15.33172676982527       -1.47017309837372       -4.48716640389653
H           15.10118489928479       -1.88510738217063       -5.46848720866091
H           15.69933447269413       -2.27748011732193       -3.85359207726264
H           16.11795973915057       -0.73002180671814       -4.59822171170324
N           12.97715527273108       -1.52874830793660       -3.63570917548725
H           12.82638030402884       -2.50662362218148       -3.82162654366051
C           14.13150525175938       -0.83371158892888       -3.88752519698946
C           12.08991683387836       -0.66467381546567       -3.09324056679583
H           11.09759750121106       -0.93276638423856       -2.79472011447749
N           12.61069815503325        0.53246266193129       -2.98643417731508
C           13.87987136455889        0.44366021811844       -3.47655759594390
H           14.52266807501780        1.29887290343674       -3.50055465500588
