87
 energy: -128.414834969777 gnorm: 0.213080215222 xtb: 6.7.1 (edcfbbe)
Fe          11.68500000000000        2.24500000000000       -2.23800000000000
N           12.37000000000000        3.27400000000000       -3.77300000000000
N           13.33100000000000        2.70300000000000       -1.25000000000000
N           11.00000000000000        1.16700000000000       -0.71200000000000
N           10.05700000000000        1.74200000000000       -3.23300000000000
C           11.79500000000000        3.36600000000000       -5.05000000000000
C           12.66300000000000        4.10200000000000       -5.95400000000000
C           13.73100000000000        4.50900000000000       -5.21700000000000
C           13.53700000000000        4.01400000000000       -3.87300000000000
C           14.38100000000000        3.52200000000000       -1.63400000000000
C           15.39200000000000        3.59700000000000       -0.59800000000000
C           14.93400000000000        2.86800000000000        0.43900000000000
C           13.67800000000000        2.28700000000000        0.02900000000000
C           11.68400000000000        0.89500000000000        0.47000000000000
C           10.95500000000000       -0.03000000000000        1.30800000000000
C            9.78300000000000       -0.30900000000000        0.67400000000000
C            9.81000000000000        0.45300000000000       -0.58000000000000
C            8.95400000000000        1.01300000000000       -2.80500000000000
C            7.92800000000000        0.99000000000000       -3.82500000000000
C            8.41400000000000        1.64700000000000       -4.89300000000000
C            9.74300000000000        2.10300000000000       -4.54100000000000
C           10.55600000000000        2.84700000000000       -5.38700000000000
H           10.19000000000000        3.03700000000000       -6.39600000000000
C           14.48100000000000        4.15900000000000       -2.86400000000000
H           15.34100000000000        4.80300000000000       -3.04600000000000
C           12.91100000000000        1.45300000000000        0.82600000000000
H           13.30000000000000        1.21300000000000        1.81500000000000
C            8.83200000000000        0.39800000000000       -1.56300000000000
H            7.91900000000000       -0.15700000000000       -1.35000000000000
C           14.94400000000000        5.29500000000000       -5.69200000000000
H           14.76600000000000        5.66400000000000       -6.72500000000000
H           15.84000000000000        4.63800000000000       -5.69400000000000
H           15.11300000000000        6.16500000000000       -5.02300000000000
C           12.47800000000000        4.35900000000000       -7.44800000000000
H           12.25000000000000        5.43400000000000       -7.61400000000000
H           11.63400000000000        3.74800000000000       -7.83200000000000
H           13.41200000000000        4.10100000000000       -7.99200000000000
C           16.70700000000000        4.36600000000000       -0.64700000000000
H           16.55100000000000        5.39400000000000       -0.25500000000000
H           17.06500000000000        4.43200000000000       -1.69700000000000
H           17.46600000000000        3.85200000000000       -0.01900000000000
C           15.49200000000000        2.86000000000000        1.71300000000000
H           15.20900000000000        3.64300000000000        2.43200000000000
C           16.40000000000000        1.90500000000000        2.13600000000000
H           16.71800000000000        1.09900000000000        1.45900000000000
H           16.81400000000000        1.94100000000000        3.15400000000000
C           11.42200000000000       -0.56800000000000        2.67300000000000
H           10.91800000000000       -0.00300000000000        3.48600000000000
H           12.52100000000000       -0.43800000000000        2.77200000000000
H           11.15700000000000       -1.64300000000000        2.76300000000000
C            8.75100000000000       -1.16300000000000        1.06600000000000
H            8.01200000000000       -1.42600000000000        0.29800000000000
C            8.51900000000000       -1.74300000000000        2.32200000000000
H            9.20000000000000       -1.54500000000000        3.16300000000000
H            7.65300000000000       -2.40300000000000        2.48100000000000
C            6.53900000000000        0.39100000000000       -3.70200000000000
H            6.20000000000000        0.45500000000000       -2.64600000000000
H            6.56200000000000       -0.67600000000000       -4.00900000000000
H            5.82900000000000        0.95600000000000       -4.34300000000000
C            7.65600000000000        1.86500000000000       -6.20000000000000
H            6.94600000000000        2.71100000000000       -6.08000000000000
H            7.08400000000000        0.94900000000000       -6.45900000000000
H            8.37300000000000        2.10800000000000       -7.01300000000000
C           10.46500000000000        7.34600000000000       -0.27000000000000
H           10.36600000000000        7.41100000000000        0.83500000000000
H            9.66100000000000        7.95100000000000       -0.74000000000000
H           11.46000000000000        7.74100000000000       -0.56600000000000
N            9.22700000000000        5.14200000000000       -0.47100000000000
H            8.39000000000000        5.44800000000000       -0.01700000000000
C           10.34000000000000        5.92200000000000       -0.69900000000000
C            9.47100000000000        3.92500000000000       -0.96100000000000
H            8.75300000000000        3.10600000000000       -0.91400000000000
N           10.67400000000000        3.86500000000000       -1.49400000000000
C           11.22800000000000        5.11900000000000       -1.33500000000000
H           12.22700000000000        5.32700000000000       -1.69900000000000
C           15.24900000000000       -1.26000000000000       -4.73100000000000
H           14.83900000000000       -1.89400000000000       -5.54600000000000
H           15.91800000000000       -1.87800000000000       -4.09500000000000
H           15.82100000000000       -0.42100000000000       -5.18100000000000
N           13.22300000000000       -1.50300000000000       -3.22300000000000
H           13.24500000000000       -2.50100000000000       -3.16700000000000
C           14.12700000000000       -0.72100000000000       -3.90700000000000
C           12.32600000000000       -0.68500000000000       -2.65900000000000
H           11.49100000000000       -1.04100000000000       -2.05600000000000
N           12.59400000000000        0.57400000000000       -2.93300000000000
C           13.72600000000000        0.56000000000000       -3.71400000000000
H           14.15400000000000        1.48900000000000       -4.07100000000000
87
 energy: -128.450105142360 gnorm: 0.081917090003 xtb: 6.7.1 (edcfbbe)
Fe          11.67387243818843        2.23483348593915       -2.24032619063682
N           12.36572772105273        3.28540938076972       -3.79051435258176
N           13.33539867162762        2.71149326793448       -1.24404924885796
N           11.00056644367134        1.15143872279870       -0.68945883888768
N           10.04012616509849        1.73950535918434       -3.24988668791001
C           11.79936381417120        3.36342899903346       -5.04895764803888
C           12.66134274442773        4.10053561574727       -5.95214983802506
C           13.72982407232109        4.51090813132123       -5.21659257992139
C           13.53558029955469        3.99967113382061       -3.88173664648690
C           14.37814018044315        3.51294591920597       -1.64224030740056
C           15.38323217363639        3.60887724366135       -0.60818776067051
C           14.92321357909716        2.87306099634313        0.43736001665734
C           13.66122290732458        2.30237712461786        0.02583508686111
C           11.68838559463856        0.89437524514398        0.47523970599503
C           10.96317630399032       -0.01669399520228        1.31980707604277
C            9.78363259584327       -0.30521290561330        0.67761155949873
C            9.82857852952766        0.43792230298530       -0.58382508591401
C            8.95173386639198        1.02820700263459       -2.80226244256635
C            7.92363878976091        0.99317633435346       -3.81652056256768
C            8.41398552775476        1.65044373597161       -4.89749284913046
C            9.73606747966912        2.11289416482144       -4.53910311127023
C           10.56070779550978        2.84348657036879       -5.38077354301400
H           10.19650645453879        3.03352406955726       -6.38425107888473
C           14.46969216236890        4.14683234621254       -2.86839632335839
H           15.32742596351663        4.78460303919964       -3.05020010735478
C           12.90893627708391        1.45848677085634        0.81961192483682
H           13.30715348254756        1.21971382779195        1.79979585272843
C            8.84712888933040        0.40776271322959       -1.56330669047210
H            7.93851720434664       -0.14730022269151       -1.35591881470210
C           14.92913842097167        5.28914235161398       -5.68552595924583
H           14.76815811333771        5.65814151518261       -6.70275021400763
H           15.82329153240153        4.65459711594915       -5.68851543049263
H           15.11392902796442        6.14837727832287       -5.03302970370499
C           12.46845384366313        4.35339093468192       -7.42622228151540
H           12.24846911672163        5.41230280762874       -7.60853408473769
H           11.64717473515456        3.75578443139847       -7.82809178395368
H           13.38325985588599        4.10195509106611       -7.97471195085974
C           16.68487408131247        4.36462811977169       -0.65477607970016
H           16.55296742069817        5.38158412259897       -0.26636514714006
H           17.06177503426651        4.43159428523186       -1.67928760713731
H           17.43617962150113        3.86277551573592       -0.03500440027124
C           15.50711308583168        2.82861484773482        1.74582469930069
H           15.22744381391946        3.61844741268948        2.44484352256452
C           16.39021835969403        1.90980904188323        2.14447299062976
H           16.70792138206122        1.11860223901299        1.47615742120544
H           16.81576302238047        1.93726532380554        3.13896115965138
C           11.42868660195326       -0.55257548944854        2.65248109156070
H           10.93298719827547       -0.01084071635225        3.46735050874303
H           12.50871323925168       -0.43859981646862        2.76873802737678
H           11.17937833682622       -1.61484346955749        2.74494335031471
C            8.73317069307593       -1.17512714623947        1.07904985667627
H            8.00402845221685       -1.42871657274131        0.31145523010329
C            8.51863321768249       -1.73206000998195        2.29379203826544
H            9.16206466367553       -1.53702282660207        3.13944967486167
H            7.67297361062524       -2.38667686268151        2.46077600041765
C            6.55252044019453        0.39132675895868       -3.69161442163275
H            6.19861258547771        0.44794940917135       -2.65827423395870
H            6.55812922720524       -0.66026931179112       -4.00031347491362
H            5.84712443890870        0.93646153690584       -4.32669099062642
C            7.67302456643328        1.86817748421561       -6.19093272005284
H            6.96394515973529        2.69827127950040       -6.08546810684656
H            7.10537033896857        0.97030735272447       -6.45541069402324
H            8.36014769711157        2.10344458015479       -7.00685327147498
C           10.45845783214288        7.34299513783105       -0.26775296622594
H           10.36453667309388        7.42109485434502        0.82139716324949
H            9.67445619448152        7.95288512062958       -0.72913141760117
H           11.43475235128448        7.73502346932507       -0.56137377766776
N            9.23283882849075        5.14882039107784       -0.47113237630845
H            8.39012229311119        5.45436241734484       -0.01567363992873
C           10.34446936839099        5.92415124810782       -0.69815472236777
C            9.48273178595789        3.92299698612420       -0.96505074247761
H            8.77481994063534        3.11145692319211       -0.92148646423798
N           10.68347000860736        3.86301008755823       -1.49215756645749
C           11.23002774137303        5.11112819138899       -1.33571180189646
H           12.21928862354872        5.31977967994838       -1.69673409305424
C           15.24649453289041       -1.26659431294651       -4.72788843433423
H           14.85510358352153       -1.89204031589879       -5.53812331764689
H           15.91764995289100       -1.87368332712661       -4.11125280820525
H           15.81214623208256       -0.44217299281063       -5.16772569039488
N           13.22825101107087       -1.50252338262924       -3.23166921469240
H           13.24897526251697       -2.50563000835117       -3.17383163478443
C           14.12835174298670       -0.72063876147602       -3.91434644362500
C           12.32914375077187       -0.67990607600752       -2.65973101908401
H           11.50233177914919       -1.02923139099372       -2.06408912447608
N           12.60157899267600        0.57503206724433       -2.92630469466151
C           13.72273477175846        0.56186922612527       -3.71211599235649
H           14.14974768374908        1.48088977392580       -4.06599275010846
87
 energy: -128.456900792812 gnorm: 0.016488122611 xtb: 6.7.1 (edcfbbe)
Fe          11.67129982896365        2.22898915870790       -2.24149732294222
N           12.36420743935875        3.28830974282218       -3.81048803060484
N           13.33886692584017        2.71989687930088       -1.23180596122436
N           11.00617598492747        1.13827505088908       -0.67413172598454
N           10.02845576007040        1.74592345544286       -3.25849143459392
C           11.79911599388741        3.36223836514242       -5.04902589780028
C           12.65599247291285        4.09882931264138       -5.95364976373702
C           13.72694791310627        4.50863103475792       -5.21920155113001
C           13.53190193442648        3.98660879334053       -3.88976136587388
C           14.37060133932704        3.51139790179893       -1.64048023287736
C           15.37200172706429        3.62315656370478       -0.60700453901344
C           14.91041063713562        2.89007412039118        0.44433952739675
C           13.64821792255870        2.32108820149142        0.03068925827181
C           11.69043710432815        0.89678943221503        0.48087543747215
C           10.96579899216720       -0.00877666939660        1.32624787356978
C            9.78822343124940       -0.30194178387206        0.67307829625740
C            9.84606942658167        0.43249604156165       -0.58567648818277
C            8.95398059715991        1.04346916314522       -2.80014050801272
C            7.91977162417043        1.00100399069953       -3.80708116136619
C            8.41128582947257        1.65573238938616       -4.89630878905769
C            9.73042004034624        2.11980018826478       -4.53485521157296
C           10.56115141420293        2.83960412702215       -5.37721383757922
H           10.19926300144061        3.02564474284238       -6.37850719405965
C           14.45798734471303        4.13420385975880       -2.87116933548822
H           15.32033852290110        4.75732549378120       -3.06014516217988
C           12.90702218811810        1.46716578583730        0.82119777586461
H           13.31651667371690        1.22880409493625        1.79316470335670
C            8.86358992898476        0.41935051781627       -1.56380938652269
H            7.95914433560146       -0.13749539005603       -1.36132640866676
C           14.91598900554994        5.28500763910759       -5.67943195180328
H           14.75999001104530        5.65372040372335       -6.68931035169018
H           15.80889326925640        4.65876881788216       -5.67838735954816
H           15.10362803260796        6.13718118391392       -5.02887097743320
C           12.45261157112009        4.34782111379246       -7.41226655801988
H           12.23416728627283        5.40027842351227       -7.59616962208953
H           11.63945377832312        3.75268361093584       -7.81318657063869
H           13.36028250854371        4.09708483693738       -7.96084589263269
C           16.66379980278463        4.36850022817829       -0.66199225447295
H           16.54120089140497        5.38304726941954       -0.28115443948314
H           17.04727403885130        4.42809144838792       -1.67689878397386
H           17.40486209880621        3.86803377623114       -0.04075192825906
C           15.51566964413064        2.81115392773699        1.76975472102811
H           15.22398132182222        3.59825828256809        2.45930253291171
C           16.39076923543841        1.90345797868310        2.15053781530088
H           16.70262505410690        1.11353048434691        1.48920215892192
H           16.82388242201170        1.91363119750557        3.13547279418775
C           11.43578118521493       -0.53880423734965        2.63679799120267
H           10.94511624597000       -0.01328093514102        3.45775511493537
H           12.50856273171710       -0.42230145996334        2.75234841245166
H           11.19957526621762       -1.59807699342456        2.72082018139322
C            8.71978240578697       -1.17794215592139        1.07478497178218
H            8.00615605062368       -1.42407598238650        0.29620702941549
C            8.50665251196065       -1.71467969978454        2.27171121800834
H            9.12496865425489       -1.52279627732311        3.12689333560104
H            7.67625862037828       -2.37795548472244        2.43949293767861
C            6.56340600146081        0.39004878873956       -3.67953936238333
H            6.20551285953545        0.44031499274205       -2.65493642771023
H            6.57024135693847       -0.65555669005718       -3.98840461891964
H            5.85806573433260        0.92256724179978       -4.31402881081840
C            7.68804790077122        1.87130297865148       -6.18457308336377
H            6.98166167231452        2.69742646313395       -6.08842146389539
H            7.12418923261017        0.97965504693743       -6.45198444195110
H            8.36918323048048        2.10161116785894       -6.99687071053177
C           10.45409520387869        7.34192077590729       -0.26800168396340
H           10.35856479183610        7.42417578807615        0.81380472551046
H            9.67602914562971        7.94961439152185       -0.72668659783049
H           11.42141293686653        7.73514617675762       -0.56058003248686
N            9.24223041094663        5.15084475588205       -0.47334873961512
H            8.39602004033186        5.45428813592325       -0.01850772980530
C           10.35202587381912        5.92464379593045       -0.69869849101440
C            9.49734068029951        3.91892916641782       -0.96844794715517
H            8.79749040519996        3.10964272376215       -0.92855427404695
N           10.69681735275975        3.86270933026148       -1.49165327933593
C           11.23858887268579        5.10537496498195       -1.33465525924066
H           12.22332262106928        5.31797518136724       -1.69251479798752
C           15.24814154651048       -1.27409773122014       -4.72738929605274
H           14.86661670322014       -1.89793647160102       -5.53455710619742
H           15.91548094370470       -1.87632081219879       -4.11409893318306
H           15.81359962999464       -0.45599389773889       -5.15982121380926
N           13.23093194441712       -1.50194316457922       -3.24423871929427
H           13.24909518816291       -2.50719478024334       -3.18598673709356
C           14.13021569077809       -0.72080908495361       -3.92354937836576
C           12.33329339158680       -0.67584653819490       -2.66209472884022
H           11.51160173602725       -1.01976498447373       -2.06896764323207
N           12.60936776688899        0.57680532052457       -2.92551267614441
C           13.72516455762617        0.56361409372718       -3.71074059862355
H           14.15611459838155        1.47592091313766       -4.06307603111164
87
 energy: -128.458040201787 gnorm: 0.007448137965 xtb: 6.7.1 (edcfbbe)
Fe          11.67454334538825        2.22705257046190       -2.24081222626558
N           12.36156571714103        3.28659444675463       -3.81531870352721
N           13.33623609867434        2.72464565303154       -1.22214726402538
N           11.01085986376426        1.14091079695332       -0.66841200122144
N           10.02894159216857        1.75120169689259       -3.25888285550093
C           11.79622243779372        3.35957502731766       -5.04912190869767
C           12.65009043875764        4.09727677083972       -5.95411913050153
C           13.72335357420440        4.50330105345140       -5.22089341236696
C           13.53075997840032        3.97659923758207       -3.89250486275067
C           14.36505694736441        3.51191308274223       -1.63543258723663
C           15.36311477771807        3.63223747037928       -0.59878529996086
C           14.90218683319995        2.90319639412972        0.45552915038042
C           13.64096086628259        2.33351422678909        0.04076257824370
C           11.69032355268552        0.90292575109857        0.48684048524446
C           10.96327897460364       -0.00369059911120        1.32927674890230
C            9.79041041341810       -0.29801233238517        0.66884303457039
C            9.85416567130383        0.43503739285867       -0.58644099554289
C            8.95703046027946        1.05243145109817       -2.79729001470052
C            7.91927469696043        1.00745150841155       -3.80055072289419
C            8.40917434343610        1.66002188219988       -4.89181697928642
C            9.72850390365499        2.12386761413259       -4.53206193482613
C           10.55863697021477        2.83790888803827       -5.37799965845367
H           10.19807446164084        3.02027495793811       -6.37995629946293
C           14.45588684399863        4.12138750742973       -2.87326635166068
H           15.32383846445860        4.73362094157785       -3.06951655133491
C           12.90419570562399        1.47634476999140        0.83066047418429
H           13.31860415009454        1.24059364228966        1.80052246803014
C            8.87181598567938        0.42551114183139       -1.56381845767616
H            7.96877937596412       -0.13239331962329       -1.36263751623584
C           14.90910412603868        5.28429407495301       -5.67613869628822
H           14.75426267843861        5.65589195568208       -6.68543308897395
H           15.80451067633848        4.66085000310175       -5.67284995560702
H           15.09174610943357        6.13458072229381       -5.02079086411372
C           12.43428121520257        4.34634072705833       -7.40919182869556
H           12.21032600588434        5.39796219785872       -7.59191533164705
H           11.61913895741949        3.74782575255004       -7.80239749885567
H           13.33808595542723        4.09653551648054       -7.96514581135717
C           16.65133576398481        4.37903060713285       -0.66302450051705
H           16.52848371154105        5.39916404517862       -0.29605727988684
H           17.03465604555852        4.42556806475556       -1.67930631648982
H           17.39055643877075        3.88446148220948       -0.03489467235741
C           15.51382871843573        2.80560335468146        1.78300597738533
H           15.21893083694455        3.58506667366950        2.47911357861220
C           16.38911276234909        1.88743850994867        2.15323076805385
H           16.70511760027172        1.10617213386783        1.48248924921261
H           16.82956950875343        1.88454544718510        3.13678286858037
C           11.44371574922658       -0.53628614916721        2.63322617842944
H           10.95426113180844       -0.02184633202920        3.46242814850038
H           12.51692752687050       -0.40694997997594        2.74112071672620
H           11.22072749399510       -1.59955445372242        2.70949548285421
C            8.71557108051694       -1.17660222641824        1.05848309318354
H            8.01640773791413       -1.42422678944811        0.26700488846873
C            8.48798282191473       -1.70783826790822        2.25875602751088
H            9.08317119121650       -1.49626629393336        3.12815033358342
H            7.65457659025412       -2.37051957938072        2.42063645806713
C            6.56972633825106        0.38484749560300       -3.66794891761442
H            6.21233590927541        0.43246784776722       -2.64233307018992
H            6.58764050197323       -0.66202755123788       -3.97411720055089
H            5.85761369692094        0.90815406479964       -4.30331108428936
C            7.69595860120315        1.87399102347703       -6.18426958649128
H            6.99155252891031        2.70339722547745       -6.09691190109875
H            7.13263237505855        0.98256828071440       -6.45472346462368
H            8.38523897833448        2.10043322635703       -6.99187312544729
C           10.45193904917139        7.34247825106240       -0.27037283633285
H           10.35226122392424        7.42582810472893        0.81142320388698
H            9.67036540304582        7.94456036622765       -0.73166619272926
H           11.41743701187956        7.74275280363139       -0.56147218143008
N            9.25244013181818        5.14772655198839       -0.47656065280219
H            8.40437489451953        5.44869330935212       -0.02396274208179
C           10.36026080902773        5.92392523314606       -0.69989213601555
C            9.51180957563412        3.91511297399435       -0.97043593653676
H            8.81573519039955        3.10287610833330       -0.93335625116245
N           10.71249443595102        3.86301474950397       -1.49018665679275
C           11.25099895391299        5.10552885438426       -1.33280911069418
H           12.23633832739264        5.32248343379917       -1.68751402013005
C           15.25357183168486       -1.28146405965958       -4.72753997085616
H           14.87621482859692       -1.90720323042310       -5.53576103700796
H           15.91540719374333       -1.88475943464010       -4.10833297899871
H           15.82549134425936       -0.46607916693443       -5.15803511536209
N           13.23018729130179       -1.50206589576677       -3.25593794923173
H           13.24401140042368       -2.50748374094344       -3.20067083433640
C           14.13313799684843       -0.72242641778984       -3.93054444320896
C           12.33614007532013       -0.67414036057617       -2.66864310614574
H           11.51362322547234       -1.01554254841509       -2.07572815895992
N           12.61817086227455        0.57847893313278       -2.92690322987790
C           13.73294943067998        0.56347168408845       -3.71207768760741
H           14.17066570340561        1.47386106309344       -4.06195875508583
87
 energy: -128.458825284431 gnorm: 0.009091339751 xtb: 6.7.1 (edcfbbe)
Fe          11.68064630974106        2.22703961106435       -2.23778863701267
N           12.36071105772535        3.28038876600242       -3.81870843067466
N           13.33535258090231        2.72616217575354       -1.21176018862535
N           11.02006007089238        1.14467910025641       -0.66300907206417
N           10.03268684949622        1.75786283399725       -3.25769804572393
C           11.79270340682310        3.35640946032453       -5.04820644382857
C           12.64336199954945        4.09575267051338       -5.95432402962795
C           13.72071790858736        4.49469169911180       -5.22362760485454
C           13.53154692909080        3.96319959439483       -3.89520153188154
C           14.36042682755884        3.51193937014153       -1.62884465292094
C           15.35523316854114        3.64254759255622       -0.58850213049458
C           14.89534588231240        2.91941573147755        0.46934388164485
C           13.63567393236809        2.34547995109036        0.05373503348236
C           11.69171433846762        0.90954500094172        0.49583542500678
C           10.95892000490393        0.00211060689693        1.33521268634881
C            9.79282696105833       -0.29215813384124        0.66537118210945
C            9.86479273540158        0.43901052679217       -0.58701539340861
C            8.96231441618753        1.06188476033153       -2.79333461329454
C            7.91964565975217        1.01471117550009       -3.79216415628954
C            8.40652090781983        1.66450354160999       -4.88535184831560
C            9.72731767319622        2.12820810679873       -4.52872096856125
C           10.55507255673974        2.83722273629282       -5.37917910676930
H           10.19549985260777        3.01652672938934       -6.38164931762542
C           14.45656007767401        4.10422039544494       -2.87570756550539
H           15.33201266176359        4.70267724350301       -3.08121969277848
C           12.90165750267981        1.48801791016005        0.84568878407026
H           13.31833613050055        1.26197591979601        1.81639352510035
C            8.88162801938336        0.43274644400542       -1.56287746369345
H            7.97890424729214       -0.12464577271884       -1.36192408104685
C           14.90220466729485        5.28437482617282       -5.67304029557803
H           14.74807539662751        5.65940118112096       -6.68192017446215