78
 energy: -116.058038533905 gnorm: 0.000090926295 xtb: 6.7.1 (edcfbbe)
Fe         -11.78350523238822        2.28355408776684        1.32559269405917
N          -12.43140110660423        0.66731626677345        2.29498027625674
N          -10.13988724137690        2.32137633844907        2.45406483394311
N          -11.11759474048993        3.88144789659551        0.29510970752206
N          -13.41023007958705        2.21733870809433        0.14172401506121
C          -13.59361824819505       -0.00412940846772        2.08893471035292
C          -13.71351174699032       -1.11643396778464        3.00736438101668
C          -12.59194144107400       -1.09946617097741        3.77455689917046
C          -11.80398558004844        0.02430004258365        3.31476625006055
C           -9.81539833872540        1.45480534431129        3.45031519396979
C           -8.55883806146622        1.81476461186212        4.05711447842926
C           -8.12634588093990        2.93903322805603        3.40608224387526
C           -9.13135911584018        3.22846094665574        2.39988499451264
C           -9.98576621570589        4.59651036529901        0.54812819680965
C           -9.86846180199118        5.70769213521041       -0.35909896329595
C          -10.96767308908093        5.65648184375368       -1.17661616837817
C          -11.73213145144176        4.50349218020917       -0.74569531126567
C          -13.72072886367429        3.06769761425164       -0.87511485406141
C          -14.99772112512578        2.72248472915024       -1.45790364068532
C          -15.45700909289474        1.64789406406589       -0.76120391358203
C          -14.45310340710766        1.34905316510554        0.23467113807425
C          -14.54719839515516        0.30836121055726        1.13854129190511
H          -15.43119954206104       -0.30918686044328        1.09624958108462
C          -10.58643754486190        0.37988433077746        3.85890354690819
H          -10.20953499560381       -0.22458422261911        4.67000011212775
C           -9.06044163601208        4.30126749488701        1.53357950343125
H           -8.21591399338628        4.96575969536174        1.63252649367994
C          -12.94351893461418        4.12937489985302       -1.30017893464982
H          -13.32633542517232        4.72764727550003       -2.11270988145931
C          -12.18471189186926       -2.01818558318179        4.87525128088611
H          -12.93943330242434       -2.78327507595751        5.03977471825959
H          -12.04607512236908       -1.46753142600676        5.80622212531378
H          -11.24379680015843       -2.51175215055411        4.63156869691111
C          -14.86866912785635       -2.05741821219848        3.04256484996404
H          -14.97220121203731       -2.57220269969522        2.08718609204269
H          -15.79637253018035       -1.51912673551008        3.23860192557853
H          -14.73538367904546       -2.80494416997339        3.82072577900188
C           -7.87008414005536        1.04069286196723        5.12655041566336
H           -7.99945208652617       -0.02902054936689        4.97006285014504
H           -8.27121854762873        1.28955796122410        6.11079805703812
H           -6.80575970689492        1.26668602954152        5.12326905695511
C           -6.91374499004365        3.70094249721934        3.60561511628778
H           -6.48779907653640        4.14588599180437        2.71381653265327
C           -6.30633142387639        3.89401677038702        4.77208676777684
H           -6.70718348403981        3.51681303575513        5.69670457932939
H           -5.39389804278151        4.46237745420714        4.84480964650297
C           -8.71994876624399        6.65329918505386       -0.41354909069251
H           -7.78237544873586        6.13240000891421       -0.22523552993677
H           -8.82608477657071        7.43795760743266        0.33732129410347
H           -8.66726017009516        7.12101358440000       -1.39469264229864
C          -11.33314885213997        6.52228562846675       -2.27567678049805
H          -11.85449581875838        6.04272005742803       -3.09646458524492
C          -11.09017028384964        7.82721900715188       -2.34398759494502
H          -10.62003985890080        8.36524146324900       -1.53951182808296
H          -11.37933970677040        8.40965338225490       -3.20308091626360
C          -15.62579577138838        3.44907874583211       -2.59756159802681
H          -14.98031088177188        3.41827684728312       -3.47589961684097
H          -15.79470975453585        4.49496283705446       -2.33975132042374
H          -16.58176331886574        3.00307830415565       -2.86053936486821
C          -16.72323948491986        0.88155669024465       -0.93416765408569
H          -17.31737421083784        1.29330758408258       -1.74631166409360
H          -17.31858125770949        0.91570136440637       -0.02155320304769
H          -16.51125362005493       -0.16386162374952       -1.15993401726090
O          -10.75058149024629        0.99772569031541       -0.27143419354025
H          -11.51563041162311        0.75417555603528       -0.80403110326289
H          -10.27532602561965        1.68251742812205       -0.75463905560451
C          -14.80827855703957        6.31606508859820        3.70439854029657
H          -14.28582700170501        7.05078360171357        4.31687399434872
H          -15.72592885961046        6.03307592569361        4.22005893972196
H          -15.06920512007892        6.77582613848549        2.75639047892540
N          -13.46272744677175        4.35058929484114        4.47804544720235
H          -13.62425150077027        4.49768300935903        5.46085493242638
C          -13.95175323773200        5.12797612765419        3.46110643982487
C          -12.72742841891488        3.36194903956285        3.92117949053200
H          -12.22200618328893        2.60092760419819        4.47961786288628
N          -12.72171356353632        3.46612758468874        2.61423132918086
C          -13.47917328209310        4.55958619654784        2.31312962874813
H          -13.63236942688270        4.86338719603991        1.29863601563536
