78
 energy: -115.999685276738 gnorm: 0.231582164550 xtb: 6.7.1 (edcfbbe)
Fe         -11.83000000000000        2.35700000000000        1.34000000000000
N          -12.40200000000000        0.63100000000000        2.21100000000000
N          -10.09200000000000        2.35000000000000        2.43000000000000
N          -11.12900000000000        3.93500000000000        0.29400000000000
N          -13.43900000000000        2.19900000000000        0.08000000000000
C          -13.53100000000000       -0.08300000000000        1.93700000000000
C          -13.55100000000000       -1.25600000000000        2.76400000000000
C          -12.44100000000000       -1.23700000000000        3.51600000000000
C          -11.68800000000000       -0.05400000000000        3.17000000000000
C           -9.77300000000000        1.46300000000000        3.42800000000000
C           -8.57700000000000        1.91200000000000        4.11000000000000
C           -8.18400000000000        3.05100000000000        3.51800000000000
C           -9.14000000000000        3.34600000000000        2.45200000000000
C           -9.98400000000000        4.63000000000000        0.53000000000000
C           -9.80700000000000        5.63600000000000       -0.48400000000000
C          -10.86400000000000        5.54900000000000       -1.31200000000000
C          -11.74000000000000        4.49500000000000       -0.81000000000000
C          -13.77700000000000        3.12600000000000       -0.87200000000000
C          -15.13800000000000        2.88000000000000       -1.29600000000000
C          -15.59900000000000        1.81700000000000       -0.63800000000000
C          -14.51800000000000        1.36800000000000        0.22700000000000
C          -14.51400000000000        0.28000000000000        1.06500000000000
H          -15.39300000000000       -0.36400000000000        1.02900000000000
C          -10.49000000000000        0.32800000000000        3.72400000000000
H          -10.06400000000000       -0.33700000000000        4.47500000000000
C           -9.09700000000000        4.39500000000000        1.57200000000000
H           -8.28900000000000        5.11400000000000        1.70200000000000
C          -12.95200000000000        4.12100000000000       -1.33200000000000
H          -13.29700000000000        4.67400000000000       -2.20600000000000
C          -11.99700000000000       -2.27700000000000        4.55400000000000
H          -12.75000000000000       -3.09200000000000        4.60800000000000
H          -11.91200000000000       -1.79800000000000        5.55300000000000
H          -11.01800000000000       -2.71000000000000        4.25600000000000
C          -14.66400000000000       -2.31000000000000        2.73800000000000
H          -15.10600000000000       -2.35800000000000        1.72000000000000
H          -15.45900000000000       -2.03400000000000        3.46300000000000
H          -14.24400000000000       -3.30600000000000        2.99500000000000
C           -7.95200000000000        1.11800000000000        5.26700000000000
H           -8.00000000000000        0.03200000000000        5.04000000000000
H           -8.51500000000000        1.31500000000000        6.20400000000000
H           -6.88800000000000        1.41300000000000        5.39300000000000
C           -7.00300000000000        3.96200000000000        3.85900000000000
H           -6.61100000000000        4.63800000000000        3.08500000000000
C           -6.40300000000000        3.99500000000000        5.05100000000000
H           -6.74700000000000        3.34300000000000        5.86700000000000
H           -5.55700000000000        4.67400000000000        5.23200000000000
C           -8.57800000000000        6.55000000000000       -0.55900000000000
H           -7.66500000000000        5.96400000000000       -0.31900000000000
H           -8.68000000000000        7.37700000000000        0.17600000000000
H           -8.48000000000000        6.96400000000000       -1.58500000000000
C          -11.18700000000000        6.37000000000000       -2.57400000000000
H          -11.77800000000000        5.89600000000000       -3.37100000000000
C          -10.80400000000000        7.62900000000000       -2.78600000000000
H          -10.21000000000000        8.16600000000000       -2.03200000000000
H          -11.07700000000000        8.14600000000000       -3.71800000000000
C          -15.89000000000000        3.75800000000000       -2.29400000000000
H          -15.45400000000000        3.62500000000000       -3.30700000000000
H          -15.79800000000000        4.82500000000000       -1.99900000000000
H          -16.96100000000000        3.46300000000000       -2.32100000000000
C          -16.99300000000000        1.15700000000000       -0.72700000000000
H          -17.40800000000000        1.30300000000000       -1.74700000000000
H          -17.67800000000000        1.62600000000000        0.01100000000000
H          -16.90600000000000        0.06800000000000       -0.52600000000000
O          -10.83100000000000        0.82400000000000       -0.08300000000000
H          -11.18100000000000       -0.03200000000000        0.16400000000000
H          -10.24200000000000        0.98500000000000       -0.72900000000000
C          -15.18900000000000        6.14600000000000        3.82800000000000
H          -14.73600000000000        7.13800000000000        4.04000000000000
H          -15.78500000000000        5.82600000000000        4.70900000000000
H          -15.84600000000000        6.23300000000000        2.93700000000000
N          -13.14400000000000        4.84500000000000        4.47900000000000
H          -13.06700000000000        5.25800000000000        5.38600000000000
C          -14.11200000000000        5.15500000000000        3.56300000000000
C          -12.34600000000000        3.92700000000000        3.97100000000000
H          -11.48400000000000        3.50700000000000        4.48800000000000
N          -12.77000000000000        3.62100000000000        2.76000000000000
C          -13.86400000000000        4.38200000000000        2.47700000000000
H          -14.37100000000000        4.30500000000000        1.52300000000000
78
 energy: -116.036707730012 gnorm: 0.088042396003 xtb: 6.7.1 (edcfbbe)
Fe         -11.80100943212494        2.33402783089825        1.31551652892474
N          -12.40121579930106        0.64065828965171        2.22017768386192
N          -10.10029725758806        2.36574412884310        2.44760983575415
N          -11.13543376261356        3.93842583675681        0.29254700786407
N          -13.45503111234308        2.22831202932196        0.10835399219070
C          -13.53017636744727       -0.07637558241202        1.95318127334761
C          -13.55708605755464       -1.26834669367324        2.76644027424320
C          -12.43439455873167       -1.25110093094688        3.52366046034597
C          -11.70071103920154       -0.05251612065404        3.17253191663078
C           -9.77304646159301        1.47409912495137        3.42785787059400
C           -8.57085744392748        1.90600320663961        4.11258866688466
C           -8.17533288903515        3.06956874007082        3.52417862446260
C           -9.14154390689379        3.34272054325231        2.46067668388704
C           -9.98742909270383        4.62957265599536        0.52394761311478
C           -9.80358820746675        5.64563144639947       -0.48911167593373
C          -10.87244491136475        5.56313913786063       -1.32995563132476
C          -11.72152287776545        4.49246213749672       -0.81792665874186
C          -13.78462192394935        3.13287723296773       -0.85930171636823
C          -15.14114641747613        2.88918113263896       -1.30712411948906
C          -15.60218747275475        1.80798190498890       -0.63776730544458
C          -14.52087195061530        1.38455026793163        0.23525953963836
C          -14.52327158795836        0.28518208147324        1.06888738366124
H          -15.39545591110691       -0.35812712865529        1.02840827813491
C          -10.49465940132376        0.33013069414087        3.72645581117373
H          -10.07573347095579       -0.33062250369894        4.47740740125031
C           -9.09917652095584        4.39551018957015        1.57061819191156
H           -8.28929476720375        5.10578100774558        1.69093628047909
C          -12.94803496328867        4.12603079272822       -1.33541363050023
H          -13.30027102906064        4.68373340619084       -2.19640206097861
C          -11.99814244445900       -2.26946341087285        4.54611020659737
H          -12.73350657761281       -3.07631162632528        4.61014683827900
H          -11.90813637112836       -1.80631286990833        5.53398953487287
H          -11.03089740637437       -2.69989078765531        4.26688064492146
C          -14.65385851454349       -2.30286595849905        2.73727537035835
H          -15.09784672233259       -2.36156403962777        1.73941541554534
H          -15.44313111903425       -2.04250506291935        3.45119758302476
H          -14.25630723825208       -3.28868485312327        2.99409532893755
C           -7.95570641186369        1.12332150979193        5.24846317835161
H           -8.00165888458599        0.05023227267787        5.04042146016064
H           -8.49977306809900        1.31285405777799        6.18184440925940
H           -6.90702652880971        1.39753931833808        5.38512588239841
C           -7.02136864567152        3.94339187450592        3.85887435344568
H           -6.65068537111216        4.60784550299637        3.07968277536040
C           -6.41440543513212        3.98922344177565        5.04226224099513
H           -6.74358362758252        3.37615798910700        5.86996720303319
H           -5.57772266777031        4.65628162167730        5.22260734136377
C           -8.59002942890561        6.53862438222876       -0.56125515447984
H           -7.68392679958506        5.97189028787531       -0.32298502170793
H           -8.67863452239963        7.36144331553892        0.15783167095398
H           -8.48120390191066        6.95390680141243       -1.56631885621732
C          -11.17769944979841        6.36017051377370       -2.55146716552455
H          -11.76755091907100        5.87339344699671       -3.32737088200211
C          -10.79988932230665        7.61536842379049       -2.77247559358074
H          -10.22885939392429        8.17155386926476       -2.04056461069581
H          -11.06652152049318        8.12951193454565       -3.69108852634333
C          -15.88114486254826        3.75211839754622       -2.29342380564303
H          -15.45945203811018        3.63174324089047       -3.29705463479812
H          -15.80210097633460        4.80607559871087       -2.00832198365198
H          -16.93809325229846        3.47304725912761       -2.32281289922154
C          -16.96962331144934        1.16331040536921       -0.72691943414895
H          -17.39376855419803        1.30032228868898       -1.72674622414693
H          -17.65579423268317        1.61407032106165       -0.00063331821364
H          -16.90511029306174        0.09070542295888       -0.52658674852686
O          -10.83919953017754        0.83049309741006       -0.07112769633929
H          -11.17062842325059       -0.03770747391461        0.15133901132932
H          -10.21693423659005        0.97657305745465       -0.75995442620795
C          -15.18675261214585        6.14971831196770        3.83017712684441
H          -14.75244946635255        7.13355770468027        4.04040118347991
H          -15.78541123543580        5.84206464967522        4.69463726697076
H          -15.83699876184070        6.23313720783407        2.95698921501529
N          -13.15055694073578        4.84942987719700        4.47929114317562
H          -13.07038462881981        5.26462465912583        5.39201698541046
C          -14.11624449619750        5.15581769337865        3.56183987494930
C          -12.34767567165980        3.91545720859733        3.95138332267480
H          -11.49688577667965        3.50031103312277        4.46345727504443
N          -12.75076189184957        3.60492582528393        2.73635252495833
C          -13.85198410445181        4.36985064937871        2.47814465743300
H          -14.35912581606555        4.29900675083734        1.53464743673119
78
 energy: -116.045998311046 gnorm: 0.023005921759 xtb: 6.7.1 (edcfbbe)
Fe         -11.79363489113701        2.32763707604623        1.31190037900984
N          -12.40054903349629        0.64925881380958        2.22579803884186
N          -10.10809406933544        2.36813358741490        2.44802128552613
N          -11.12945990796707        3.92129242321581        0.27944352734917
N          -13.45740411671777        2.25050277540047        0.12935803746363
C          -13.53065986997071       -0.06548702675152        1.96623654575480
C          -13.56143501407334       -1.27009652744238        2.76817095923783
C          -12.43091023814526       -1.25544829406485        3.52764799414147
C          -11.71179486881354       -0.04808891302043        3.17344650035214
C           -9.78173939500878        1.48065575144757        3.42431970285837
C           -8.57962737211418        1.89885763669298        4.11155519937433
C           -8.18433171359508        3.07843837878295        3.52759550927315
C           -9.15238870481281        3.33614766309510        2.46423816461849
C           -9.98571408412424        4.61739343391168        0.51661456216886
C           -9.80016434610664        5.64528806863480       -0.48592254416501
C          -10.87568775147359        5.56523416223196       -1.33438132536075
C          -11.70635376951415        4.48395057382517       -0.81958788177693
C          -13.78702391437594        3.14495780196967       -0.83944055106029
C          -15.13615990889207        2.89920940992420       -1.30890537382938
C          -15.59381456656288        1.80790212176039       -0.63214870170818
C          -14.51761589197113        1.40675251666007        0.25253396216714
C          -14.53148178134815        0.29810256893622        1.07999120537838
H          -15.39907797475472       -0.34426298359040        1.03269436236938
C          -10.50429359431734        0.33407962767455        3.73114894923322
H          -10.09268279274840       -0.32022079492144        4.48645255161632
C           -9.10258334010848        4.39004470577608        1.56807406619605
H           -8.28781848434927        5.09148090982079        1.67829231950555
C          -12.94794002590038        4.13666325024741       -1.32778446728735
H          -13.30755393533254        4.69975638015633       -2.17780472058905
C          -11.99513228020749       -2.25969061711696        4.53865246234811
H          -12.72154169358641       -3.06372280234157        4.60922742477602
H          -11.90137162953899       -1.80186899328671        5.52122997631816
H          -11.03107374983968       -2.68853586441519        4.27157831602065
C          -14.64440974390831       -2.29506502192909        2.73821124682888
H          -15.08790615886496       -2.36196721369987        1.74899140808237
H          -15.43291647513707       -2.04135400522171        3.44601528180496
H          -14.25657836466254       -3.27541715060668        3.00074343300227
C           -7.96003195188051        1.12598159666522        5.22682120314227
H           -8.01220076861469        0.05821156335064        5.02823635357626
H           -8.48789198455321        1.31674028549261        6.16255568818809
H           -6.91682848822053        1.39197766661413        5.35935617274724
C           -7.05685639439517        3.92519031128755        3.85433322669991
H           -6.69952104983517        4.57104915727831        3.06101558292361
C           -6.43925815649752        3.99009267520697        5.03229772068043
H           -6.75227348097923        3.40882427760288        5.87952740455638
H           -5.59628965947132        4.64056829384102        5.19658026379015
C           -8.60142189800167        6.52793122390600       -0.56209595893722
H           -7.70001980271898        5.96835453423228       -0.32225162695402
H           -8.68334758778061        7.35250177261863        0.14626757265426
H           -8.49057454910628        6.94016922315377       -1.56009829765794
C          -11.17260403411712        6.34276807481729       -2.51829835880942
H          -11.76019746411257        5.83994003833152       -3.27803383341517
C          -10.80100718930833        7.59882770669078       -2.75010771262331
H          -10.24676739652390        8.17716606469780       -2.03413451833339
H          -11.05480812783946        8.10235357455120       -3.66859225463459
C          -15.86817378111503        3.74634159498871       -2.29389204572304
H          -15.45220741850020        3.63342557658702       -3.29361734732950
H          -15.79787479270960        4.79582211540693       -2.01581594529949
H          -16.91847638673672        3.47269256890344       -2.32583388308371
C          -16.94001476599535        1.16920755112628       -0.72529375854525
H          -17.36697115223458        1.30534713871369       -1.71619548475026
H          -17.62624916615133        1.61102855439593       -0.00203745696044
H          -16.88655315112363        0.10332535668541       -0.52480625416542
O          -10.83413935595441        0.85202841122503       -0.06788637772947
H          -11.14213673437767       -0.03639471571455        0.11725305398482
H          -10.20500243485022        0.96950024135491       -0.77922157333966
C          -15.18624367926114        6.15149350852926        3.82849644926616
H          -14.75786123463345        7.12963664186411        4.03903544919145
H          -15.78550755201269        5.85012997771215        4.68593099450649
H          -15.83335426673423        6.23410737125399        2.96347960391216
N          -13.15287992338720        4.84886060034331        4.47863106931967
H          -13.06774783688809        5.26212351327803        5.39411322049082
C          -14.11904318255338        5.15548909118418        3.55899302041136
C          -12.34899330789186        3.90834221911626        3.93498072965205
H          -11.50486618889821        3.49111671334589        4.44171873115584
N          -12.74428744825093        3.59851041110000        2.72323159162838
C          -13.84512602425561        4.36654935825028        2.47680640231005
H          -14.35646477871571        4.30015473098579        1.54034337766326
78
 energy: -116.048456901275 gnorm: 0.018273068510 xtb: 6.7.1 (edcfbbe)
Fe         -11.79285183602275        2.32270931566912        1.31075306672169
N          -12.40684714929406        0.65752839142131        2.23431112400239
N          -10.12351021961701        2.36671973129572        2.45161461296698
N          -11.12820139023067        3.91086651132453        0.28204036677597
N          -13.45694706230653        2.26727760028908        0.14833206884589
C          -13.53725049199117       -0.05469967868042        1.97701729618868
C          -13.56681490898140       -1.26382791830051        2.77250694929010
C          -12.43498602504841       -1.25145812395368        3.53094349611743
C          -11.72191082306319       -0.04260365507967        3.17911416597578
C           -9.79772285084254        1.48090990281414        3.42815187528987
C           -8.59841555223554        1.89374835069216        4.11417674953576
C           -8.20345503706199        3.07518532041702        3.53086128145953
C           -9.16612323881051        3.32889174470456        2.46665139967299
C           -9.98293621567762        4.60503002694973        0.51886296801288
C           -9.79879965140686        5.63859655156345       -0.47366780433959
C          -10.87646774975470        5.56106368654137       -1.32094140843613
C          -11.70250652085429        4.47810114066441       -0.81040834350198
C          -13.78547257856352        3.15715370828617       -0.82265697577550
C          -15.12871825252189        2.90883844697000       -1.30158638387750
C          -15.58417913260058        1.81703249049579       -0.62266593357099
C          -14.51523659575885        1.42419005257028        0.27053505808864
C          -14.53938930236442        0.31274223752925        1.09415005329046
H          -15.40874422688341       -0.32533878810277        1.04430318212451
C          -10.51754572085640        0.33622927816398        3.74134693533993
H          -10.11143498480207       -0.31245185333156        4.50322356503015
C           -9.10215672617344        4.37888045940035        1.56755030198667
H           -8.28165025790184        5.07359940158877        1.67173304156854
C          -12.94916138320233        4.14687555408412       -1.31528690188559
H          -13.31567774632099        4.72105076754860       -2.15439067169904
C          -11.98993660912193       -2.25298250702617        4.53807440132180
H          -12.71158320275335       -3.06155928180610        4.61293385700316
H          -11.89337632110576       -1.79310648666437        5.52044660277935
H          -11.02293251546670       -2.67686168654509        4.27016948232030
C          -14.64450641470355       -2.29110626823002        2.74104250229168
H          -15.08376779000148       -2.36529972688112        1.74986711592008
H          -15.43739040404966       -2.03738757142177        3.44512724460803
H          -14.25414923659054       -3.26909110985304        3.01187106154632
C           -7.96276570081739        1.11874040525478        5.21394231408505
H           -8.02691044685240        0.05068887554255        5.01677425535994
H           -8.46943350260622        1.31536057007074        6.16131268208370
H           -6.91469189688620        1.38037556697179        5.32231596913968
C           -7.07587139742397        3.91394698748918        3.84477058532685
H           -6.72490534006216        4.54658700986953        3.03782022574940
C           -6.45294591826841        3.99736413264809        5.01962729194842
H           -6.77850240895372        3.45625376601331        5.89261192297574
H           -5.60668255690029        4.64701973008256        5.16541445407810
C           -8.60308922206575        6.51939855081089       -0.55940367074906
H           -7.70052095017279        5.96221887694096       -0.31647180284236
H           -8.68361031339047        7.35205515900701        0.14054197753712
H           -8.49748689169071        6.92323591390561       -1.56225806595983
C          -11.17150616123605        6.33079478682370       -2.50176442842337
H          -11.75899518933210        5.81833539533591       -3.25495993261791
C          -10.80182913168616        7.58696435063584       -2.73950670524059
H          -10.26887000543415        8.18153980300070       -2.01871926286088
H          -11.05453895821719        8.08327667515174       -3.66103228876392
C          -15.85418801667030        3.74553394145084       -2.29806376305395
H          -15.43192092486366        3.62944835303310       -3.29549655055186
H          -15.78975933329153        4.79803837563374       -2.02658597029981
H          -16.90396794294342        3.46847576965432       -2.33552362159761
C          -16.92232102271865        1.17120617936519       -0.72228759888622
H          -17.34601581838301        1.31034609751399       -1.71414575461151
H          -17.61068804754131        1.60762463182785        0.00336870966484
H          -16.86397497153821        0.10448433039745       -0.52476699232210
O          -10.81241378159341        0.86724981203952       -0.07895879728844
H          -11.10666706536037       -0.03633143904433        0.06727548793781
H          -10.19336807164142        0.97542394244210       -0.80387347240062
C          -15.18285198376709        6.14943363676386        3.82389509101609
H          -14.75383577188191        7.12736777538916        4.03573782687394
H          -15.78396845471987        5.84978387390792        4.68114508411788
H          -15.83094793915940        6.23432517324052        2.95916321327740
N          -13.15046406795946        4.84015822090171        4.47172500116673
H          -13.06196470998715        5.24907290840894        5.38863696266402
C          -14.11734792692774        5.15123400889692        3.55201098741798
C          -12.34793589499488        3.90012109246216        3.92009061493030
H          -11.50557522798980        3.47631374392798        4.42428959470246
N          -12.74231194375747        3.59743319558314        2.70848466387312
C          -13.84315997720685        4.36644231822090        2.46746313050747
H          -14.35943898816531        4.30521148732203        1.53329322904758
78
 energy: -116.050095135204 gnorm: 0.014988229498 xtb: 6.7.1 (edcfbbe)
Fe         -11.79777363751830        2.32275826665837        1.31452873603573
N          -12.41326179806117        0.66468832288475        2.24018918742270
N          -10.14419010313847        2.36099348083847        2.45237035544133
N          -11.12711139702010        3.89790911155279        0.28800908010821
N          -13.45004519196443        2.28116167255891        0.16746712411849
C          -13.54569973726940       -0.04410035326152        1.98804880729555
C          -13.57517445241631       -1.25515001245163        2.77943901006568
C          -12.44297071766870       -1.24543860203112        3.53538448854773
C          -11.73338846154180       -0.03715800194987        3.18568905309333
C           -9.81837559083900        1.47909148872530        3.43363028246439
C           -8.62245915198292        1.88944767871287        4.11757782043412
C           -8.22790427424143        3.06880231254084        3.53216372250770
C           -9.18415362326021        3.31858217402042        2.46752524832865
C           -9.97956476036447        4.59047921451113        0.52294750398261
C           -9.79737675042796        5.62853626318556       -0.45929733764250
C          -10.87826048700002        5.55586934642914       -1.30155931989829
C          -11.70173944731994        4.47326203012360       -0.79575260517011
C          -13.78096723905673        3.16981274846275       -0.80360694510221
C          -15.11841706212153        2.91862631689115       -1.29005342957455
C          -15.57202242273368        1.82866403634044       -0.60994802036691
C          -14.50973569816301        1.44110614546525        0.29025578940610
C          -14.54902944849988        0.32993481048836        1.11220721513832
H          -15.42523896962784       -0.29785543730754        1.06475749520263
C          -10.53512085386560        0.33856493839422        3.75686458644479
H          -10.13579825674769       -0.30225056177391        4.52815268040411
C           -9.10130694657511        4.36431000611596        1.56768289042193
H           -8.27427031017630        5.05094024740388        1.66731928448110
C          -12.95295487824943        4.16157925525119       -1.29687854148336
H          -13.32695490853077        4.74975972513482       -2.12233430638774
C          -11.98370273758358       -2.24511211804885        4.53929521055682
H          -12.69734434565110       -3.06167465265175        4.62002296978031
H          -11.88360760870714       -1.78242349909544        5.52170713567973
H          -11.01298558521571       -2.65961614552176        4.26441926018417
C          -14.64944645018943       -2.28662801573940        2.74566708637027
H          -15.07872419524534       -2.37222390931829        1.74955699826693
H          -15.45118263853700       -2.03050845152104        3.44085903461601
H          -14.25489019293271       -3.26073569583825        3.03006150370647
C           -7.96289705173600        1.11475720106178        5.20297385704458
H           -8.03901941328886        0.04549344480217        5.00932418252365
H           -8.43777745616855        1.31588955105123        6.16757790943798
H           -6.90941897665645        1.37828325614896        5.27525854531893
C           -7.10010405698940        3.90986911858749        3.83576136863267
H           -6.73412973206807        4.50819025691275        3.00771469554233
C           -6.48525309781510        4.02110769766619        5.01217532126693
H           -6.79901803259934        3.48728333938405        5.89066977856053
H           -5.62061216871502        4.65433163595530        5.13259481705860
C           -8.60318449508957        6.51004295866334       -0.55613404229062
H           -7.69784015223029        5.95781104971238       -0.30749497432054
H           -8.68332359159096        7.35442479001014        0.13161234226673
H           -8.50430929449076        6.89989563549032       -1.56707087233385
C          -11.17812293794626        6.32336981064897       -2.48355419304409
H          -11.74907562070621        5.79610564711375       -3.23979002929180
C          -10.81799981882413        7.58215448116114       -2.72087320824035
H          -10.28564572296764        8.18020202706348       -2.00331712242148
H          -11.05457853205733        8.06551515823668       -3.65443924155978
C          -15.83416004264391        3.74408678125964       -2.30379629937167
H          -15.39790713675682        3.61962316956528       -3.29579975806528
H          -15.77718554555437        4.80117642971084       -2.04256577941867
H          -16.88353858830755        3.46216044283244       -2.35271303362744
C          -16.90445208243998        1.17192530700621       -0.71822973591329
H          -17.32538744129472        1.31693200054347       -1.71100087154715
H          -17.59763818702383        1.59612438040276        0.01187081874608
H          -16.83491640457009        0.10295806764190       -0.53048970736568
O          -10.77314013937599        0.88564690917764       -0.08258525339255
H          -11.06758620516420       -0.03164932200200       -0.00617799580696
H          -10.19173605265160        0.98895562714982       -0.84159685331196
C          -15.17779664018159        6.14580045654169        3.81778707923241