77
 energy: -118.819667972092 gnorm: 0.502350772026 xtb: 6.7.1 (edcfbbe)
Fe         -90.50600000000000      -11.86600000000000      -87.99900000000000
N          -89.22999999999999      -10.68900000000000      -88.96200000000000
N          -90.43200000000000      -13.19200000000000      -89.60799999999999
N          -91.73999999999998      -13.02200000000000      -87.09899999999999
N          -90.56900000000000      -10.53300000000000      -86.43300000000001
C          -88.64800000000000       -9.46100000000000      -88.55600000000000
C          -87.70000000000000       -8.84600000000000      -89.55400000000000
C          -87.72699999999999       -9.77700000000000      -90.68899999999999
C          -88.68000000000001      -10.84000000000000      -90.26599999999999
C          -89.82199999999999      -13.06500000000000      -90.78400000000001
C          -90.01800000000000      -14.12800000000000      -91.78300000000000
C          -90.92800000000000      -14.95800000000000      -91.02300000000000
C          -91.08900000000000      -14.29800000000000      -89.74400000000000
C          -92.14900000000000      -14.32400000000000      -87.45000000000000
C          -93.08599999999998      -14.97700000000000      -86.49600000000000
C          -93.12900000000000      -13.94900000000000      -85.49200000000000
C          -92.34900000000000      -12.78000000000000      -85.88900000000000
C          -91.26999999999998      -10.56000000000000      -85.35299999999999
C          -91.12000000000000       -9.46600000000000      -84.38700000000000
C          -90.16300000000000       -8.65200000000000      -85.10200000000000
C          -89.94100000000000       -9.38800000000000      -86.32899999999999
C          -88.97699999999999       -8.87800000000000      -87.28299999999999
H          -88.45000000000000       -7.96400000000000      -87.00900000000000
C          -88.97399999999999      -11.94100000000000      -91.10699999999999
H          -88.51500000000000      -11.94000000000000      -92.09600000000000
C          -91.88799999999999      -14.90000000000000      -88.70399999999999
H          -92.32299999999999      -15.87800000000000      -88.90800000000000
C          -92.14599999999999      -11.64100000000000      -85.07400000000000
H          -92.71500000000000      -11.58900000000000      -84.14600000000000
C          -86.94099999999999       -9.64700000000000      -92.01799999999999
H          -86.08300000000000       -8.95600000000000      -91.87500000000000
H          -87.60500000000000       -9.23700000000000      -92.80900000000000
H          -86.55500000000001      -10.64300000000000      -92.32500000000000
C          -86.90300000000001       -7.56000000000000      -89.56000000000000
H          -87.09399999999998       -7.00100000000000      -88.61900000000000
H          -87.21200000000000       -6.93100000000000      -90.42199999999998
H          -85.81800000000000       -7.79100000000000      -89.62800000000000
C          -89.49800000000000      -14.27700000000000      -93.18700000000000
H          -88.51200000000000      -13.77100000000000      -93.27299999999998
H          -90.20699999999999      -13.80800000000000      -93.90200000000000
H          -89.37300000000000      -15.35400000000000      -93.42799999999998
C          -91.56900000000000      -16.25400000000000      -91.31100000000001
H          -92.17199999999998      -16.75100000000000      -90.53600000000000
C          -91.45199999999998      -16.84600000000000      -92.45899999999999
H          -90.85999999999999      -16.38900000000000      -93.26500000000000
H          -91.94400000000000      -17.81300000000000      -92.64099999999999
C          -93.76400000000000      -16.33800000000000      -86.49100000000000
H          -93.46299999999998      -16.90600000000000      -87.39700000000001
H          -94.86699999999999      -16.20800000000000      -86.49799999999999
H          -93.45399999999999      -16.90800000000000      -85.58900000000000
C          -93.84399999999999      -13.95800000000000      -84.21299999999998
H          -93.69300000000000      -13.14800000000000      -83.48399999999999
C          -94.64500000000000      -14.89100000000000      -83.92000000000000
H          -94.82100000000000      -15.71800000000000      -84.62399999999998
H          -95.17699999999999      -14.88800000000000      -82.95699999999999
C          -91.79299999999999       -9.26800000000000      -83.05899999999998
H          -91.54899999999999      -10.12000000000000      -82.38900000000000
H          -92.89399999999999       -9.22400000000000      -83.19900000000000
H          -91.43100000000000       -8.32700000000000      -82.59200000000000
C          -89.50799999999998       -7.35500000000000      -84.71399999999998
H          -89.86900000000000       -7.04300000000000      -83.71099999999998
H          -89.77000000000000       -6.56700000000000      -85.45200000000000
H          -88.40600000000001       -7.48800000000000      -84.67500000000000
O          -91.94199999999999      -11.00200000000000      -88.87600000000000
O          -92.82599999999999      -11.61600000000000      -89.20600000000000
C          -87.00499999999998      -14.25700000000000      -84.32599999999999
H          -85.93200000000000      -13.97300000000000      -84.29000000000001
H          -87.08499999999999      -15.36500000000000      -84.31199999999998
H          -87.52200000000001      -13.82800000000000      -83.44100000000000
N          -87.17300000000000      -14.07700000000000      -86.82100000000000
H          -86.37599999999999      -14.65300000000000      -87.00099999999999
C          -87.61900000000000      -13.72400000000000      -85.57500000000000
C          -87.98300000000000      -13.52100000000000      -87.74500000000000
H          -87.89000000000000      -13.67300000000000      -88.81999999999998
N          -88.90400000000000      -12.76200000000000      -87.10599999999999
C          -88.75899999999999      -12.93500000000000      -85.77100000000000
H          -89.45600000000000      -12.49800000000000      -85.06699999999999
77
 energy: -118.934492327794 gnorm: 0.187368079637 xtb: 6.7.1 (edcfbbe)
Fe         -90.51662395421644      -11.84440108733859      -88.02878967348711
N          -89.19729596968668      -10.65364349003707      -88.99291655925597
N          -90.42299186939225      -13.18843261613219      -89.62138245534879
N          -91.73705602582483      -13.04532506827768      -87.08863295043251
N          -90.56706895023731      -10.52041645479632      -86.44535724797203
C          -88.64365584967686       -9.45383026150739      -88.55468361073950
C          -87.72082134673842       -8.87848940164232      -89.56750114299462
C          -87.74164477459684       -9.77249465309595      -90.65980644146784
C          -88.66970682361668      -10.84454267891494      -90.27262818179349
C          -89.79659413770139      -13.03904171391260      -90.80637951182183
C          -90.04202827149604      -14.13075483652084      -91.74895057332783
C          -90.92518999824625      -14.96309802658786      -91.01616441514992
C          -91.10220507070527      -14.32435198543550      -89.73008588728494
C          -92.16357541625935      -14.31744191797597      -87.46606769461340
C          -93.06511344659678      -14.93440922975488      -86.47873615586199
C          -93.13162011218444      -13.94153699683216      -85.48824689689893
C          -92.33554062619754      -12.79440961502654      -85.88307047680019
C          -91.29614134021313      -10.58166377633789      -85.33680259260881
C          -91.10320964719534       -9.46183888048557      -84.41628396107993
C          -90.16988549158685       -8.66425316116610      -85.10355171617910
C          -89.89665813078723       -9.36709233137353      -86.34572246078929
C          -88.96526536811307       -8.88159319290900      -87.30055310454689
H          -88.45283803834623       -7.96793697506615      -87.02273849776556
C          -88.96534228130176      -11.93291450531739      -91.10418631915388
H          -88.51502343235707      -11.93435054569504      -92.08957751809486
C          -91.88675426385389      -14.89575194196821      -88.69901372707317
H          -92.32226125670928      -15.86610778517060      -88.89827986742644
C          -92.15447517253907      -11.65895990743679      -85.07505398715334
H          -92.71656068599894      -11.59807656202149      -84.15223002881531
C          -86.96228685361258       -9.65049264164713      -91.97989260485139
H          -86.10496209003838       -8.96912649145976      -91.86817717231548
H          -87.59780357323832       -9.24801675044596      -92.78632342563569
H          -86.56886646429629      -10.62461406074094      -92.31266285571873
C          -86.92408837184801       -7.58734909732725      -89.55106552984489
H          -87.09366557250797       -7.01214861468602      -88.63030123481873
H          -87.20759518429993       -6.94850486838580      -90.40377370710902
H          -85.84234520790359       -7.79055609638231      -89.62683361284725
C          -89.50612119689343      -14.27051358541910      -93.15439561821918
H          -88.52925823031451      -13.77556911912133      -93.26721754681134
H          -90.19648298296774      -13.81738196574029      -93.88525994386366
H          -89.36913004626234      -15.32880442686077      -93.42004951226498
C          -91.56049506191809      -16.24258233868288      -91.31300901774387
H          -92.15905486422311      -16.73094442411287      -90.54177852556616
C          -91.45186502934267      -16.85493184999141      -92.47688553693065
H          -90.87685321544362      -16.41007959848352      -93.27522621721506
H          -91.93695881707434      -17.80932763896271      -92.65135984800489
C          -93.73812949312911      -16.30223582127153      -86.49927388916818
H          -93.46094804805233      -16.89000220591819      -87.38635201618392
H          -94.83809013588991      -16.20503944417991      -86.50656094617960
H          -93.45401603771013      -16.89250714566495      -85.61052703498613
C          -93.83713156386490      -13.95096379217386      -84.21949171284754
H          -93.68157788679029      -13.14607968774641      -83.50238606874292
C          -94.66899037229696      -14.91406816445301      -83.90313830992601
H          -94.84545081668348      -15.72177467255454      -84.59305338321823
H          -95.18870574401463      -14.90405208539356      -82.95468671527017
C          -91.77790513549307       -9.27060746388836      -83.08331656965503
H          -91.55139488076779      -10.10688825743656      -82.40188038266069
H          -92.87264528955060       -9.22315922863630      -83.19887449045051
H          -91.43666655615354       -8.34227590634592      -82.60355847387663
C          -89.51932593178459       -7.36871766513435      -84.71218621444307
H          -89.86562778927372       -7.04671245926904      -83.72221559951325
H          -89.76442317833012       -6.57939884703337      -85.43904557636947
H          -88.42489418688228       -7.48413866169122      -84.67494421393981
O          -91.89981728887189      -10.97830131176774      -88.85536068766493
O          -92.86687462879129      -11.63813004805917      -89.22562458571628
C          -87.00472634661841      -14.25519121456984      -84.32721865444036
H          -85.94215736008329      -13.97855614239407      -84.28609112493943
H          -87.08217438529741      -15.35147997238926      -84.30557423770355
H          -87.51398303859527      -13.83650007117974      -83.45205662578198
N          -87.17887698476935      -14.07511439679162      -86.81497642465919
H          -86.37654181919173      -14.65363604078894      -86.99878997918388
C          -87.62864498305153      -13.72967368074482      -85.57095175583423
C          -87.98484758564535      -13.50844111678350      -87.73629586465273
H          -87.89098128523936      -13.65839958644973      -88.80176349021225
N          -88.91927658020602      -12.78881650544776      -87.12012276226271
C          -88.74214268407823      -12.93920871265670      -85.78187592511316
H          -89.43405146833294      -12.50182652399939      -85.07820071870547
77
 energy: -118.972953542274 gnorm: 0.054110627179 xtb: 6.7.1 (edcfbbe)
Fe         -90.54779171769576      -11.81924347071276      -88.06598805823279
N          -89.16927716528053      -10.62865421636181      -89.02153190526464
N          -90.41549624517307      -13.18620583486694      -89.62745558861647
N          -91.74131745702746      -13.06504060860019      -87.07396467274239
N          -90.56198364763914      -10.51153623597596      -86.46155530008619
C          -88.64200020727331       -9.45331435712603      -88.56394778368252
C          -87.73674436974389       -8.90258780848950      -89.58007787900218
C          -87.75204200887136       -9.76812220708260      -90.63544118055562
C          -88.66384202103384      -10.84563633905727      -90.27662324531981
C          -89.78146821183600      -13.01824217354426      -90.81841630828258
C          -90.05959948154533      -14.12955734686376      -91.71738375084263
C          -90.91452192364603      -14.96238277516517      -91.00940631506010
C          -91.10778585661350      -14.33973732788910      -89.71277259660197
C          -92.17432633798479      -14.30807838955311      -87.47075348639618
C          -93.05100302986902      -14.89717687968284      -86.46784078770111
C          -93.13700442357757      -13.94244486810982      -85.47653518634000
C          -92.32223975021618      -12.80986852141037      -85.87341566467070
C          -91.31184326266751      -10.59982422419423      -85.33878144077930
C          -91.08411579506792       -9.46105288254140      -84.45421795739307
C          -90.16964047824327       -8.68161789983015      -85.11149612418376
C          -89.85847959632194       -9.35810339943346      -86.36781031555955
C          -88.95409598633775       -8.88939390348118      -87.32263871878392
H          -88.45342368911047       -7.96991179469517      -87.05042710078673
C          -88.95992663527780      -11.92700098650349      -91.10051560709178
H          -88.51116318633699      -11.92494085759859      -92.08357113616208
C          -91.88002933022193      -14.88675123345188      -88.69064214950529
H          -92.32456710725349      -15.85009999795426      -88.88565424539171
C          -92.15356673413858      -11.67284336222490      -85.08111467703510
H          -92.71392894276266      -11.60557934790631      -84.16164216447825
C          -86.98435451081914       -9.65251326662162      -91.93892724707359
H          -86.13177996201581       -8.97728127509459      -91.83975887867581
H          -87.60999635664362       -9.25839484926454      -92.74671609713066
H          -86.59427502848543      -10.61593682269125      -92.27864908092926
C          -86.94561685671262       -7.61411512327285      -89.54123012681379
H          -87.10874399111898       -7.03955477017169      -88.63124180791324
H          -87.21595360592197       -6.97496009580025      -90.38771959849657
H          -85.87034420812778       -7.80752101762634      -89.62175317140252
C          -89.51485869110518      -14.26343218467418      -93.11807909486522
H          -88.54921987705259      -13.76830899271712      -93.23768234334088
H          -90.19723969510211      -13.82276624732208      -93.85310943092300
H          -89.36656044181872      -15.30811448495085      -93.39528008804800
C          -91.54229808127347      -16.22794074716177      -91.32733564635906
H          -92.13675780574840      -16.70251482891661      -90.55470746785606
C          -91.45110549351756      -16.85964478703598      -92.49490220704375
H          -90.89488662974770      -16.43339554007835      -93.30136983452171
H          -91.93431448437130      -17.80608680001496      -92.65833400398128
C          -93.70960213422050      -16.26290675614682      -86.51148197867965
H          -93.43633960371092      -16.85014224019626      -87.38788995744642
H          -94.80342010099741      -16.18003274675798      -86.52292572437213
H          -93.43924623047684      -16.85922306121475      -85.63093027578805
C          -93.84275383182724      -13.96370711371354      -84.22074490169312
H          -93.67793879056600      -13.15655765993769      -83.52094185653777
C          -94.69057423898489      -14.92970267891618      -83.88188203112033
H          -94.88127768808822      -15.73141568317562      -84.55522553783790
H          -95.20074878518389      -14.91193959933755      -82.94031903317810
C          -91.75719754187446       -9.27233180593546      -83.11849639478946
H          -91.54086170311588      -10.09948962065290      -82.43417589084076
H          -92.84562547507953       -9.22312893927713      -83.22048265336308
H          -91.43081985055358       -8.35345630846888      -82.63013833841654
C          -89.53135718910453       -7.38606143048849      -84.71003523353986
H          -89.87063625480113       -7.05886806672327      -83.72950908805480
H          -89.76634670115256       -6.59845333035895      -85.42990380797282
H          -88.44343664982442       -7.48868446827255      -84.67462803893744
O          -91.86658602101036      -10.97231790262910      -88.83465319812805
O          -92.86663983582936      -11.64439987357008      -89.23414257802399
C          -87.00526559873924      -14.25245956392280      -84.32893880684213
H          -85.95039443351270      -13.98029063909551      -84.28551607742112
H          -87.07903636546634      -15.34049600709056      -84.29878314439097
H          -87.50933141670859      -13.84183584072221      -83.45996779712036
N          -87.18217373667046      -14.07613352378768      -86.81283529231354
H          -86.37682701032841      -14.65373648504598      -86.99997579894458
C          -87.63903713471318      -13.73674444339054      -85.56957879054242
C          -87.99035704085151      -13.50159411628228      -87.72851768861706
H          -87.88933852212705      -13.63964852439822      -88.78693060395256
N          -88.93266336412695      -12.80721921166790      -87.13460554537201
C          -88.73391929996384      -12.94809068781795      -85.79281633586170
H          -89.41071713204023      -12.50150058728364      -85.08861012797843
77
 energy: -118.984325851728 gnorm: 0.029457784253 xtb: 6.7.1 (edcfbbe)
Fe         -90.56844754321580      -11.80865869214007      -88.08578944768094
N          -89.17496408821015      -10.62205910185304      -89.03782198612747
N          -90.41983764293839      -13.17769397749692      -89.62556503446250
N          -91.74972565077917      -13.06526953152465      -87.06114951161257
N          -90.55820491334102      -10.50990526715301      -86.48448608596925
C          -88.64823537222551       -9.45894639676988      -88.57585818005595
C          -87.74689706186577       -8.90842788813100      -89.57936920174923
C          -87.75788318070310       -9.77291828801622      -90.62913390060994
C          -88.66695840545968      -10.84701084540770      -90.27831370086736
C          -89.78129732719195      -13.00563541888320      -90.81558545174812
C          -90.06173205622859      -14.12143649618861      -91.69674031297839
C          -90.90322387431013      -14.96120436901273      -91.00173438763416
C          -91.10823165599881      -14.34047916743618      -89.70056348372229
C          -92.18147008830462      -14.29337071035062      -87.46663824329842
C          -93.04562212281672      -14.87720912257885      -86.46557326348602
C          -93.14360489862123      -13.94503802072834      -85.45995177837816
C          -92.31969150874380      -12.81621792374228      -85.86087951655166
C          -91.31344850802469      -10.60866553548876      -85.35849613186238
C          -91.07145616748059       -9.46785070582884      -84.48788820450490
C          -90.15727248591649       -8.69371106867554      -85.13123285529743
C          -89.84235988998174       -9.35980408992483      -86.39199235844181
C          -88.94736597337825       -8.89022358501533      -87.34292741248929
H          -88.44952904259704       -7.96397191661219      -87.08822275437362
C          -88.95788340663073      -11.92370534389862      -91.10164506907675
H          -88.50271959971538      -11.91588007896424      -92.08195355583653
C          -91.87892651939934      -14.87734921374778      -88.68202600541825
H          -92.33173711017594      -15.83789436131588      -88.87076275990634
C          -92.14868362493125      -11.67677673149875      -85.08393848347377
H          -92.70629112870566      -11.60860015724721      -84.16292946480658
C          -86.99924873367924       -9.65563493522414      -91.91421098857590
H          -86.15479226628325       -8.97828684818729      -91.80307299935077
H          -87.63692067540988       -9.26526280378432      -92.70898237962635
H          -86.61735583688331      -10.62195006896742      -92.24086754560554
C          -86.96286047393201       -7.63015288657399      -89.52669268480388
H          -87.13566268868367       -7.07118131567404      -88.61317087462940
H          -87.23423233828632       -6.99518056210025      -90.37138369986918
H          -85.89297219182826       -7.83287630690676      -89.60607538273850
C          -89.51616218166545      -14.25174870248962      -93.08649149380363
H          -88.56227417119308      -13.73868080118550      -93.19346937827287
H          -90.20870953558214      -13.82292963140168      -93.81422871597113
H          -89.35248008179722      -15.29303133518866      -93.35494233108849
C          -91.52236280550491      -16.22049770668079      -91.34698583131544
H          -92.11045214080403      -16.68488903182470      -90.56741099469623
C          -91.45255962652021      -16.86073391534608      -92.51425620757063
H          -90.91865837711218      -16.45272927300582      -93.34768001681283
H          -91.94164867644547      -17.80613518050619      -92.66399773401811
C          -93.68373387401736      -16.23400784228867      -86.53058887271241
H          -93.38632862510212      -16.79847962331019      -87.40944084796041
H          -94.77245329727184      -16.14666475218057      -86.55698316387948
H          -93.41391524227795      -16.82306831151241      -85.65021328682469
C          -93.85789948256266      -13.98419741260781      -84.21033466021510
H          -93.67862900627050      -13.16982358820643      -83.52429387310725
C          -94.71594243771368      -14.94012441283897      -83.85000048139942
H          -94.93786713746967      -15.75395239601833      -84.50341499710392
H          -95.21898078894775      -14.91017624933620      -82.90316726719095
C          -91.73719129199355       -9.27475939980879      -83.15700129930180
H          -91.51655116217900      -10.10330758411537      -82.48091391530234
H          -92.82162423871742       -9.22420360339310      -83.26513739833577
H          -91.40829420621196       -8.35692396893283      -82.67455474577037
C          -89.53501727672655       -7.40060326001191      -84.71310757087167
H          -89.88454168193284       -7.08462540524278      -83.73407649783564
H          -89.77367480132206       -6.61441512483578      -85.42934191448491
H          -88.44949462418664       -7.49769258641658      -84.67309355351705
O          -91.84132102694701      -10.96929523405734      -88.81848882018612
O          -92.85002439613361      -11.64094432561162      -89.24166167083222
C          -87.00485875790342      -14.25343174661703      -84.32885433306834
H          -85.95255794139419      -13.97710605145003      -84.28824735162770
H          -87.07389732192108      -15.34011088409521      -84.28899674360107
H          -87.50932090561281      -13.84126772468349      -83.46221132387340
N          -87.17901047527455      -14.08492200227488      -86.81493247483618
H          -86.37264806104005      -14.65909349326136      -87.00392558631263
C          -87.64239450520262      -13.74882409263370      -85.57062138351887
C          -87.98682639432063      -13.50309039768647      -87.72653454507596
H          -87.87433067475671      -13.61900219846653      -88.78490653756643
N          -88.93411784498713      -12.81977585417892      -87.13856109257252
C          -88.73240407675182      -12.96019981287398      -85.79626958431813
H          -89.39309479334852      -12.49809535037420      -85.09103640562850
77
 energy: -118.988380089554 gnorm: 0.016630899976 xtb: 6.7.1 (edcfbbe)
Fe         -90.57777347877020      -11.80192210357285      -88.09370279528034
N          -89.18854211160028      -10.62706167590239      -89.04177393121296
N          -90.43166887456007      -13.16495195129670      -89.61913593046100
N          -91.75697912324061      -13.05443968820372      -87.05014822622752
N          -90.55695751412287      -10.51184868314926      -86.50805391616471
C          -88.66243071705534       -9.46359548979873      -88.58568003761553
C          -87.75821138555489       -8.91348344497004      -89.57556938062532
C          -87.76508446749543       -9.78045913704598      -90.62701963667111
C          -88.67678971586975      -10.84775978255419      -90.27877898874195
C          -89.78877922067242      -12.99641258096916      -90.80565887386443
C          -90.05911666661945      -14.11158792347733      -91.68107723858103
C          -90.89685919463598      -14.95804246607083      -90.99272187339322
C          -91.11105768574717      -14.33314624348633      -89.69216441241126
C          -92.18734659384738      -14.27605411177913      -87.46180731305051
C          -93.04554864390462      -14.86483087949313      -86.46539648782472
C          -93.14885402742632      -13.94640866433744      -85.44652369166617
C          -92.32465505332647      -12.81517941915817      -85.84814404963321
C          -91.30987149010551      -10.61264011114406      -85.38164928984288
C          -91.06322257515785       -9.47564431375030      -84.51633912316335
C          -90.14521904762096       -8.70098175322795      -85.15472833325768
C          -89.83976427032793       -9.36427622177485      -86.41318329974905
C          -88.95021797708125       -8.88513365691452      -87.35931662752333
H          -88.44957121412432       -7.95709234594206      -87.11933918599179
C          -88.96182037732825      -11.92181031611679      -91.10362568122386
H          -88.49822205844283      -11.91314251713629      -92.07997967521956
C          -91.88392398152637      -14.86583549792825      -88.67650054378237
H          -92.33959222427185      -15.82596981637374      -88.86155950044324
C          -92.14499317616826      -11.67373559519911      -85.08248864461841
H          -92.69405958906721      -11.60358227075952      -84.15589959672300
C          -87.00859910915702       -9.66089169110000      -91.90298926053380
H          -86.17018150064449       -8.97895806999563      -91.78442178959362
H          -87.65314395059454       -9.27305768442463      -92.69220723065581
H          -86.62609540521909      -10.62765848088750      -92.22378179474590
C          -86.97845318986693       -7.64283350744717      -89.50851317535290
H          -87.16141590414030       -7.09869993794648      -88.58820971103131
H          -87.24822466136803       -7.00151052847666      -90.34779108794901
H          -85.90978511837997       -7.84905464048072      -89.58148368914314
C          -89.51029087802081      -14.24060731966128      -93.06076494680926
H          -88.56962774017762      -13.70225865545924      -93.16031300420657
H          -90.21510106354330      -13.82976730041818      -93.78608377477555
H          -89.32570921842243      -15.28160094955085      -93.31410741327684
C          -91.50543819284762      -16.21531043963966      -91.36158330330987
H          -92.07803154721132      -16.68371736920266      -90.57277761350431
C          -91.45774900632463      -16.85248353874369      -92.53105926312365
H          -90.94598199152001      -16.46040972897336      -93.39077368258614
H          -91.95253266116943      -17.79903285031050      -92.66796360917002
C          -93.66787995313605      -16.21574993785211      -86.54611281847525
H          -93.34078171694142      -16.76155376831036      -87.42661011057362
H          -94.75411243282853      -16.12968191125859      -86.59208438673933
H          -93.40423912045499      -16.80184849703534      -85.66458493913214
C          -93.87180871744489      -14.00428323544290      -84.20030499246137
H          -93.68013996160927      -13.18703132426561      -83.51883469426174
C          -94.73664206129047      -14.94699175303048      -83.82393280405448
H          -94.99035561408373      -15.77659802361486      -84.45499040142238
H          -95.23147999735579      -14.90270719536069      -82.86914060888566
C          -91.72154194787706       -9.27736531180881      -83.19130006665094
H          -91.49557630244571      -10.10746277023794      -82.52077924499106
H          -92.80401611869073       -9.22521499525529      -83.30623105393887
H          -91.38547696478309       -8.35803744168159      -82.71845654365535
C          -89.53351549300385       -7.41168575365495      -84.72196679906611
H          -89.89701040298016       -7.11306660109897      -83.74181932496124
H          -89.77657719862867       -6.62167322123590      -85.43196818083918
H          -88.44827722956610       -7.50201699632138      -84.67329373215425
O          -91.83218793925302      -10.96423082646318      -88.81004965337577
O          -92.83716877870103      -11.63427904743305      -89.25114103746387
C          -87.00144434914006      -14.25796703231263      -84.32641928509105
H          -85.95045368690781      -13.97460562710106      -84.28766206426050
H          -87.06477095559273      -15.34506293641202      -84.27495041493977
H          -87.50912238953917      -13.83985309402088      -83.46324631177920
N          -87.17013175427674      -14.09646530258912      -86.81675595143071
H          -86.36427594588862      -14.66934198046918      -87.00654228886053