78
 energy: -116.058078695463 gnorm: 0.000026753858 xtb: 6.7.1 (edcfbbe)
Fe          -0.63486077161301        6.38566857223049       15.12269955829623
N           -1.97380728326193        7.74164151834544       15.70335274165477
N           -2.09705958368307        5.10740171229882       14.67305140711333
N            0.73802626567466        5.00549868639939       14.60052601891893
N            0.85113196114487        7.64895983094992       15.62492372150281
C           -1.72861996795863        8.97868799259521       16.20861396355680
C           -2.96678827940124        9.66429348982940       16.51170386469974
C           -3.96721896931619        8.80991470483784       16.17133928440690
C           -3.32575889738038        7.61392052371735       15.66763404314483
C           -3.43319951475679        5.33711999852653       14.76331762082330
C           -4.18415862564646        4.18109283969512       14.34158923826919
C           -3.26314801492467        3.22925840529190       13.99592596674226
C           -1.96282348488402        3.84077935005905       14.20272721548423
C            0.49140176596415        3.75013121667599       14.13079948639993
C            1.72103920763084        3.06272665477835       13.83618992627612
C            2.73269942214411        3.93879072138997       14.13280284716509
C            2.08902937809957        5.15095990523545       14.59768464094790
C            2.18859368185177        7.43798061890338       15.48458067660034
C            2.93567593662058        8.60048018612751       15.90764124123679
C            2.01666318931103        9.52317161622189       16.30283800474339
C            0.72114881558992        8.91190938532653       16.11532984371842
C           -0.47841188252521        9.53704273173566       16.40199153521338
H           -0.43470412946118       10.53836491274184       16.80270172235237
C           -4.01544340381892        6.50493155502823       15.22323517555352
H           -5.09343658296909        6.54468968578396       15.25720348564030
C           -0.76580547792724        3.19543593602344       13.96038175181009
H           -0.81149664450006        2.17668958690561       13.60694086124223
C            2.77385508876159        6.27737998591885       15.01510752903270
H            3.85164462548891        6.25136569526121       14.97015023242658
C           -5.44243298137872        8.99368661303044       16.27334424652301
H           -5.68390374311609        9.97389251751751       16.67721287321505
H           -5.87671221212513        8.23694974959526       16.92672681009255
H           -5.90946606649733        8.90181656821306       15.29241488489862
C           -3.04933895072197       11.03677939441902       17.08740943985975
H           -2.57168773136525       11.76170565641475       16.42735372504166
H           -2.54607918633313       11.07719516549915       18.05362184422860
H           -4.08524540607986       11.33461435799483       17.22910234885194
C           -5.66842512615775        4.10895687935793       14.25234108044423
H           -6.07966814463321        5.05471448487815       13.90257336514747
H           -6.10585701714229        3.89059673786490       15.22781665326331
H           -5.96334794169488        3.32295997956383       13.55996760791316
C           -3.47544021777022        1.89072347702478       13.49140481552323
H           -2.73692088027750        1.53327661728558       12.78269352643588
C           -4.47882893105196        1.08817672029159       13.83164306989024
H           -5.21309686880520        1.36941319311496       14.56593248883124
H           -4.58332826169060        0.10462912384312       13.40421186264168
C            1.82161601057982        1.69595261445518       13.25431173478361
H            1.03771500681558        1.53207059889305       12.51633007720755
H            1.71923790846775        0.93388194077115       14.02878944314770
H            2.78759378651065        1.56655428227302       12.77048839184456
C            4.16226334678802        3.76135064021936       14.00537361896653
H            4.72215120038836        4.65010713644995       13.73770512755138
C            4.81781766200529        2.62122881606747       14.19727151405821
H            4.32061235950751        1.71984750545445       14.51062250806073
H            5.88600171780955        2.55753370273711       14.07165767193259
C            4.42258076960735        8.69818930936458       15.88679786677248
H            4.80042811652149        8.57301236499884       14.87172576836497
H            4.86743541869201        7.92211858064545       16.51017562763104
H            4.75224083824659        9.66556834492595       16.25780150183712
C            2.22768523076940       10.90031366027578       16.83256801774786
H            3.28769676690397       11.13562900781536       16.88715538046110
H            1.80331681195136       10.99569188725121       17.83231958438688
H            1.74550593428670       11.63784867388153       16.19021908187581
O           -0.45786695122757        5.54936054543888       17.25034681614109
H            0.06128937974541        4.75523011211276       17.08305488766547
H            0.13903162133075        6.20327205340320       17.63016324559226
C           -0.62459159765903        7.00546913386564        9.58314638274329
H            0.27776355967301        7.40775440569181        9.12282221975830
H           -1.48688106959809        7.47805499080877        9.11292021693791
H           -0.66603483953893        5.93773961767642        9.39244885620890
N           -0.57219810890046        8.50828447396282       11.58577683658339
H           -0.53218505818732        9.36915476317074       11.06531564065739
C           -0.62289907778455        7.24901399663456       11.04779012485080
C           -0.58448544561921        8.37980995791597       12.93176799845194
H           -0.55234376271124        9.20373575038182       13.61443908298195
N           -0.63979137205323        7.11667425274702       13.27824292979792
C           -0.66489540886039        6.40116549351902       12.11721677280261
H           -0.71019891190754        5.33200613142661       12.12848082440221
