72
 energy: -105.980473637323 gnorm: 0.000067016328 xtb: 6.7.1 (edcfbbe)
Fe           7.25115892484745       15.06574581648712      -63.19620143080181
N            5.79433649139550       14.84352961398814      -61.85999109938700
N            7.98648460678261       13.25790041502659      -62.69484777607047
N            8.77928681520836       15.31368793395059      -64.49071180887658
N            6.57667102571771       16.88232665187584      -63.65108309043922
C            4.78898266997160       15.71625587493770      -61.60269624048031
C            3.91742032989037       15.20426339780880      -60.56646371721978
C            4.43250781672754       14.00331491321159      -60.19459011605571
C            5.60585035595921       13.79473436771862      -61.01621486775539
C            7.49912987138824       12.41333277816085      -61.74283607389897
C            8.27296429984186       11.20185878113320      -61.68907687730822
C            9.24770979050998       11.32298111890362      -62.64517911304750
C            9.05632927189997       12.62547190969446      -63.24906903384284
C            9.73526455050528       14.39625727440893      -64.81401948224155
C           10.62251649362050       14.91673486226023      -65.82038898045346
C           10.18041225213820       16.18190707606142      -66.10620348402136
C            9.02483995578254       16.40368801168030      -65.26274905345696
C            7.11542681935067       17.76029465677476      -64.53606444981011
C            6.31537150037645       18.96437871411202      -64.61425292536747
C            5.27356587646325       18.78424706394207      -63.76130591094065
C            5.45748967171276       17.47727615548440      -63.16696928345699
C            4.61011377784492       16.93909153349524      -62.21977188705330
H            3.75631308406880       17.52757850273692      -61.92204912914499
C            6.39302686102801       12.66348936669144      -60.94852185741361
H            6.11468428009263       11.90652462883331      -60.23204038221983
C            9.85686887251735       13.13710394754427      -64.25271835906801
H           10.64992606600494       12.50673153374909      -64.62299495290100
C            8.25678474660577       17.55271603891235      -65.28496690065766
H            8.55646633603933       18.33869540065077      -65.96014011573732
C            3.94625096297154       13.04250080498979      -59.16506015267703
H            3.04928023814944       13.41841984825370      -58.67953605872616
H            4.70770428331246       12.88283551749695      -58.40153003722003
H            3.71296187506537       12.07827153895718      -59.61772530531726
C            2.71444903317195       15.91737980339041      -60.05357696766035
H            2.01170005440620       16.11565065476592      -60.86305064777594
H            2.99740847097149       16.87196512613163      -59.60984380869101
H            2.20696814647280       15.32485501017516      -59.29642799662918
C            8.05958066328584       10.09256317229536      -60.72014139407442
H            7.26753214416819        9.42334481788845      -61.06068730613931
H            7.77427621262783       10.48337241902862      -59.74466044700973
H            8.97398575281585        9.51322898704882      -60.60996889751762
C           10.30055038281249       10.39646679752576      -62.99897978742163
H           11.23608591393146       10.84578267990608      -63.31140292433884
C           10.19855941046612        9.07184162936348      -62.97564850005630
H            9.28089079468993        8.57172658472425      -62.71955708442703
H           11.02923463845050        8.43893004752139      -63.23976769206355
C           11.81824868979644       14.21098541161643      -66.35648004063592
H           11.53532045901481       13.50861456392455      -67.14216405299483
H           12.32219113702609       13.65098431052658      -65.56999219843104
H           12.51900998489350       14.93046445107163      -66.77482930420652
C           10.72383945164277       17.15520082895423      -67.02820753112069
H           10.63275554338218       18.19104309410641      -66.72235452936461
C           11.30049405019166       16.87397603240314      -68.19161129861502
H           11.37302449108155       15.86816097058843      -68.56683877640093
H           11.69619006007602       17.64977989635836      -68.82566822291393
C            6.63366579752468       20.12821964469215      -65.48774413920248
H            6.65701488343868       19.82512421982195      -66.53458734018572
H            7.60910752619265       20.54356049501182      -65.23343381515652
H            5.88846824968571       20.91141510736134      -65.37412060534017
C            4.14156885198739       19.69864237556316      -63.44344763418525
H            3.18870952404847       19.22094710524356      -63.67144550668601
H            4.21180496052301       20.61633898604736      -64.02189738376183
H            4.14568449604378       19.95854332600656      -62.38473657341583
C            4.91803183013642       12.82519765677696      -64.25409558525349
H            4.56727590778256       12.18467943601729      -65.05744285705151
H            4.08203214645085       13.34115325642065      -63.79356243255407
H            5.45814009573960       12.25838381777264      -63.50359388697663
S            6.00799394084432       14.11590120620042      -64.95063152013870
H            6.94577490976643       13.26271563364590      -65.37682790232816
O            8.62221717012286       15.95023484586108      -61.65787187210182
H            9.20316647548694       15.20258873329712      -61.47651590581476
H            9.12394697505677       16.57789081498752      -62.19021567828679
