78
 energy: -116.058079333734 gnorm: 0.000025862620 xtb: 6.7.1 (edcfbbe)
Fe          35.35446241812430        4.32850083366839       10.15593855830314
N           37.20154418952458        3.97244052664724        9.50030923666111
N           35.01141916853609        5.52245644585594        8.59671401393010
N           33.51167916928381        4.72472138601083       10.87006617482626
N           35.70929892724564        3.16830040523021       11.76339059911213
C           38.15126764096240        3.20063415019256       10.09019279146873
C           39.36633262643026        3.19075777376528        9.30374248205128
C           39.12363138564357        3.97369227832807        8.21987716625087
C           37.76482406514754        4.45253920051276        8.36120203169800
C           35.86402557655936        5.78568095023245        7.57203137768119
C           35.26411770809675        6.68884740898257        6.62199323500502
C           34.01524945485041        6.97815146662327        7.10196278140539
C           33.87894919211576        6.22439411091883        8.33518386865614
C           32.57312241703026        5.52990498103409       10.29714428920623
C           31.36547073561035        5.54611941013054       11.07984288063294
C           31.58864196734789        4.71861329303408       12.14961710825875
C           32.93529350326050        4.20878485181826       11.98718014423099
C           34.83662480428094        2.86316771108553       12.76256547667320
C           35.44385971924815        1.95821446927288       13.71170865042446
C           36.70472897553163        1.71833029624066       13.25919064960084
C           36.85016314938060        2.47958382644443       12.03996495055634
C           37.99918441313767        2.49727150981255       11.27099957289233
H           38.83887252585792        1.91392300478682       11.61704782181708
C           37.14942641304454        5.28798485443252        7.45218218129047
H           37.72399489950048        5.59344904693788        6.59115213367331
C           32.74576057009738        6.24620950959772        9.12477985310347
H           31.92566417860246        6.86939178560558        8.80238383461328
C           33.54756254577002        3.34758615476980       12.87909824342321
H           32.97458684202669        3.02505703285191       13.73466671086060
C           40.02324120563173        4.31931182303314        7.08335403341149
H           40.99242902090768        3.83962756706405        7.19649011241667
H           40.17766172495875        5.39717375782282        7.03330426271413
H           39.58824599478523        3.99575209355881        6.13736471230720
C           40.60335601204490        2.44701901026548        9.67602266024868
H           40.40315902063419        1.37755598606773        9.75048957223195
H           40.97894528357310        2.78807462195284       10.64093116165689
H           41.38292254606313        2.59759801048604        8.93340291882135
C           35.89348136517093        7.13617484444154        5.34919703693325
H           36.45681047265702        6.32412576630085        4.89186384267073
H           36.57991341951075        7.96570009873782        5.52605607592434
H           35.12807854992318        7.46685125022938        4.64993828660694
C           32.98791839648660        7.82090980080293        6.53132040172872
H           31.96699578758321        7.49989498677985        6.70485369638806
C           33.20092274166687        8.93347066291353        5.83599604509991
H           34.18901575868610        9.32703750785693        5.67413040270646
H           32.38558878982852        9.50678540171489        5.42670055337293
C           30.11856929203657        6.27501645786698       10.71830019837276
H           29.94751867956219        6.23763711453470        9.64345337528303
H           30.18072401596000        7.32403941322101       11.01283401546412
H           29.26482050218916        5.82666221872012       11.22233148158268
C           30.69848172989088        4.36483798977520       13.23301390401238
H           30.80321615183951        3.35543888326588       13.61399331159821
C           29.79526103683729        5.16978341621968       13.78323866411416
H           29.68007490183001        6.19537106443271       13.47866358149294
H           29.15365028480544        4.83447785318678       14.58121192143475
C           34.76099667394768        1.43134989691025       14.92701875383861
H           33.86927504784067        0.86777197124784       14.65131413144953
H           34.45459451326168        2.24869522811669       15.58036066047419
H           35.42122581043835        0.77434742874389       15.48789871573783
C           37.77252207378716        0.86048784870565       13.84705016766262
H           38.06080291209197        0.07298434971803       13.15003955778705
H           37.43085773770736        0.39379761634506       14.76761692347539
H           38.65984481984409        1.45282862919221       14.07166577138907
O           36.07344373553379        6.08858821700028       11.43761592340391
H           35.22869082656322        6.47396658876780       11.69455974831868
H           36.40788803781469        5.60474763429120       12.20063636324543
C           32.29776122047526        0.83413202554199        7.07085225769987
H           31.81748823145996       -0.00114215378670        7.58037374878489
H           32.71964945229831        0.46590866464601        6.13573914246669
H           31.54472380032314        1.58164199969093        6.84219159808110
N           34.43193809346133        0.72295154484789        8.37636361956116
H           34.61705316305267       -0.24800537299787        8.18517351285751
C           33.35273944801351        1.43636711872202        7.92456803759936
C           35.19278186438515        1.55746237980232        9.12002431627645
H           36.10415423019561        1.27029942527670        9.60259051395949
N           34.66117387905169        2.75490243921135        9.16639992055025
C           33.51650311588881        2.69535807043591        8.42698061692555
H           32.89112944522881        3.55552217347793        8.30738095152905
