87
 energy: -124.720516913241 gnorm: 0.000026185317 xtb: 6.7.1 (edcfbbe)
Fe           2.94522036501893       20.95208362671451       12.99725808205801
N            4.32544342938474       19.82126581497863       12.10082626079559
N            3.57749263416168       20.30410501333482       14.78406153383347
N            1.55969158955949       22.08807605156055       13.90582656556849
N            2.36416150823654       21.66628156043031       11.21658538110630
C            4.55228323742853       19.71859763021139       10.76589082339366
C            5.60141206771311       18.75807360631045       10.49754543266810
C            6.00430453133517       18.28675097003681       11.70651333270741
C            5.19613763723627       18.96688090887356       12.69565714508321
C            4.58418475001690       19.42370657677492       15.02479416595488
C            4.76681914072174       19.23167152514209       16.44650564783484
C            3.84326298396878       20.02010488337874       17.05920596803414
C            3.11047263112158       20.68156102677762       16.00280853320248
C            1.34537584098412       22.20530633217598       15.24063596934986
C            0.23988640617276       23.10513882323747       15.50537064064792
C           -0.18234168599162       23.55451121492133       14.28194449788386
C            0.66202123624641       22.91750245591474       13.30453068581453
C            1.38715630774690       22.57960549238792       10.98159598239501
C            1.27228891933849       22.85304626696489        9.56204490383984
C            2.22634861469662       22.08163666343952        8.95280816416518
C            2.88881873232073       21.35178407568325       10.00313243866065
C            3.90000458633778       20.43272825461451        9.78266130303047
H            4.19669808170013       20.25540307934532        8.76033134544013
C            5.33298573954771       18.77840962947232       14.05791408764192
H            6.08346640674976       18.07877377725939       14.39326786603164
C            2.06295618756551       21.55414389109616       16.22719316952544
H            1.78407887966016       21.73921334117221       17.25311927365229
C            0.57249165079444       23.14792455876481       11.94189298581346
H           -0.19367317533432       23.82920145535653       11.60457987096860
C            6.09023627974629       18.40531792888115        9.13480875777804
H            6.48885730898080       19.28574394898933        8.62979929060673
H            5.27637689826318       18.00739622040491        8.52864817633072
H            6.87622599862527       17.65588457803254        9.18726447889448
C            7.05289602577346       17.27730804078654       12.02732517562161
H            6.62037647063277       16.43765465082371       12.57147166453675
H            7.83411762595118       17.71633545100669       12.64900258515987
H            7.51330155644905       16.89607796516709       11.11921508308090
C            2.59086619378002       22.02822123104732        7.51035545169979
H            2.13991849248767       21.16013263013746        7.02644488167098
H            3.67078292553561       21.95823842405026        7.38900459292461
H            2.24015285915774       22.92477229608561        7.00303354913976
C            0.33641505256370       23.78596733820871        8.97508990816657
H            0.09546312141128       24.65230256527206        9.58072229855319
C           -0.23901011599807       23.65503711891217        7.78411094339723
H           -0.07530248800704       22.79373894813770        7.16033550284437
H           -0.91881566703459       24.39851236536751        7.40206922161846
C           -1.24092442055700       24.55701210470654       13.97970295736370
H           -2.16462327027455       24.06753858845742       13.66561145793053
H           -0.92501018804543       25.22306566675465       13.17792965203908
H           -1.45220735749411       25.15420765451263       14.86438468218593
C           -0.25259531446718       23.44233024368702       16.82246312619524
H            0.49365658277225       23.47363862343508       17.60805038593544
C           -1.52023087221140       23.69874538096589       17.12874404044956
H           -2.31013454689893       23.63545718738730       16.40064292258378
H           -1.81628812487812       23.95702739434388       18.13199390471456
C            3.57819853486125       20.20926514063057       18.51323443168308
H            2.55970582650138       19.90742542850026       18.75931727307469
H            3.69658199355343       21.25665670487431       18.79199001550966
H            4.26454578017101       19.61574078446342       19.11229405810132
C            5.78353591487049       18.32311060131649       17.04838998470417
H            5.73281797622535       18.35147738022411       18.13404779363918
H            6.78931040948770       18.61458603671264       16.74419207011464
H            5.61792595404065       17.29518057508278       16.72450815795040
C            5.48086810080888       25.92377108509370       12.97501444934489
H            6.26186932009909       26.09599650851099       12.23445550102851
H            5.82116661394752       26.32616882732780       13.92916018639244
H            4.58784722001435       26.46012108241549       12.66994556876643
N            6.11657552504426       23.55048106952598       13.46101798131709
H            7.07881377808565       23.74659850232394       13.68297054427900
C            5.17515149822350       24.47555813411422       13.09216297212198
C            5.51815640134254       22.33840939204486       13.47112631225512
H            6.01517195858497       21.42466363444777       13.72331518031625
N            4.25655243137818       22.43979455761980       13.13165776772825
C            4.02802121632361       23.76241389465552       12.89282800752384
H            3.06125593563607       24.11135153103886       12.59547360694275
C            1.48401096032885       17.58398908716732       15.07935139627488
H            1.06229049848441       17.36493076709613       16.05832841950689
H            2.52177454670239       17.87773191609566       15.20542214725019
H            1.45221410760857       16.68251381588271       14.47203773835350
C            0.69915411401225       18.69719221501575       14.41308267438106
H            0.71266066737881       19.60480092451771       15.01417804339382
H           -0.33033270613776       18.38814348128841       14.23194695564645
S            1.42881749580860       19.09364297854577       12.77150681044199
C           -0.07737864704195       19.73563639532296       11.97888269692190
H           -0.45812278584457       20.58161474443313       12.54213628265732
H           -0.81501708435526       18.93935484925176       11.92244043184439
H            0.20090618313767       20.05552490256845       10.98085779208739
