87
 energy: -128.415986854882 gnorm: 0.219596770471 xtb: 6.7.1 (edcfbbe)
Fe          11.71200000000000        2.32700000000000       -2.30100000000000
N           12.39400000000000        3.32300000000000       -3.85600000000000
N           13.38000000000000        2.77700000000000       -1.33400000000000
N           11.04500000000000        1.28400000000000       -0.73900000000000
N           10.08300000000000        1.81000000000000       -3.27900000000000
C           11.80000000000000        3.42000000000000       -5.10700000000000
C           12.64900000000000        4.14400000000000       -6.02900000000000
C           13.73100000000000        4.55200000000000       -5.32900000000000
C           13.57200000000000        4.04100000000000       -3.98400000000000
C           14.43500000000000        3.58000000000000       -1.74500000000000
C           15.43000000000000        3.71000000000000       -0.69900000000000
C           14.96700000000000        3.00200000000000        0.36900000000000
C           13.72500000000000        2.39300000000000       -0.03800000000000
C           11.73800000000000        1.01900000000000        0.43500000000000
C           11.02300000000000        0.07100000000000        1.27600000000000
C            9.85100000000000       -0.20700000000000        0.65200000000000
C            9.86300000000000        0.55900000000000       -0.59300000000000
C            8.98900000000000        1.07600000000000       -2.82800000000000
C            7.94600000000000        1.03200000000000       -3.83800000000000
C            8.39900000000000        1.71100000000000       -4.91300000000000
C            9.73800000000000        2.17500000000000       -4.57600000000000
C           10.54700000000000        2.91000000000000       -5.43000000000000
H           10.17100000000000        3.10300000000000       -6.43500000000000
C           14.52700000000000        4.17800000000000       -2.99700000000000
H           15.40300000000000        4.79000000000000       -3.21100000000000
C           12.96700000000000        1.56500000000000        0.76600000000000
H           13.37200000000000        1.31900000000000        1.74800000000000
C            8.87900000000000        0.48800000000000       -1.56800000000000
H            7.96600000000000       -0.06000000000000       -1.33600000000000
C           14.90700000000000        5.38600000000000       -5.81500000000000
H           14.68300000000000        5.79000000000000       -6.82500000000000
H           15.81700000000000        4.75200000000000       -5.87500000000000
H           15.07900000000000        6.23400000000000       -5.11800000000000
C           12.43500000000000        4.34300000000000       -7.52400000000000
H           12.00700000000000        5.35200000000000       -7.70600000000000
H           11.72700000000000        3.57700000000000       -7.90700000000000
H           13.40700000000000        4.26200000000000       -8.05600000000000
C           16.71900000000000        4.52700000000000       -0.78200000000000
H           16.49100000000000        5.59900000000000       -0.60000000000000
H           17.16700000000000        4.42000000000000       -1.79300000000000
H           17.43700000000000        4.17500000000000       -0.01000000000000
C           15.50600000000000        3.03000000000000        1.65500000000000
H           15.35400000000000        3.91800000000000        2.28700000000000
C           16.23700000000000        1.97900000000000        2.19100000000000
H           16.41800000000000        1.06800000000000        1.60200000000000
H           16.64400000000000        2.04500000000000        3.21100000000000
C           11.50100000000000       -0.47600000000000        2.62500000000000
H           11.14100000000000        0.18500000000000        3.44200000000000
H           12.61100000000000       -0.50400000000000        2.64700000000000
H           11.09300000000000       -1.49700000000000        2.78200000000000
C            8.85700000000000       -1.09300000000000        1.05800000000000
H            8.40700000000000       -1.75000000000000        0.30000000000000
C            8.36500000000000       -1.23100000000000        2.36600000000000
H            8.76400000000000       -0.61000000000000        3.18100000000000
H            7.57500000000000       -1.96200000000000        2.59100000000000
C            6.58900000000000        0.35000000000000       -3.71100000000000
H            5.89900000000000        1.00200000000000       -3.13400000000000
H            6.70300000000000       -0.61700000000000       -3.17600000000000
H            6.16000000000000        0.17600000000000       -4.72100000000000
C            7.60300000000000        1.98100000000000       -6.19200000000000
H            6.55200000000000        2.22600000000000       -5.93000000000000
H            7.61200000000000        1.07700000000000       -6.83800000000000
H            8.04800000000000        2.84100000000000       -6.73700000000000
C           10.53400000000000        7.44000000000000       -0.34800000000000
H           10.48900000000000        7.49000000000000        0.76100000000000
H            9.70300000000000        8.04500000000000       -0.77000000000000
H           11.51000000000000        7.84700000000000       -0.68800000000000
N            9.30200000000000        5.22800000000000       -0.51600000000000
H            8.47900000000000        5.52700000000000       -0.03400000000000
C           10.39800000000000        6.01900000000000       -0.78900000000000
C            9.54400000000000        4.01000000000000       -1.00800000000000
H            8.84000000000000        3.18200000000000       -0.92700000000000
N           10.72600000000000        3.96200000000000       -1.58900000000000
C           11.27000000000000        5.22300000000000       -1.45800000000000
H           12.25000000000000        5.44100000000000       -1.86300000000000
C           15.24700000000000       -1.24300000000000       -4.82000000000000
H           14.84100000000000       -1.86100000000000       -5.64900000000000
H           15.89500000000000       -1.88000000000000       -4.18100000000000
H           15.84000000000000       -0.40800000000000       -5.25000000000000
N           13.19300000000000       -1.47100000000000       -3.34900000000000
H           13.19500000000000       -2.47000000000000       -3.31100000000000
C           14.12000000000000       -0.69500000000000       -4.00800000000000
C           12.30400000000000       -0.64600000000000       -2.77900000000000
H           11.45600000000000       -0.99600000000000       -2.19100000000000
N           12.60100000000000        0.61400000000000       -3.02900000000000
C           13.74200000000000        0.59100000000000       -3.79900000000000
H           14.19200000000000        1.51700000000000       -4.13600000000000
87
 energy: -128.451926647198 gnorm: 0.082888572583 xtb: 6.7.1 (edcfbbe)
Fe          11.70378432577770        2.31360298595228       -2.30582329125489
N           12.38872022825051        3.33382462614824       -3.87146143392736
N           13.38433343446577        2.78661308759042       -1.32664392088118
N           11.04785230751986        1.26143572326629       -0.72410581662634
N           10.05807135058039        1.81160933074016       -3.29115338398985
C           11.80069370568893        3.41224875581246       -5.11039201314084
C           12.64713415225224        4.13813267778173       -6.03317010755344
C           13.72994659095094        4.55317426840644       -5.32619075367417
C           13.56658448918785        4.03416935531569       -3.98762054077060
C           14.42842109001225        3.57615722428965       -1.74629942249386
C           15.41924418382037        3.72330051699581       -0.70685311306525
C           14.96118835725639        3.00977831832001        0.36174696483139
C           13.71340013829584        2.40805095419122       -0.04508880045432
C           11.74571359679663        1.01089025729695        0.43379796750272
C           11.02758877126561        0.09304769244209        1.28770644152820
C            9.85116262595246       -0.19578089058235        0.65282366659574
C            9.88287244084465        0.53927360376129       -0.60741082222668
C            8.98278758187736        1.08862193671920       -2.82759944581937
C            7.94403232324400        1.03024037080775       -3.83354443053734
C            8.39781420403638        1.71967256083427       -4.91195057926124
C            9.72821761794893        2.18647512047378       -4.57244092252392
C           10.54852418606077        2.90622015796359       -5.42554882361648
H           10.17621077348414        3.09850593223760       -6.42540550341085
C           14.51738322022933        4.17134226501717       -2.99438694901294
H           15.39117654873772        4.77728999768843       -3.20748567076147
C           12.96856491739308        1.56912128092803        0.76074587711398
H           13.37790274045800        1.32888126649569        1.73673315368440
C            8.89074084619063        0.49239120491600       -1.57504925493908
H            7.98281770716354       -0.05421611701695       -1.34184345422756
C           14.89438796269371        5.37565539803950       -5.80803328772086
H           14.68683349886714        5.78111355738759       -6.80285320399339
H           15.80356769706848        4.76631598573499       -5.86782598490832
H           15.07975247570838        6.21468908238003       -5.12944043708214
C           12.42485900784143        4.34205115706475       -7.50799379205720
H           12.00684476517568        5.33624050778893       -7.70528029923109
H           11.73834181577063        3.59026847314446       -7.90552141879371
H           13.37737006486995        4.26145628281103       -8.04241405713181
C           16.69643280211122        4.52055834825721       -0.78549370833851
H           16.49429365561823        5.58339250731391       -0.60673790097386
H           17.15814126650489        4.42043446095619       -1.77272431049274
H           17.40973209944551        4.17768812873820       -0.02810578617959
C           15.52491628349825        3.00314540517483        1.68129270418315
H           15.37699296975660        3.89427692555028        2.29393541718279
C           16.22570600762679        1.98716198425727        2.19551526413197
H           16.41087026850261        1.09122196170218        1.61541350772426
H           16.63951490083375        2.04013210258571        3.19459019174259
C           11.50206270679541       -0.46033506833188        2.60746004615613
H           11.15497989778370        0.17744348007479        3.42828901677126
H           12.59399245912112       -0.50532906003332        2.64530706148374
H           11.09834515466147       -1.46649140391412        2.76789688256879
C            8.82983000576648       -1.09614075030124        1.07562543132450
H            8.38332875551193       -1.73682336375376        0.31470710008515
C            8.37701504407945       -1.23525055131922        2.33869402689432
H            8.75371731579577       -0.61922114054077        3.14570996449341
H            7.59917624906995       -1.94957844219567        2.57720881552763
C            6.60486673933524        0.35486096062992       -3.70314909106698
H            5.90989234757663        0.98745363509904       -3.13792589899774
H            6.69850782547833       -0.60315459876941       -3.18379357311217
H            6.17462296978123        0.17634462670973       -4.69323958707959
C            7.62137168916825        1.98198669658275       -6.17905025416607
H            6.58076136477612        2.22133649120644       -5.93425721357790
H            7.62080403887289        1.09767192675520       -6.82723326878861
H            8.04312321178491        2.82456582111075       -6.73237601201572
C           10.52749315732568        7.43627934109811       -0.34729419372600
H           10.48712793779684        7.49957796834156        0.74615593551878
H            9.71698770180953        8.04627773237557       -0.76071766547739
H           11.48527563695717        7.84018815790662       -0.68294125680991
N            9.30958937308426        5.23425258912687       -0.51544590056788
H            8.48046626696695        5.53341949742081       -0.03203817720261
C           10.40385447389334        6.02026502959327       -0.78746600800443
C            9.55506808140439        4.00814311136569       -1.01226811879977
H            8.85977046996347        3.18831345992402       -0.93580348606860
N           10.73635948413314        3.95790318036671       -1.58371755897021
C           11.27294256919502        5.21377305326375       -1.45650361638625
H           12.24364701504560        5.43273494789327       -1.85900404239570
C           15.24304697975773       -1.24937239908350       -4.81737559233453
H           14.85571153908863       -1.85906499792999       -5.64142898673821
H           15.89393075556909       -1.87493920412525       -4.19721387149701
H           15.82983651962182       -0.42931661938760       -5.23743549477862
N           13.19762598632298       -1.46980676205969       -3.35622086143425
H           13.19751809729420       -2.47412213452452       -3.31724592978469
C           14.12100082303891       -0.69445528865385       -4.01455224439777
C           12.30864216568360       -0.63952660095647       -2.77791603746328
H           11.46800409653917       -0.98214037196513       -2.19787087855062
N           12.61086079159829        0.61418918697987       -3.01797637689270
C           13.73863850203672        0.59250974098598       -3.79461014192276
H           14.18676180287900        1.50870138935461       -4.12939145696464
87
 energy: -128.458621606996 gnorm: 0.017015675852 xtb: 6.7.1 (edcfbbe)
Fe          11.70373993343070        2.30439397859604       -2.30913288234664
N           12.38548662850393        3.33608234705978       -3.88929262749715
N           13.38796151528749        2.79454504734364       -1.31449613282319
N           11.05876905519423        1.23575316824398       -0.71941059331255
N           10.04214126339180        1.81714751137744       -3.29854554200239
C           11.79862963606440        3.40671086068091       -5.11522081774971
C           12.64302358798547        4.13237554170516       -6.03976211519982
C           13.72586904435694        4.54952593217177       -5.32734737346152
C           13.55774677720409        4.02711978356354       -3.99259301447746
C           14.41541429214566        3.58132583979563       -1.74172271954835
C           15.40619277688924        3.73938715849381       -0.70668824544424
C           14.95170117472374        3.02723598865698        0.36300731414874
C           13.70225663411728        2.42578500424549       -0.04368107099928
C           11.75121115720373        1.00481769950605        0.43256620485410
C           11.02809340871673        0.10472661514979        1.29144581146326
C            9.85608958950093       -0.19236617775622        0.64288229497285
C            9.90296282391294        0.52572988845373       -0.61978636907728
C            8.98275227446196        1.09930388208601       -2.82905726954166
C            7.94094686728539        1.03534830030104       -3.82744210827127
C            8.39420233275177        1.73069391451472       -4.90759110106038
C            9.71952774160254        2.19725009734351       -4.56682102604252
C           10.54625448160458        2.90395619299054       -5.42351292560103
H           10.17718027806475        3.08987433278701       -6.42194105630845
C           14.50220148687770        4.16855958041854       -2.99160252193179
H           15.37755652564382        4.76458651721100       -3.20739785254462
C           12.96786787289435        1.57734767254994        0.76228332114242
H           13.38245577461774        1.34438106401098        1.73359623838221
C            8.90570840075298        0.49551783309298       -1.58246317181091
H            8.00347141898436       -0.05363071501361       -1.34923753350791
C           14.88328531671153        5.36507934898687       -5.80120223601696
H           14.68197823838931        5.76952209269851       -6.78964639365682
H           15.79110546441812        4.76362036025361       -5.85555946908489
H           15.07210767431448        6.19773083513429       -5.12593706908355
C           12.41002787331017        4.34114015269421       -7.49951216459956
H           11.99305254262585        5.32913515256134       -7.69503091734446
H           11.73074638577527        3.59479144209262       -7.89881471187482
H           13.35395769238880        4.26319446499393       -8.03665636492597
C           16.67507445721088        4.52055623240804       -0.79000328050586
H           16.48642756832663        5.58095287793018       -0.61715267388096
H           17.14123836497593        4.41435236382159       -1.76706343433204
H           17.37682501567857        4.17439057285921       -0.03374564277503
C           15.53824928172901        2.98789269837383        1.69853674494748
H           15.38937658500575        3.88270134329277        2.29672142899326
C           16.22729859112589        1.98213381830146        2.19709206287275
H           16.40123418684670        1.08534348067477        1.62792296370611
H           16.63982958304283        2.01556648663283        3.19054957513500
C           11.49924712817844       -0.44187414473898        2.59579561332348
H           11.16667815857575        0.18679214146457        3.42236768973103
H           12.58396463158382       -0.49872191461607        2.63068369120686
H           11.09209100377971       -1.44025696140015        2.75049469340778
C            8.81087464017577       -1.09388761027864        1.07309023192515
H            8.36279783741753       -1.71084253326084        0.30012170766183
C            8.37582164239761       -1.22810037240649        2.31586039641531
H            8.75295697404237       -0.62738917278532        3.12415944598578
H            7.61519329614526       -1.94563042553403        2.57173641033217
C            6.61730562602323        0.35807904797278       -3.69273220342029
H            5.92161659650398        0.98045306146307       -3.12831361785170
H            6.71013081957272       -0.59538265473931       -3.17943134556459
H            6.18797967275550        0.17697184377200       -4.67497449011261
C            7.63775819458640        1.98460857996156       -6.17051815024538
H            6.60025539102146        2.22061950298171       -5.93718055162222
H            7.64275693707391        1.10524110989414       -6.81547507141656
H            8.05738134013567        2.81749197238212       -6.72507950371890
C           10.52368918618660        7.43434825692598       -0.34939747149941
H           10.48107728780906        7.50384541145433        0.73696142028549
H            9.71904541069022        8.04054299819350       -0.76163100421335
H           11.47250847693841        7.83920818495946       -0.68374354599277
N            9.32051973489208        5.23580169409464       -0.51576081797286
H            8.48746806570268        5.53416483971922       -0.03405250897236
C           10.41355767034809        6.01908621229097       -0.78583062302379
C            9.56954038457034        4.00348150136618       -1.01273121512026
H            8.88014620205096        3.18729086269880       -0.94230009141904
N           10.75052609886587        3.95472512670075       -1.57763485748275
C           11.28411684113421        5.20469000366659       -1.44998721643629
H           12.25086659521779        5.42680563677530       -1.84930006073858
C           15.24195454655194       -1.25642738989105       -4.81706869456637
H           14.86349516259737       -1.86408562052711       -5.63789336255392
H           15.88952834904156       -1.87735166581244       -4.20088116497822
H           15.82859033826960       -0.44313235364829       -5.23006383991255
N           13.19928755784695       -1.46755266109335       -3.36604143438694
H           13.19535117500111       -2.47406395547205       -3.32784148852088
C           14.12222693414969       -0.69362940022796       -4.02182219252560
C           12.31451707853607       -0.63271213457056       -2.77589056525544
H           11.47863642466571       -0.96897302502146       -2.19808198117226
N           12.62063865801087        0.61744409440912       -3.01253206673049
C           13.74243026531045        0.59519489862263       -3.78847596221295
H           14.19424208959620        1.50453843096438       -4.12213773261256
87
 energy: -128.459736114940 gnorm: 0.007236986737 xtb: 6.7.1 (edcfbbe)
Fe          11.70792637790331        2.30018801887261       -2.31030387522674
N           12.38118606114471        3.33416931981043       -3.89514445860800
N           13.38407615873484        2.79965933814615       -1.30591816948978
N           11.06673574322067        1.23090882371970       -0.72070175995444
N           10.04188815421355        1.82123591303655       -3.30054412725949
C           11.79545330169297        3.40252454251564       -5.11862565402910
C           12.63806747769352        4.12903694467554       -6.04317465311211
C           13.72124255343675        4.54331796655433       -5.32959488088312
C           13.55198638193128        4.02091800746370       -3.99510377137543
C           14.40492245468642        3.58727521709512       -1.73694375779193
C           15.39501544743350        3.75085562833076       -0.70075300671319
C           14.94399164468396        3.04012719278647        0.37050784453518
C           13.69495852543231        2.43659208325396       -0.03615499375797
C           11.75265665350073        1.00614832522437        0.43347204449510
C           11.02377113721720        0.11069198946516        1.29144640577046
C            9.85651441484979       -0.18895929523594        0.63533863497417
C            9.91318041410343        0.52196474997750       -0.62716576199526
C            8.98629112472282        1.10397315757238       -2.83023981518350
C            7.94021791404277        1.04159280127893       -3.82334355629578
C            8.39162932798096        1.73796089268123       -4.90358271575096
C            9.71659227373557        2.20306935966561       -4.56460662975581
C           10.54297783507651        2.90268466846630       -5.42605163232837
H           10.17452674001794        3.08376700739287       -6.42522779569131
C           14.49278072687378        4.16601887906228       -2.99076688102548
H           15.36856081689449        4.75955809460609       -3.20810077358161
C           12.96493629971254        1.58506803925420        0.76927283057057
H           13.37925386715103        1.36059453878002        1.74196767291271
C            8.91591764782097        0.49307513333417       -1.58846150314651
H            8.01649829946911       -0.05914502349803       -1.35544253255728
C           14.87953911842448        5.35725770349747       -5.79792904180022
H           14.68261397436599        5.76246183029265       -6.78703338542966
H           15.78740982477500        4.75464814719196       -5.84673796231704
H           15.06591289326535        6.18846824054888       -5.11951083377476
C           12.39247787337924        4.34419909832567       -7.49879194595155
H           11.96869960751205        5.33130097577647       -7.68594861481780
H           11.71207147412205        3.59695845961457       -7.89618541491471
H           13.33171349944262        4.27227622476729       -8.04567199601738
C           16.66291579060440        4.52844334949391       -0.79094441696676
H           16.47902321105682        5.59179423425628       -0.62902576949661
H           17.12914887280143        4.41033282817356       -1.76701047992259
H           17.36010796758159        4.18376192820383       -0.02985126886615
C           15.54097849758476        2.98399603408427        1.70638312210901
H           15.40428131530299        3.88046970183007        2.30417243139873
C           16.21944664126037        1.96244462676727        2.19964482451362
H           16.38939879190631        1.06762261535046        1.62508574722517
H           16.64674245093299        1.98770230216890        3.18872171952203
C           11.49651136244282       -0.43161144719267        2.59458303206006
H           11.17727422995629        0.20298341537853        3.42234754415938
H           12.58184535540167       -0.49710184563381        2.62040133303771
H           11.08078200879665       -1.42582645630157        2.75321129694984
C            8.80280364411715       -1.08857175668574        1.05910369068102
H            8.34418378380722       -1.68457498793336        0.27545778805839
C            8.38002124351945       -1.23625541264653        2.30977554485328
H            8.75905539984634       -0.63594286838423        3.11789471393866
H            7.60534671055000       -1.93936713758540        2.56584853712872
C            6.62230071262307        0.35809174513952       -3.68140426254287
H            5.92595993172273        0.97493350048464       -3.11088681700905
H            6.72460274705530       -0.59557241007576       -3.16891053805921
H            6.18891790432356        0.17480831359268       -4.66166981488823
C            7.64681437418843        1.98709436477832       -6.17201807415946
H            6.60607590477891        2.22154493015029       -5.95102774232749
H            7.66323280801761        1.10517971993018       -6.81395025475735
H            8.07210222815908        2.81880446624989       -6.72516272727942
C           10.52266453092507        7.43368585732418       -0.35329072563280
H           10.47520159297123        7.50867202825129        0.73291074983241
H            9.71427012630791        8.03186141709379       -0.77105014829955
H           11.46941237458182        7.84491316566998       -0.68724101405354
N            9.33139070776372        5.23178203206990       -0.51627117563964
H            8.49610446824316        5.52941517627951       -0.03836854814262
C           10.42385380828596        6.01568481581063       -0.78378607224814
C            9.58375723920891        3.99791649166281       -1.01024326176005
H            8.89620483907209        3.18028860799892       -0.94439375235754
N           10.76675290304825        3.95114177272075       -1.56986313884654
C           11.29917024555204        5.19988179096597       -1.44150300394387
H           12.26771192605477        5.42433627721418       -1.83586933893437
C           15.24464685770663       -1.26366015364778       -4.81727875687621
H           14.86770215847913       -1.87218656111873       -5.63853847417282
H           15.88713470767536       -1.88659136469493       -4.19698010635430
H           15.83743701270236       -0.45358491328100       -5.22907723856986
N           13.19830051471439       -1.46544850989412       -3.37444526773029
H           13.18862487952535       -2.47198337527394       -3.33996310479887
C           14.12512219492304       -0.69404125602307       -4.02638513663703
C           12.31892237040186       -0.62789085737663       -2.77802959865882
H           11.48245288487804       -0.96043420332277       -2.19955013675840
N           12.63241755462364        0.62165316387831       -3.00946920988261
C           13.75258577144079        0.59649250545970       -3.78592773120942
H           14.21209040191220        1.50346934433642       -4.11639850040731
87
 energy: -128.460570395032 gnorm: 0.010070757254 xtb: 6.7.1 (edcfbbe)
Fe          11.71568727745640        2.29565077440228       -2.30868579386335
N           12.37716594153936        3.32798398438292       -3.90015003255823
N           13.38075007398023        2.80084328615751       -1.29599716973357
N           11.07925794847622        1.22637640250209       -0.72293876180913
N           10.04683728791812        1.82359037023828       -3.30286520442339
C           11.79154420578870        3.39738695821386       -5.12185919963005
C           12.63222740259153        4.12534699899735       -6.04663006099381
C           13.71662358195931        4.53423176063519       -5.33284572591169
C           13.54662594113877        4.01090068817626       -3.99783154601463
C           14.39264551380015        3.59393313745795       -1.73029439275247
C           15.38148781405564        3.76652164391048       -0.69184300429471
C           14.93668790035695        3.05559557184231        0.38082017242264
C           13.68910614517926        2.44538338571673       -0.02535715355828
C           11.75353477057496        1.01016872971579        0.43823742594818
C           11.01617195056519        0.11965755741480        1.29510459865386
C            9.85634993905105       -0.18448841291301        0.62812659082742
C            9.92696331401660        0.51705932846090       -0.63571192216307
C            8.99309151441391        1.10732501527506       -2.83195018710139
C            7.94064209888467        1.04804512029203       -3.81873767527608
C            8.38879055878358        1.74545292897852       -4.89887710906538
C            9.71528263909290        2.20764058548384       -4.56290840175589
C           10.53906460346033        2.90116705517228       -5.43019470832155
H           10.17039379856537        3.07780676760595       -6.42986848760853
C           14.48210701747329        4.16237087397996       -2.98905851697127
H           15.35740119917939        4.75569945082467       -3.20750327192240
C           12.96085230763838        1.59556175586012        0.78236103398401
H           13.37194694327691        1.38497244061478        1.75920399122268
C            8.92986246001723        0.48793674658342       -1.59582552678418
H            8.03356767667832       -0.06834543893859       -1.36316297404617
C           14.87765445388486        5.34671579366790       -5.79468670332634
H           14.68818282951655        5.75180374126619       -6.78599401519157