78
 energy: -115.980966246712 gnorm: 0.248367605797 xtb: 6.7.1 (edcfbbe)
Fe          11.53100000000000       -2.37600000000000        1.22400000000000
N           11.98800000000000       -0.56500000000000        2.07100000000000
N            9.76100000000000       -2.32100000000000        2.31200000000000
N           10.85500000000000       -3.96400000000000        0.10700000000000
N           13.08100000000000       -2.15100000000000       -0.12600000000000
C           13.16100000000000        0.13200000000000        1.82700000000000
C           13.17800000000000        1.30300000000000        2.67800000000000
C           12.06000000000000        1.27000000000000        3.41300000000000
C           11.29600000000000        0.09500000000000        3.05600000000000
C            9.41600000000000       -1.44200000000000        3.31200000000000
C            8.25300000000000       -1.95700000000000        3.97600000000000
C            7.91500000000000       -3.11500000000000        3.39500000000000
C            8.85600000000000       -3.36100000000000        2.31200000000000
C            9.69000000000000       -4.65100000000000        0.37900000000000
C            9.54600000000000       -5.67700000000000       -0.63200000000000
C           10.58500000000000       -5.57100000000000       -1.47700000000000
C           11.43500000000000       -4.49800000000000       -1.01800000000000
C           13.46400000000000       -3.10600000000000       -1.04000000000000
C           14.85000000000000       -2.85300000000000       -1.38200000000000
C           15.28100000000000       -1.78600000000000       -0.69800000000000
C           14.16600000000000       -1.31800000000000        0.10000000000000
C           14.16200000000000       -0.21500000000000        0.94000000000000
H           15.03100000000000        0.44100000000000        0.89700000000000
C           10.09000000000000       -0.28100000000000        3.59400000000000
H            9.62800000000000        0.40200000000000        4.30700000000000
C            8.84800000000000       -4.43600000000000        1.45000000000000
H            8.09300000000000       -5.20000000000000        1.63500000000000
C           12.63300000000000       -4.07900000000000       -1.55400000000000
H           12.95600000000000       -4.56400000000000       -2.47500000000000
C           11.58700000000000        2.27800000000000        4.46800000000000
H           12.33200000000000        3.09700000000000        4.55900000000000
H           11.48600000000000        1.77200000000000        5.45200000000000
H           10.61100000000000        2.71100000000000        4.16200000000000
C           14.30900000000000        2.34900000000000        2.68200000000000
H           14.64500000000000        2.53600000000000        1.64000000000000
H           15.16900000000000        1.97000000000000        3.27500000000000
H           13.93800000000000        3.30100000000000        3.11700000000000
C            7.57300000000000       -1.26200000000000        5.16300000000000
H            7.86700000000000       -0.19100000000000        5.18400000000000
H            7.89300000000000       -1.74200000000000        6.11300000000000
H            6.46900000000000       -1.33100000000000        5.05600000000000
C            6.75400000000000       -4.05800000000000        3.76300000000000
H            6.33500000000000       -4.73500000000000        3.00400000000000
C            6.22400000000000       -4.08900000000000        4.99200000000000
H            6.61100000000000       -3.43000000000000        5.78400000000000
H            5.39500000000000       -4.77300000000000        5.22500000000000
C            8.37100000000000       -6.65800000000000       -0.68000000000000
H            7.46700000000000       -6.17500000000000       -0.25200000000000
H            8.61300000000000       -7.56300000000000       -0.08200000000000
H            8.16300000000000       -6.94300000000000       -1.73300000000000
C           10.92700000000000       -6.38100000000000       -2.74200000000000
H           11.55900000000000       -5.92000000000000       -3.51500000000000
C           10.50600000000000       -7.61800000000000       -2.96900000000000
H            9.87100000000000       -8.13500000000000       -2.23500000000000
H           10.78600000000000       -8.14200000000000       -3.89500000000000
C           15.65600000000000       -3.72800000000000       -2.33500000000000
H           15.40500000000000       -3.46300000000000       -3.38400000000000
H           15.40700000000000       -4.79700000000000       -2.16400000000000
H           16.74200000000000       -3.56000000000000       -2.17100000000000
C           16.67900000000000       -1.12600000000000       -0.70000000000000
H           17.22800000000000       -1.42400000000000       -1.61900000000000
H           17.25400000000000       -1.46300000000000        0.18900000000000
H           16.57200000000000       -0.02000000000000       -0.68600000000000
O           10.23100000000000       -0.58700000000000       -0.12300000000000
H           10.44900000000000        0.25500000000000        0.27700000000000
H            9.69000000000000       -0.71500000000000       -0.81700000000000
C           14.90000000000000       -6.26100000000000        3.67400000000000
H           14.41500000000000       -7.24100000000000        3.87000000000000
H           15.50000000000000       -5.97100000000000        4.56300000000000
H           15.56000000000000       -6.35700000000000        2.78500000000000
N           12.87900000000000       -4.89200000000000        4.32800000000000
H           12.77600000000000       -5.31100000000000        5.23000000000000
C           13.85300000000000       -5.23000000000000        3.41500000000000
C           12.11900000000000       -3.94000000000000        3.82100000000000
H           11.28700000000000       -3.46900000000000        4.34300000000000
N           12.54400000000000       -3.67600000000000        2.60200000000000
C           13.62100000000000       -4.47100000000000        2.32100000000000
H           14.12400000000000       -4.42200000000000        1.36400000000000
78
 energy: -116.028302311930 gnorm: 0.098976807613 xtb: 6.7.1 (edcfbbe)
Fe          11.47254364295295       -2.31823898631351        1.16727622934665
N           12.01551853957043       -0.58771203838861        2.09301245627647
N            9.78489448133083       -2.35736139867329        2.34883308659570
N           10.85321629914232       -3.95118262387948        0.10954317821896
N           13.10138822511621       -2.17719439655231       -0.08048931537996
C           13.15828580072785        0.12858603951292        1.83504034078770
C           13.18453796883182        1.31131864349777        2.67511057379800
C           12.05323396769655        1.28502158748624        3.41884164414818
C           11.31251524372385        0.09472112766130        3.04883097787189
C            9.41533440820654       -1.46256737728982        3.31229311094058
C            8.23923595403494       -1.95649888896328        3.98477176031373
C            7.89486362324166       -3.13532161552406        3.39299640526518
C            8.85414599647960       -3.36060360062587        2.31298615074808
C            9.71142450496705       -4.66021217243034        0.37510186349273
C            9.54573762373486       -5.68804511667251       -0.63617758087625
C           10.59464126801443       -5.57702224483643       -1.49907929992760
C           11.42388596899109       -4.48595300311595       -1.01405105516377
C           13.47065429609834       -3.09285702913119       -1.02838923040709
C           14.85382360569752       -2.85585023897433       -1.39578078368696
C           15.28410029970887       -1.77342762232450       -0.70212632255776
C           14.16579858148750       -1.33200866952990        0.10827284036543
C           14.15620049922159       -0.22281666421947        0.94195144437989
H           15.02355185433924        0.42775919832642        0.90148556484285
C           10.09726976559771       -0.28754836339432        3.58955873166744
H            9.64544558594810        0.38968362691348        4.30820520787644
C            8.85326787184446       -4.43708149501192        1.44389714991070
H            8.08698560234784       -5.18609366255472        1.61617440068599
C           12.63368781376043       -4.07254505732487       -1.54736241271370
H           12.96811897178536       -4.57480542527048       -2.45088213246330
C           11.59111457623656        2.27416367266936        4.45996265161656
H           12.31766619453059        3.08560140901012        4.56082082928917
H           11.48436013369037        1.78231811123983        5.43315291210528
H           10.62536628959220        2.70352365336607        4.17164442321787
C           14.29560869752697        2.33756738930725        2.67853301755519
H           14.63697960123695        2.53284341778600        1.65691339646412
H           15.14951156713162        1.97647095106827        3.26405340615629
H           13.94678976352896        3.28069409896371        3.10999911353796
C            7.57727964722888       -1.26077880175883        5.14981304399287
H            7.86031096669664       -0.20494096237742        5.18325728469328
H            7.88715811971123       -1.72435842556349        6.09492823829434
H            6.48810891142061       -1.32849650836442        5.05978184480052
C            6.77046203549930       -4.04099548647613        3.76457748355565
H            6.37038734499794       -4.70699600066404        3.00146064510335
C            6.23146394635391       -4.08548995028267        4.98130062711463
H            6.60037126940916       -3.45931607224724        5.78155438214189
H            5.41318518348430       -4.75957209732213        5.21511767601735
C            8.37993751474683       -6.64564032485437       -0.68019791243668
H            7.48284437597927       -6.18134195851920       -0.25805120913029
H            8.60723253530294       -7.54646968185987       -0.09603465390003
H            8.16452185578145       -6.93613622647839       -1.71290410650720
C           10.91414175565239       -6.37151699524600       -2.72139370759685
H           11.54531460596997       -5.90069005087614       -3.47451844874247
C           10.50134775317998       -7.61125310194589       -2.95883499634458
H            9.88747894035311       -8.14555795137323       -2.24637582745524
H           10.77689490223604       -8.13152399688642       -3.87192665951126
C           15.64854849123091       -3.72317565530938       -2.33472046964574
H           15.40895221495069       -3.47182836537895       -3.37434709109489
H           15.41396784589416       -4.77980904391463       -2.16970084800575
H           16.72066005804326       -3.56852185827066       -2.17778923549980
C           16.65859042485895       -1.13428976503643       -0.70418914793476
H           17.21432536055937       -1.41862776821128       -1.60359793874823
H           17.23497924424083       -1.45452309544936        0.17247297866822
H           16.57164639776390       -0.04349408326477       -0.68523960893944
O           10.26105824767795       -0.61541578705580       -0.10139832837319
H           10.44929045728961        0.24184583602344        0.27622826959982
H            9.67835529276694       -0.72057058316965       -0.83203867307234
C           14.89261915831255       -6.26075477593395        3.67558664553711
H           14.42892650928080       -7.23461730389072        3.87065611776230
H           15.49601062701682       -5.98250754073287        4.54783159055383
H           15.54721710448653       -6.35388702193962        2.80498333448966
N           12.88999880802145       -4.89244975966900        4.32793305341509
H           12.78584105637731       -5.31290890172933        5.23613746606181
C           13.84950586908137       -5.23198736706345        3.41010370307503
C           12.11925731459147       -3.93107355499692        3.79789286575057
H           11.29675982425576       -3.47038693236380        4.31875328407209
N           12.52362842617128       -3.64292025724970        2.57627283007518
C           13.60185945583612       -4.45095232143630        2.31976209599734
H           14.10885505921377       -4.40839473666852        1.37392866786813
78
 energy: -116.042022231594 gnorm: 0.027257495806 xtb: 6.7.1 (edcfbbe)
Fe          11.44798074057388       -2.28286351338286        1.14291168932719
N           12.02693624170254       -0.59931621308532        2.09160151943419
N            9.78067981507696       -2.35971890450215        2.31344685926581
N           10.83416886549757       -3.91498788819467        0.10269706697966
N           13.10400413597809       -2.19025626452046       -0.04632019180811
C           13.15680105575916        0.11766426434801        1.84566307072444
C           13.18559462782591        1.31126595656280        2.67082765224024
C           12.04494741036070        1.28977445653232        3.41790487012692
C           11.32626280286953        0.08706702230030        3.03767447180683
C            9.42535166473296       -1.48275766365530        3.29227009805598
C            8.24656555717891       -1.95481851670276        3.98625504336197
C            7.89623508224476       -3.14969270264659        3.39909919275345
C            8.87801547889945       -3.37438860102614        2.33937718831993
C            9.72050400411312       -4.65219607994730        0.37281847623890
C            9.54697504566448       -5.68778546306733       -0.62843940110437
C           10.60074726663321       -5.57117039698605       -1.50533247664166
C           11.40679529312134       -4.45973262977038       -1.00786678666607
C           13.46896906146646       -3.08528053714675       -1.00464411595604
C           14.84588914499390       -2.85633741838788       -1.40177456701703
C           15.27633061646416       -1.76648972192795       -0.70128094271053
C           14.16072599804354       -1.35233313389002        0.12754168516765
C           14.15744852473151       -0.24098771608157        0.95699929192763
H           15.02111452931127        0.40805764260671        0.91139336666162
C           10.11257711691089       -0.30576281867816        3.58281302413024
H            9.67211293840257        0.36004729929041        4.31399374177477
C            8.86389149338213       -4.44156899091228        1.45271456538046
H            8.07810094540779       -5.17138323075686        1.59913915292363
C           12.63416747095242       -4.06919364091263       -1.52833744498886
H           12.98770543773516       -4.59345987851273       -2.40886584592904
C           11.59144770068211        2.26585100129338        4.44901995313637
H           12.30830620368391        3.07302580277876        4.55708569328563
H           11.48182086114855        1.78139445131460        5.41667827174501
H           10.62979295324208        2.69591874564267        4.17686309050795
C           14.28063366596967        2.32352257822498        2.67521394666179
H           14.62647856573171        2.52536287047466        1.66528593218088
H           15.13144754494357        1.97114361197884        3.25670318290897
H           13.94409303812192        3.26060363183060        3.10863816138255
C            7.58850851152366       -1.25869406742569        5.12993634018682
H            7.86036311666789       -0.20961426514062        5.16523900849064
H            7.89083022704701       -1.70670353068540        6.07690433276798
H            6.50633857333815       -1.33190741801030        5.05364087323483
C            6.79960706794901       -4.01945823735487        3.75960158783418
H            6.42088389810709       -4.67598645368635        2.98562604684836
C            6.24103185938951       -4.08337024573909        4.96611757619371
H            6.59186801279984       -3.49074395074153        5.78720314851276
H            5.42723503072662       -4.75224267280352        5.18772942768298
C            8.39233736723095       -6.63075701721862       -0.67731774153289
H            7.49951506935721       -6.17512912224822       -0.25933380793852
H            8.60756852428531       -7.53294172172355       -0.10441463097380
H            8.17570447860160       -6.92133204566787       -1.70103375839114
C           10.90497048914873       -6.35175962126556       -2.68617910676313
H           11.53162347431007       -5.86708933315836       -3.42540141985263
C           10.50089956952722       -7.59541422364760       -2.93903687387542
H            9.90441258039420       -8.15592738545064       -2.24603172718557
H           10.76950149277987       -8.10450757530332       -3.84982663105716
C           15.63287189530340       -3.71426085694997       -2.33524056544345
H           15.40276913196548       -3.47571919728118       -3.37221252426072
H           15.40950707521175       -4.76492728835813       -2.17250304012517
H           16.69785061004486       -3.56743134414181       -2.18223075531382
C           16.63117352708325       -1.14035002704242       -0.70727071123792
H           17.18966843987929       -1.42098219103546       -1.59540017911420
H           17.20697166615367       -1.45233580538524        0.16403254192542
H           16.55992176587203       -0.05672693511940       -0.68431711525176
O           10.30941247117343       -0.66759584944295       -0.10290651233864
H           10.43863031503759        0.20762583676817        0.26861611518012
H            9.67546866462084       -0.73222090772134       -0.82534740329401
C           14.88519629021186       -6.25853152468212        3.67098506018816
H           14.43155906128941       -7.22750680011847        3.86815685840542
H           15.48734545944979       -5.98475737680354        4.53522967265149
H           15.53757990464872       -6.35077239152061        2.81153818722849
N           12.89576365999173       -4.88858124466599        4.32696151796238
H           12.79021849778992       -5.30640253025114        5.23881913803139
C           13.84550451183252       -5.23108862470973        3.40258784685373
C           12.11925998649342       -3.92462888845866        3.78099306940997
H           11.30067448406123       -3.46974213317467        4.29705555128355
N           12.51192163079282       -3.62785727158196        2.56422268899300
C           13.58780650168330       -4.43705695021317        2.31781772567393
H           14.09910620666758       -4.39778822132398        1.37922170282164
78
 energy: -116.046270141096 gnorm: 0.032381538857 xtb: 6.7.1 (edcfbbe)
Fe          11.44711548300017       -2.27586189038842        1.14107945644657
N           12.03585726075411       -0.61211176899892        2.09718184162734
N            9.80162928610582       -2.37073924790693        2.31868586676144
N           10.81974286893986       -3.89021865577815        0.10279223670721
N           13.10273807499065       -2.19826248701675       -0.02295896186026
C           13.16274627251882        0.10622053482782        1.85492117045296
C           13.18657024747592        1.30312083641359        2.67123612853110
C           12.04504735122035        1.28299205261369        3.41615276788270
C           11.33575221433297        0.07657111645674        3.03953254900176
C            9.44414280183768       -1.49085495283796        3.29277046456741
C            8.26920874343948       -1.95478484998832        3.99037337089060
C            7.91974528256556       -3.15351944040698        3.40865436190796
C            8.88397713177997       -3.36990902441566        2.33813508291522
C            9.71160877873582       -4.63251375558751        0.37055379524930
C            9.54721921332120       -5.67756253556750       -0.61434705454942
C           10.60214946946805       -5.55968601341923       -1.48941063536750
C           11.39837322436926       -4.44132782864296       -0.99711804660044
C           13.46395839055686       -3.08876265210090       -0.98328708132705
C           14.83407287736958       -2.85774847021304       -1.39592656892216
C           15.26643376042529       -1.76983270994553       -0.69507529393270
C           14.15960701536593       -1.36410408353714        0.14587773810487
C           14.16699978825318       -0.25395738725092        0.97327450948787
H           15.03383229968432        0.38912540224979        0.92990161995594
C           10.12827651219644       -0.31711811812880        3.58912793638343
H            9.69773452709217        0.33825399857190        4.33335501379455
C            8.85143800295416       -4.42780661840172        1.44386080609501
H            8.06359121870821       -5.15484570615207        1.58266921810960
C           12.63492463903391       -4.07254954197732       -1.50678719194831
H           13.00737325433408       -4.62152777839754       -2.36423040153556
C           11.58656746942560        2.25942037176682        4.44235135958012
H           12.30306766941663        3.06828688199610        4.55077162231726
H           11.47709812132253        1.77373148397769        5.41075723212999
H           10.62241346146865        2.68862797838744        4.17251528104561
C           14.27696294423491        2.31616348300814        2.67228905064192
H           14.61966533709511        2.52024935679859        1.66073421576490
H           15.12933846023218        1.96162725295936        3.25198822027796
H           13.93773252215594        3.25093085221973        3.11075961949756
C            7.59983455482425       -1.24856023339591        5.11695566987416
H            7.86074621056188       -0.19482860819059        5.13750010690438
H            7.90163684501453       -1.68243301733273        6.07197656674095
H            6.51805438373451       -1.33769352499480        5.03534884606308
C            6.82565522295640       -4.02209865463386        3.75473854589023
H            6.45514513301655       -4.66355149904753        2.96347006214396
C            6.24698848608379       -4.09990148772288        4.95269617764855
H            6.58827661473785       -3.52715720208656        5.79551668797202
H            5.41946557426596       -4.76071547563767        5.14612671728907
C            8.39624713340185       -6.61929820887712       -0.67090442515901
H            7.50205552890132       -6.16306640113711       -0.25434938314611
H            8.60801547289181       -7.52624281171022       -0.10273539358209
H            8.18737962165403       -6.90361754492153       -1.69912894335897
C           10.90526898718726       -6.33466026296382       -2.66441133884803
H           11.52815204675693       -5.83858414825164       -3.39933444318818
C           10.50583930015285       -7.57904461655024       -2.92499379190541
H            9.92856124034178       -8.16178613140759       -2.23019882614105
H           10.77206615946149       -8.07635128732634       -3.84224713986658
C           15.61351743082452       -3.70935139508520       -2.33949255862697
H           15.37909471959420       -3.47176899189206       -3.37672946920054
H           15.39345601229905       -4.76182925229226       -2.17630432526101
H           16.67993156067694       -3.56070777054091       -2.19079240590381
C           16.61521297895747       -1.13985023181262       -0.70851415774527
H           17.16937955583497       -1.42601910977159       -1.59817887963597
H           17.18951842311025       -1.45037093379562        0.16548326543056
H           16.54255503304490       -0.05522620019304       -0.68794030962431
O           10.39544977173567       -0.71211164023337       -0.17082959911545
H           10.39714675938634        0.16295063471154        0.26618202754083
H            9.65877698250550       -0.77262716239275       -0.81121402106262
C           14.87628567962812       -6.24970878292109        3.66195179611816
H           14.42206002336437       -7.21891792099823        3.86147630851539
H           15.47840250792221       -5.97559246325110        4.52702425247792
H           15.52984812017925       -6.34412050829993        2.80255502641081
N           12.89107387126508       -4.87671691371493        4.32142293347685
H           12.78780527141532       -5.29034556234032        5.23485423272038
C           13.83833788709011       -5.22089222121743        3.39307909519568
C           12.11288261601593       -3.91487331943318        3.77277355666684
H           11.29207099565743       -3.46055177689636        4.28593951915432
N           12.50390337274439       -3.62191677876667        2.55849761810244
C           13.57846351074274       -4.42706492973297        2.30962316195758
H           14.09172642387814       -4.38751173812880        1.37194593699245
78
 energy: -116.048784043790 gnorm: 0.016017398681 xtb: 6.7.1 (edcfbbe)
Fe          11.45294253409529       -2.27780529133914        1.14824357169783
N           12.04447193079880       -0.62671024282865        2.10319011897685
N            9.81989148526313       -2.37271087320585        2.31725636578062
N           10.80843194776012       -3.86711954119305        0.10977099695398
N           13.10174910678396       -2.21237037643879        0.01025058358041
C           13.17176476606795        0.09260648467056        1.86585415417813
C           13.18884886524821        1.29168214690133        2.67363431965884
C           12.04804956324440        1.27268870360943        3.41460766703293
C           11.34616878657463        0.06424950812391        3.04481400939239
C            9.46681721743784       -1.49645160725742        3.29706292454124
C            8.29840194522574       -1.95547418477517        3.99596264992973
C            7.94716804382214       -3.15184853761433        3.41642619022588
C            8.89225421317704       -3.36421200682547        2.33617396034614
C            9.70061420825293       -4.61034755670236        0.37329964020445
C            9.54602356697210       -5.66173801290186       -0.59697931395188
C           10.60326885737144       -5.54537117820689       -1.46459899160680
C           11.39324183202720       -4.42541221780335       -0.97930618198645
C           13.45758861827347       -3.09716659465341       -0.95624911113932
C           14.81902206637918       -2.85946327985017       -1.38604527722395
C           15.25412384113150       -1.77592062012320       -0.68672755151153
C           14.15936171239755       -1.37746026267553        0.16947639309266
C           14.18170815683396       -0.26942395909762        0.99490025191782
H           15.05434462126148        0.36482998644467        0.95631239614765
C           10.14864335230084       -0.33006988411639        3.60375731049042
H            9.73084133702782        0.31164283202790        4.36547286981030
C            8.83804728947668       -4.41347293458006        1.43828166560401
H            8.04565123688765       -5.13581538341712        1.56724429396613
C           12.63791291735999       -4.08189099953942       -1.47722166302390
H           13.02650115951196       -4.65424537428609       -2.31054322552372
C           11.57983705001064        2.25166398183782        4.43646051989305
H           12.29493795067552        3.06484299601568        4.54427172734935
H           11.47052551869399        1.76475806403995        5.40697376139675
H           10.61242571138256        2.67717268067853        4.16366830740508
C           14.27654029546775        2.30938476110500        2.66878490955482
H           14.61062418124525        2.51654341621506        1.65287397593692
H           15.13397932531742        1.95218958792971        3.24305135933319
H           13.93338870901900        3.24180769725163        3.11393417764316
C            7.61424342022875       -1.23939417721378        5.10753488007906
H            7.85702431670384       -0.17776455803972        5.10454118040420
H            7.91788661074227       -1.65050611146718        6.07447411694844
H            6.53271755311376       -1.35101576912668        5.01752877465613
C            6.84658214850223       -4.02350278837701        3.74524668646224
H            6.48927428115679       -4.65353384342392        2.93727237913034
C            6.25157675739314       -4.11984545437944        4.93441690869223
H            6.58451439951932       -3.56789731645470        5.79904117682718
H            5.41824597620207       -4.78444259501893        5.09751806195141
C            8.39754330231798       -6.60589288973003       -0.66312098705880
H            7.49957940411427       -6.15105966023506       -0.24770763709460
H            8.60745823247454       -7.51854337496232       -0.10033347629507
H            8.19907596652689       -6.88183193961895       -1.69824435608372
C           10.91001436261425       -6.31625953273387       -2.64245609946952
H           11.51985368871228       -5.80412287758928       -3.37897458799741
C           10.51968691474740       -7.56223399887304       -2.90641865787501
H            9.95508823343744       -8.16163740272017       -2.21136839343053
H           10.77799961542532       -8.04363280188380       -3.83582375581693
C           15.58705516775024       -3.70314263842898       -2.34773224793138
H           15.33857730809765       -3.46137738937047       -3.38276585754794
H           15.37097394815643       -4.75911814651232       -2.18565313636669
H           16.65687113896877       -3.55085472853422       -2.21028601075524
C           16.59896486943695       -1.13589623101724       -0.71203202321269
H           17.14805666405216       -1.42894719065950       -1.60455868086498
H           17.17515764780234       -1.44010843684628        0.16531418452219
H           16.51849002061974       -0.04982820950607       -0.69931009762976
O           10.38717096971473       -0.77530428732499       -0.17803784661345
H           10.41455273787928        0.09576575705304        0.21311859570447
H            9.67800029705128       -0.81816803034792       -0.82166741410181
C           14.86604407454836       -6.23542587101075        3.64807997583143