78
 energy: -115.933031782135 gnorm: 0.322305256385 xtb: 6.7.1 (edcfbbe)
Fe          -5.64200000000000       -6.22200000000000        6.96000000000000
N           -5.53400000000000       -7.91500000000000        5.82400000000000
N           -4.96200000000000       -5.19700000000000        5.31800000000000
N           -5.52500000000000       -4.52600000000000        8.08100000000000
N           -6.05100000000000       -7.35300000000000        8.63500000000000
C           -5.87300000000000       -9.20900000000000        6.24800000000000
C           -5.76700000000000      -10.16900000000000        5.16900000000000
C           -5.39200000000000       -9.46600000000000        3.98700000000000
C           -5.26300000000000       -8.07700000000000        4.51900000000000
C           -4.79500000000000       -5.66100000000000        4.07500000000000
C           -4.36000000000000       -4.63200000000000        3.13700000000000
C           -4.36700000000000       -3.46000000000000        3.98000000000000
C           -4.62900000000000       -3.80800000000000        5.36200000000000
C           -5.17700000000000       -3.30100000000000        7.69900000000000
C           -5.05900000000000       -2.29200000000000        8.76000000000000
C           -5.42700000000000       -3.07200000000000        9.88000000000000
C           -5.67500000000000       -4.41600000000000        9.39200000000000
C           -6.38200000000000       -6.72200000000000        9.87600000000000
C           -6.50700000000000       -7.86700000000000       10.76800000000000
C           -6.50900000000000       -9.10200000000000       10.06900000000000
C           -6.30400000000000       -8.68500000000000        8.68100000000000
C           -6.20000000000000       -9.57700000000000        7.60800000000000
H           -6.38000000000000      -10.63200000000000        7.81300000000000
C           -4.92400000000000       -7.02200000000000        3.62400000000000
H           -4.75800000000000       -7.25100000000000        2.57200000000000
C           -4.87900000000000       -2.88300000000000        6.39800000000000
H           -4.83900000000000       -1.81700000000000        6.17900000000000
C           -6.01900000000000       -5.46700000000000       10.31300000000000
H           -5.99200000000000       -5.26500000000000       11.38300000000000
C           -5.14600000000000       -9.93900000000000        2.64600000000000
H           -5.29300000000000      -11.04000000000000        2.60800000000000
H           -4.10100000000000       -9.70400000000000        2.35100000000000
H           -5.85700000000000       -9.45600000000000        1.94200000000000
C           -6.06700000000000      -11.62200000000000        5.31300000000000
H           -7.05800000000000      -11.75000000000000        5.80000000000000
H           -5.29100000000000      -12.10500000000000        5.94400000000000
H           -6.09400000000000      -12.10100000000000        4.31100000000000
C           -4.06900000000000       -4.76400000000000        1.70000000000000
H           -4.81800000000000       -5.43700000000000        1.23000000000000
H           -3.05600000000000       -5.19900000000000        1.56100000000000
H           -4.12500000000000       -3.76700000000000        1.21300000000000
C           -3.93900000000000       -2.07100000000000        3.64400000000000
H           -4.35100000000000       -1.24800000000000        4.24400000000000
C           -3.10700000000000       -1.72200000000000        2.69000000000000
H           -2.64900000000000       -2.48400000000000        2.04200000000000
H           -2.85800000000000       -0.66300000000000        2.52600000000000
C           -4.66000000000000       -0.87000000000000        8.63700000000000
H           -5.56200000000000       -0.24500000000000        8.46200000000000
H           -3.96500000000000       -0.74800000000000        7.77900000000000
H           -4.16700000000000       -0.53600000000000        9.57500000000000
C           -5.46800000000000       -2.67600000000000       11.33300000000000
H           -5.86500000000000       -3.39600000000000       12.06400000000000
C           -5.07000000000000       -1.54500000000000       11.79700000000000
H           -4.81600000000000       -0.72000000000000       11.11500000000000
H           -4.97800000000000       -1.38800000000000       12.88200000000000
C           -6.75000000000000       -7.68500000000000       12.30600000000000
H           -7.59600000000000       -6.98300000000000       12.46700000000000
H           -5.83800000000000       -7.26600000000000       12.78300000000000
H           -7.00200000000000       -8.66500000000000       12.76500000000000
C           -6.69300000000000      -10.46800000000000       10.58000000000000
H           -7.77300000000000      -10.72800000000000       10.56300000000000
H           -6.32400000000000      -10.53000000000000       11.62600000000000
H           -6.13900000000000      -11.18600000000000        9.93900000000000
O           -3.66000000000000       -6.59600000000000        7.50700000000000
H           -3.12200000000000       -6.28300000000000        6.78000000000000
H           -3.36400000000000       -6.96900000000000        8.25800000000000
C          -11.04900000000000       -4.56500000000000        6.11800000000000
H          -11.77800000000000       -5.13300000000000        6.73400000000000
H          -11.44500000000000       -4.47400000000000        5.08400000000000
H          -10.91100000000000       -3.55600000000000        6.56200000000000
N           -9.63000000000000       -6.58100000000000        5.60000000000000
H          -10.37800000000000       -7.11300000000000        5.20200000000000
C           -9.74600000000000       -5.28800000000000        6.09600000000000
C           -8.36900000000000       -6.97600000000000        5.74700000000000
H           -7.99200000000000       -7.95000000000000        5.43600000000000
N           -7.67800000000000       -6.00700000000000        6.31900000000000
C           -8.53300000000000       -4.94700000000000        6.57600000000000
H           -8.18700000000000       -4.05200000000000        7.07800000000000
78
 energy: -116.011382652580 gnorm: 0.137121881919 xtb: 6.7.1 (edcfbbe)
Fe          -5.64392773375550       -6.22778631234241        6.94326554082154
N           -5.54372947953779       -7.93619993455175        5.82550321042711
N           -4.95604520628190       -5.19609530040497        5.33098501057351
N           -5.52693597222217       -4.52433988709708        8.08821166860230
N           -6.10831888860003       -7.32351574963942        8.60198366662112
C           -5.86453290485629       -9.20857336364240        6.26548739738712
C           -5.77221017101814      -10.15365988952732        5.17507939221650
C           -5.39711144276265       -9.45134282875533        4.03754118694725
C           -5.26836469527504       -8.06301959229960        4.50939557776308
C           -4.78314496480775       -5.66007977162578        4.07946940942862
C           -4.36684004841162       -4.60522244217710        3.16970709102887
C           -4.34161861421431       -3.45118289335846        3.96692094762506
C           -4.69226589686382       -3.81822296633752        5.31997625430992
C           -5.17172320360817       -3.29043246542018        7.68072272915032
C           -5.07760154793352       -2.32416929708977        8.77214006157169
C           -5.42933623948117       -3.07483408882349        9.89403142505158
C           -5.68729449788452       -4.42342082769808        9.41873331860748
C           -6.30836034138137       -6.77330716328869        9.88203248758085
C           -6.53166198218351       -7.88353129901511       10.78987859352291
C           -6.51605248731482       -9.06515863447128       10.07110849216035
C           -6.28230829346552       -8.66742725583596        8.68070836896015
C           -6.18801082663207       -9.55359119523715        7.60049756145644
H           -6.37407675711074      -10.60565774370768        7.80425136394302
C           -4.92596870268965       -7.00660510008464        3.65151647108580
H           -4.75981688838438       -7.23645464167527        2.60323265230303
C           -4.88395444152753       -2.91227844777733        6.36966326807748
H           -4.81519105746108       -1.84865118221695        6.16778159228419
C           -6.01569697374440       -5.48283588491161       10.29468120111970
H           -6.01214230516937       -5.27183811709772       11.35791769247219
C           -5.14922502390439       -9.93449360258523        2.66571954272864
H           -5.28943912052179      -11.02237265241144        2.60545081068319
H           -4.12006106438333       -9.70795852901157        2.34975181725432
H           -5.84042193116611       -9.46397140048625        1.94947953091887
C           -6.06753250234900      -11.61173912499470        5.31108011944501
H           -7.04415129195886      -11.75560252330940        5.79268663672458
H           -5.30507878685785      -12.10267129009726        5.93152485360464
H           -6.09183267445895      -12.09817489430632        4.32872130536533
C           -4.07789178781769       -4.75711035677279        1.71897910555014
H           -4.80585600864599       -5.42621261698752        1.23779075786119
H           -3.07591103430983       -5.18755035140372        1.56215794805945
H           -4.12460682307610       -3.78401130473130        1.21637247865458
C           -3.94442222717341       -2.07884946798378        3.63425044260236
H           -4.35585449792198       -1.27399194364450        4.24590650348953
C           -3.10242448851868       -1.72265782119797        2.67732798760800
H           -2.63581280916729       -2.46532908447614        2.04234881180596
H           -2.85284746119079       -0.67861760113848        2.51728476844523
C           -4.66980392888601       -0.89391988827426        8.63334046666880
H           -5.54844661712200       -0.25278744514939        8.46458124853740
H           -3.97825961856302       -0.75255893825698        7.79270099610884
H           -4.16609475850474       -0.54109047720146        9.54037308783674
C           -5.47210640282171       -2.68788667647110       11.31612303902549
H           -5.84752957871146       -3.41568158856073       12.03595311578202
C           -5.07054576036891       -1.52934899910954       11.80421724099226
H           -4.80122074159866       -0.71372231822762       11.15067334788199
H           -4.99444049159629       -1.37071548115747       12.87448330951226
C           -6.75215400438038       -7.69399929392474       12.28904060588304
H           -7.58145853436580       -6.99620314349920       12.45997866625182
H           -5.85449547541278       -7.28004350100282       12.76900331250085
H           -6.99814201132923       -8.65055490498157       12.75965040109647
C           -6.69308275945467      -10.45136756199257       10.57632384470793
H           -7.75758642176316      -10.72994583271646       10.56434957746681
H           -6.33160160372683      -10.53451080172648       11.60914858610295
H           -6.14733262581642      -11.17336035358697        9.95438545950199
O           -3.65556050103264       -6.58239195226593        7.49020621848442
H           -3.08949054220931       -6.28593883497547        6.78006560692655
H           -3.33642324220540       -6.98145690378105        8.27795044105926
C          -11.05250006093299       -4.56780198808088        6.11768223655133
H          -11.77879054912230       -5.12121470514821        6.72543704091602
H          -11.44732435568027       -4.46965522577352        5.09894307827127
H          -10.91526645156056       -3.57237143278523        6.55163278742331
N           -9.63852764024632       -6.57062553834622        5.59841789572804
H          -10.38672962059571       -7.10795186932991        5.19676265125088
C           -9.75542885812142       -5.29253281217797        6.10196133808667
C           -8.36467467928719       -6.96244894235209        5.75515111093814
H           -7.99266832836364       -7.92674177669097        5.44472232005807
N           -7.66662207061183       -6.01305237211140        6.33793247902384
C           -8.52361233946698       -4.96159501202628        6.57030715305361
H           -8.18246732814051       -4.06877458666702        7.06424428247079
78
 energy: -116.035573807828 gnorm: 0.035473145236 xtb: 6.7.1 (edcfbbe)
Fe          -5.64986563934263       -6.23277276026733        6.94223970981778
N           -5.55138663001025       -7.94536221234364        5.83746259190577
N           -4.98905480868277       -5.18563867330538        5.33943338008417
N           -5.53601781155792       -4.52311318696944        8.09472592043815
N           -6.11796468300712       -7.30200553745016        8.59492162710764
C           -5.85933099063612       -9.19728467205308        6.28343965180293
C           -5.77419004843805      -10.13835395665397        5.18281351021961
C           -5.40319693284875       -9.43399486552705        4.07915758287006
C           -5.27217195263850       -8.04857663980665        4.51085059785994
C           -4.78414528559174       -5.65866524566803        4.08287362243227
C           -4.37139160533441       -4.58904054427245        3.19590473994028
C           -4.33648933876571       -3.44941587733030        3.95767290754331
C           -4.74609729241804       -3.83705106692328        5.29460761309160
C           -5.17620018127202       -3.28496251256920        7.66873433480369
C           -5.09276884824877       -2.35177943700520        8.77539574158506
C           -5.42902922523498       -3.07530112511802        9.90097135870692
C           -5.69870001506836       -4.43103104009348        9.43634620502205
C           -6.26581081036399       -6.80714578785628        9.86808597918187
C           -6.52777403768134       -7.89050578098905       10.79315739085560
C           -6.51626646468214       -9.03810032673107       10.06432489085081
C           -6.27202560899836       -8.64774249638342        8.67880880874074
C           -6.18394144319677       -9.52552703600511        7.59469837173461
H           -6.36678857911513      -10.57495774776074        7.79797720418423
C           -4.92670936949067       -6.99113834087073        3.68289933407438
H           -4.75599133222282       -7.22166655033082        2.63900935553831
C           -4.88782345814360       -2.94782801090839        6.35068756898129
H           -4.77465797003212       -1.88870009196426        6.15569414980542
C           -6.03153134297762       -5.49560382831651       10.26533734472810
H           -6.05037007434060       -5.29043315257088       11.32678243737778
C           -5.15431569464551       -9.92602941013773        2.68752432346251
H           -5.29047809701324      -11.00454485268819        2.61968646622955
H           -4.13529165712105       -9.70163800875890        2.36621055795731
H           -5.83425521741509       -9.45955097780936        1.97070104400188
C           -6.06664467509669      -11.60009298587116        5.31113693162720
H           -7.03476311525510      -11.75381321038409        5.78790658652069
H           -5.31124450747775      -12.09416722089671        5.92380598462988
H           -6.08678355710032      -12.08678076442164        4.33911286945663
C           -4.08294320392782       -4.75295568257715        1.73712129180180
H           -4.80252025030176       -5.42020704269649        1.26112506442825
H           -3.08795498680100       -5.17771174846112        1.57533154431419
H           -4.12941177539976       -3.79317976707684        1.22830016417490
C           -3.94951678492379       -2.09440472324023        3.62542072306590
H           -4.36676456575330       -1.30663025527985        4.24366818606846
C           -3.09848638230926       -1.73062536911219        2.66917378029140
H           -2.61727735888376       -2.45381488648204        2.03970389385752
H           -2.85412995354725       -0.69511098972627        2.50679030997191
C           -4.67834259870497       -0.91831808693770        8.62658655974578
H           -5.54576277131969       -0.27243292244489        8.46630744515135
H           -3.99667455730926       -0.77900751146720        7.78954213888527
H           -4.16047130875677       -0.55862139429738        9.51142947138875
C           -5.46495744498550       -2.69178892881614       11.29484996056481
H           -5.81898293381929       -3.43510955460830       11.99950944171707
C           -5.07541221088703       -1.52328849806765       11.80905188777292
H           -4.78323006062834       -0.70390543048043       11.18854022908408
H           -5.03317250665050       -1.36428731384498       12.87213224185037
C           -6.75081627709522       -7.70291006827599       12.26000394101477
H           -7.57121720831881       -7.00843977636583       12.44144744010531
H           -5.86289115880123       -7.29231288964812       12.74392354326172
H           -6.99366118678469       -8.64468166468957       12.74366672397370
C           -6.69581722295643      -10.43697566670064       10.56671268978872
H           -7.75037621858919      -10.72296709663054       10.55917093381160
H           -6.33576737531840      -10.52745040301809       11.59070621477424
H           -6.15170421963655      -11.15494359619835        9.95563624692421
O           -3.63848752784409       -6.56634777436502        7.48317901858634
H           -3.02952458241867       -6.30006134189449        6.79308307198018
H           -3.30133160681759       -6.98835229218624        8.27360453988979
C          -11.05303095547785       -4.56793519788202        6.11907455969990
H          -11.78237067893710       -5.11037918429622        6.71907432234414
H          -11.44703260423992       -4.46571993385273        5.10924905867962
H          -10.91677343490658       -3.58053918536612        6.54556683962625
N           -9.64221300343914       -6.56131794771948        5.59919157480139
H          -10.38896406687208       -7.10162230127331        5.19270184174814
C           -9.75921761195429       -5.29561217094320        6.11058346723597
C           -8.36058085895988       -6.95241371936377        5.76489803655415
H           -7.99325248391626       -7.90843897265861        5.45340695548334
N           -7.65553413048835       -6.01538413405476        6.34934396358999
C           -8.51353712091318       -4.97542456554471        6.57122624728806
H           -8.17641850893957       -4.08105407644345        7.05386573953397
78
 energy: -116.041927542715 gnorm: 0.025470719874 xtb: 6.7.1 (edcfbbe)
Fe          -5.64054441835336       -6.22969368851243        6.94627825597034
N           -5.55627105657716       -7.93569458064988        5.85180931073568
N           -5.02053595124158       -5.17974791711780        5.33889662757718
N           -5.55324031013245       -4.52445657236414        8.09213549368072
N           -6.12510733061460       -7.29203721051160        8.58690256967619
C           -5.85895820636393       -9.18418715280656        6.29335776179051
C           -5.77605440832426      -10.12996523518300        5.19510804331292
C           -5.40557295396329       -9.42007394522556        4.09763016658088
C           -5.27717467685395       -8.03874808594719        4.52380320052304
C           -4.79630958815235       -5.65923266278385        4.08417205553230
C           -4.37637896026451       -4.59409008118633        3.20220322009414
C           -4.34578003367547       -3.45144878712241        3.95506647842589
C           -4.78624100558624       -3.84292532702644        5.28646438927481
C           -5.19362116827462       -3.28728015694177        7.66061300148359
C           -5.10144806639003       -2.36409353438095        8.76596499770510
C           -5.42650192627041       -3.07744006679500        9.89707510450757
C           -5.70730863941358       -4.43433863870036        9.43591754238721
C           -6.24945459907975       -6.81078649070358        9.85447306822381
C           -6.52618569129011       -7.88821017992822       10.78087970212291
C           -6.52199838057414       -9.03283168884101       10.04777216785575
C           -6.27600688155344       -8.63939549112049        8.67069483092031
C           -6.18367142749326       -9.51582062748137        7.59625124293019
H           -6.36361568602945      -10.56267865552568        7.80047330772981
C           -4.92991579913701       -6.98612897660412        3.69831838962570
H           -4.74289723979510       -7.21956718050295        2.65976273578590
C           -4.90147355562828       -2.96103425802570        6.34394490529131
H           -4.72549945729282       -1.90841551796313        6.14954710983809
C           -6.03860516450371       -5.49956331384242       10.25325157929874
H           -6.10309135357567       -5.29911784990959       11.31497238135648
C           -5.15691370881447       -9.91162265047434        2.70502279279975
H           -5.29389186195387      -10.98868367503166        2.64161608215109
H           -4.13868637917704       -9.68396885052790        2.38996754473113
H           -5.83775989835664       -9.44128597434925        1.99487884066455
C           -6.06509463754868      -11.59082184405262        5.31818501355294
H           -7.03358733151649      -11.74967967963538        5.79099308771065
H           -5.30828108404541      -12.08371860935354        5.92838223339278
H           -6.07943016113580      -12.07099545032840        4.34336291223092
C           -4.08733635103883       -4.75796979034780        1.74620959783737
H           -4.80729960030992       -5.42965922022193        1.28135742354529
H           -3.09067240454603       -5.17480014632276        1.59007516427934
H           -4.14102806859145       -3.79780418180071        1.24005364612745
C           -3.95508968916743       -2.10397366795986        3.61375003502377
H           -4.38635426103110       -1.32274352163607        4.22734657631843
C           -3.09780755799910       -1.74031534882647        2.66178803576245
H           -2.58894171609717       -2.45718332165263        2.04355907487265
H           -2.85862054701626       -0.70460630478836        2.49383442826160
C           -4.68360279839413       -0.93627209989092        8.61088202936648
H           -5.55307944305575       -0.29159541593019        8.46733574966522
H           -4.02120189370544       -0.81284959411521        7.75732743282608
H           -4.14278974751983       -0.58280220517290        9.48383441138557
C           -5.45402610014081       -2.69431975967576       11.28605845371599
H           -5.78596526654039       -3.46348234727502       11.97451005283793
C           -5.08907365130557       -1.52563467237928       11.82284373696976
H           -4.76954348598227       -0.69060638085157       11.23045514990791
H           -5.10007253727620       -1.36904272936515       12.88992042708278
C           -6.74728748378937       -7.70708944461127       12.24301022261591
H           -7.56814335066224       -7.01278620877546       12.42141021958988
H           -5.85740859092629       -7.29957862953478       12.72497765125816
H           -6.99160628976655       -8.65105072944859       12.72251743896715
C           -6.70190136024986      -10.43083004095928       10.54952466030885
H           -7.75493784883203      -10.71605769211169       10.54071280121951
H           -6.34151955890372      -10.51535718495643       11.57315340706272
H           -6.15212025675083      -11.14277789839819        9.93941260413146
O           -3.59347022592475       -6.53247569659750        7.48583811603289
H           -2.94978301802656       -6.32613678532312        6.79860838033875
H           -3.25466563966056       -6.99864760285877        8.25573782086433
C          -11.04698852824177       -4.56307553390240        6.12232344088931
H          -11.78567052104533       -5.09960861830321        6.71729802990207
H          -11.43723045234657       -4.46038768719961        5.11093311005629
H          -10.91138646153274       -3.57488971474866        6.54644248819558
N           -9.63806594638717       -6.55664762023410        5.60593844023342
H          -10.38261140124775       -7.09284219809513        5.18960538238679
C           -9.75389202283185       -5.29409833743920        6.12222075472455
C           -8.35758011298229       -6.95251899779981        5.77905347287993
H           -7.99154261990989       -7.90528703126832        5.46165658573412
N           -7.65147087940533       -6.02257953789931        6.37364349798675
C           -8.50575675539076       -4.98053942718056        6.58556857975473
H           -8.16734655651569       -4.08229606668496        7.05812332161081
78
 energy: -116.045393858683 gnorm: 0.035648414125 xtb: 6.7.1 (edcfbbe)
Fe          -5.63797123795028       -6.22445063383117        6.94961201556835
N           -5.55210679754782       -7.92189780469569        5.86911027047882
N           -5.05100808135167       -5.17633312742211        5.33878755819664
N           -5.56698016781121       -4.53059397743442        8.08633712020519
N           -6.11105855676360       -7.28547652121166        8.58067306107432
C           -5.85550587155687       -9.17114441685889        6.30243980960985
C           -5.77520601364500      -10.12073763747090        5.20945826930283
C           -5.40541828385870       -9.40632479353184        4.11281047974780
C           -5.27719564416187       -8.03059507241811        4.54054364217218
C           -4.81045959176127       -5.66007727052429        4.08660276865179
C           -4.38317689087173       -4.60217306623315        3.20629046685041
C           -4.36350682848583       -3.45423045452480        3.95383140492737
C           -4.81462317649416       -3.84647118414504        5.28209065254966
C           -5.20462681744054       -3.29466245416801        7.65370309678278
C           -5.10488679280275       -2.37491580429412        8.75575918985192
C           -5.42240504512951       -3.08284877666828        9.89021732544536
C           -5.71684065839224       -4.43809201825270        9.43036300440634
C           -6.23865701242977       -6.81031367628044        9.84060260227849
C           -6.52036630019610       -7.88440095395170       10.76685855588380
C           -6.52572240329690       -9.02940226195035       10.03163213873543
C           -6.27331461153561       -8.63307013107173        8.66341751724077
C           -6.18369491523167       -9.51165912284916        7.60037582369161
H           -6.36575648959751      -10.55600060512625        7.80411636738182
C           -4.92984132548371       -6.98501025398728        3.70932692090698
H           -4.72536482172296       -7.22356633961781        2.67606519919028
C           -4.90301912236017       -2.96999477576919        6.34218752982548
H           -4.68379723290810       -1.92956122027166        6.14155208715360
C           -6.05882062716968       -5.49882441225000       10.24444704127382
H           -6.16075838827113       -5.30830261180871       11.30456320645602
C           -5.15883940152804       -9.89322058027989        2.72190352289963
H           -5.29738445600561      -10.96966047072022        2.66073270310242
H           -4.14028938975712       -9.66315451861044        2.41177540038810
H           -5.84134111283736       -9.41780426533158        2.01802049366560
C           -6.06156134571436      -11.57953936834771        5.32877996821195
H           -7.03156808458730      -11.74416409184158        5.79698242731194
H           -5.30427584945469      -12.07260138241045        5.93848312614455
H           -6.07049536558267      -12.05384341868460        4.35032914848914
C           -4.09146687017251       -4.76565572089635        1.75462329968247
H           -4.80761688057411       -5.44589104195544        1.29720100148887
H           -3.09098611721726       -5.17156000806188        1.60113549095314
H           -4.15588353069351       -3.80498903884218        1.24963515975035
C           -3.96742856801065       -2.11279485089276        3.59945950866970
H           -4.42020341291166       -1.33157738786264        4.19741848537580
C           -3.09659919347179       -1.75538009135915        2.65789032865894
H           -2.56472001995481       -2.46841253642735        2.05123582301200
H           -2.86657435216588       -0.71833570876840        2.47701022251365
C           -4.68702878584945       -0.95213183416404        8.59946447856813
H           -5.55874573585540       -0.30663668758585        8.47789219522992
H           -4.04863572735884       -0.83553401813731        7.72602160156644
H           -4.12273841950671       -0.60915913062252        9.46155052943615
C           -5.44605675896809       -2.69763352695811       11.27853084515742
H           -5.76498735095436       -3.48542461279431       11.95175501535776
C           -5.11325781218533       -1.52940615595917       11.83328955383258
H           -4.78454480456034       -0.67395761914389       11.27074245213559
H           -5.15737085676225       -1.38447277624080       12.90162603603296
C           -6.74377983241950       -7.70964487033910       12.22893790503290
H           -7.56626725596338       -7.01685246244335       12.40700165601529
H           -5.85271903378527       -7.30602243220738       12.71143748071274
H           -6.98961058429669       -8.65803559872245       12.70011909618180
C           -6.71193727585363      -10.42476911683105       10.52931326488576
H           -7.76440630693109      -10.70938682861919       10.51293765686796
H           -6.35592365607108      -10.50729738021688       11.55478109285234
H           -6.15597747415973      -11.13286143711789        9.92054568499383
O           -3.53655269883533       -6.45287590523343        7.50405327684846
H           -2.86661744936408       -6.38119287487501        6.79045068538891
H           -3.19804409344148       -7.03430920573513        8.21353128531618
C          -11.03773292051734       -4.55264344779111        6.12552487726021