78
 energy: -116.058066663768 gnorm: 0.000069344837 xtb: 6.7.1 (edcfbbe)
Fe          -5.45351460651430       -6.26327233968354        6.97449545891027
N           -5.46756607831909       -7.95049814054850        5.87699406981398
N           -4.98127428199779       -5.20853149093699        5.34990830609989
N           -5.36381427135025       -4.61714753968306        8.09485604591018
N           -5.89610727949631       -7.34961910261925        8.61139393317957
C           -5.72013978931540       -9.21585127095577        6.31123956070724
C           -5.65672125132110      -10.15479560680055        5.21453369102364
C           -5.37246253392705       -9.42439211155404        4.10220253979490
C           -5.26232938745693       -8.04981989740899        4.53492867469316
C           -4.85405231444955       -5.67332855160530        4.07827962917177
C           -4.53837034967704       -4.60085922719689        3.16784263676396
C           -4.46911062889366       -3.46256646624667        3.92490632080645
C           -4.75810237636712       -3.87215977199732        5.28708395131082
C           -5.04865842888858       -3.36401543214943        7.67085948974042
C           -5.07783298891514       -2.42754145223396        8.76649456087653
C           -5.43528052472193       -3.14620431335493        9.87558719649267
C           -5.60039386227795       -4.51639175963419        9.42665686302416
C           -6.11497508476427       -6.87366273621237        9.86687559695141
C           -6.48335854943498       -7.94596445626271       10.76253949973833
C           -6.47966903585086       -9.08538231038784       10.01823595599787
C           -6.11717740486027       -8.69187464780909        8.67617168151206
C           -6.01952806948082       -9.57258295081370        7.61407429612952
H           -6.21029856990112      -10.61607985000887        7.81322947133338
C           -4.98147233969193       -6.99544533283574        3.68950740041945
H           -4.84053994979195       -7.22411892794449        2.64428352144513
C           -4.76744381632908       -3.00755323346511        6.36392373253726
H           -4.54302884445711       -1.96954527126112        6.17111107731569
C           -5.97832595540367       -5.55507696330862       10.25647988604771
H           -6.17778024281380       -5.32249406479577       11.29119861528196
C           -5.19406601879050       -9.87957713180415        2.69452027958202
H           -5.31524425890488      -10.95733526621971        2.61735562570245
H           -4.20002657491952       -9.61898611513006        2.33049770064651
H           -5.92737291417859       -9.40429366337398        2.04254850172201
C           -5.87363870481827      -11.62325676490283        5.35099328278953
H           -6.87807722210579      -11.83140357686094        5.72126598058830
H           -5.15973476756689      -12.05357351150536        6.05379542656762
H           -5.75306897125726      -12.12232775798246        4.39272464662243
C           -4.39545110895697       -4.74218036407402        1.69255029525900
H           -5.11854481556987       -5.45662812084138        1.30170439955225
H           -3.39655040591750       -5.09457012068710        1.43016553302918
H           -4.55835084360332       -3.78142219484572        1.20835898181056
C           -4.20100777643287       -2.10282547231805        3.51186918244111
H           -4.71700336261551       -1.33217432026785        4.07319575591684
C           -3.38421910388850       -1.74211308212860        2.52733057771328
H           -2.80829318285607       -2.45919108660944        1.96909802119132
H           -3.24149224356592       -0.70697084056222        2.26448522047118
C           -4.71025682618912       -0.98786728381367        8.67312645144833
H           -5.54892648255862       -0.39327270211790        8.30641723252736
H           -3.87338478967112       -0.84884235501241        7.99050143028215
H           -4.42609281074269       -0.61141600510582        9.65368547409970
C           -5.59365186650805       -2.70133982100202       11.24233738437724
H           -5.31966018944327       -3.42215655891908       12.00408350415294
C           -6.04447699934950       -1.50890399410014       11.61864725532844
H           -6.37526075817382       -0.77114622657791       10.90870609138724
H           -6.12254582459209       -1.23864607840188       12.65876850868935
C           -6.78719956710294       -7.76524075592461       12.21009067655899
H           -7.60925291830953       -7.06190841780136       12.34355106347566
H           -5.91796400737967       -7.37197996615188       12.73803333180054
H           -7.06645934344970       -8.71073842478715       12.66869237926387
C           -6.77858459985074      -10.48578172669423       10.43256431117019
H           -7.62366674267962      -10.88242926824478        9.86890959213082
H           -7.02209648189833      -10.53175815331861       11.49107471598280
H           -5.91935176781355      -11.13198726403342       10.25064552053547
O           -3.25530778533439       -6.74235792495053        7.41489877233998
H           -3.12899733518760       -7.48559416996649        6.81493220010439
H           -3.34658145018775       -7.10719354391553        8.30192050197495
C          -10.45831589674857       -4.09873630974433        5.81680806912121
H          -11.20069671623993       -4.07843817823037        6.61456296473884
H          -10.95333698890512       -4.41392217410639        4.89832069901536
H          -10.07104638995345       -3.09455612328424        5.67631918170579
N           -9.53509036865185       -6.35479959079400        6.39047048422831
H          -10.41832007392765       -6.83687667478264        6.35798631832767
C           -9.34331695095044       -5.01812137653694        6.15743088060558
C           -8.32959699678859       -6.89882300806980        6.67108144271170
H           -8.17564994046357       -7.93391362135985        6.89554942569318
N           -7.38713131575178       -5.98879350765175        6.62981595274043
C           -8.00210287308243       -4.81353552176616        6.31140279251527
H           -7.44220584952181       -3.90631866296576        6.21531231631940
