78
 energy: -116.057559924160 gnorm: 0.000073889104 xtb: 6.7.1 (edcfbbe)
Fe          18.52794699874366       23.50034023354759       29.81425178312283
N           17.26533147585825       22.16765335271939       28.98432856544955
N           17.20108075897998       24.95333604483590       29.49621073139546
N           19.74371806520512       24.78306186985839       30.72759962326662
N           19.84806804296104       22.01798021730519       30.13858483628188
C           17.49398956524675       20.84401344381908       28.76753622484758
C           16.35061942698378       20.22507947692993       28.13643880663068
C           15.42439929014015       21.20835271983638       27.97184439343778
C           16.01756541436448       22.41681992340815       28.49730312344791
C           15.97194418243041       24.83261008127739       28.92650437280560
C           15.32981401518430       26.11683107926233       28.81941280471249
C           16.21885646716131       27.03484173835316       29.30879274504568
C           17.37134277179578       26.27475411101118       29.75427259529383
C           19.52009319796523       26.10981544414578       30.92515486630636
C           20.59843602520342       26.70694678039224       31.67301648495580
C           21.49863478709701       25.70445541600663       31.91632243548687
C           20.93522713171816       24.50943211791409       31.31554934167562
C           21.06808697561536       22.13068559428049       30.72988234957626
C           21.76860906971363       20.86687775700021       30.70090168542517
C           20.94217457857060       19.98632097943347       30.07411257423296
C           19.74739233408843       20.72372858831918       29.73050690986711
C           18.65206704616018       20.16501169356725       29.09924055638245
H           18.70438297453736       19.11751253512259       28.84534062425677
C           15.40172990905656       23.65274738728259       28.47733826889300
H           14.40761289427308       23.70792854779533       28.06026408372335
C           18.42960486355191       26.81779566809022       30.45505628362641
H           18.38808684081244       27.87392988886335       30.67047050010808
C           21.57483775745623       23.28304674450423       31.30103351054391
H           22.54970055781666       23.22063723394002       31.76006769592549
C           14.05976195131093       21.13162590885123       27.37735571793270
H           13.82520453458883       20.11341444741753       27.07692685398618
H           13.98597929382539       21.77354781825612       26.49888573818665
H           13.30913799886777       21.45854473515180       28.09721670784260
C           16.27113732111535       18.78279383995969       27.76953203342235
H           16.38899151343410       18.15451091939690       28.65282830087347
H           17.06037553541337       18.52318564479496       27.06355665363454
H           15.31260476001466       18.55210914253448       27.31115393239832
C           13.98221124103554       26.35368868676130       28.22949174786861
H           13.22977107522439       25.74997842746931       28.73743612060943
H           13.97036807268531       26.08644605692956       27.17187293968041
H           13.70530097283121       27.40115334189085       28.31749544678066
C           16.04260925157168       28.47116820742960       29.36459296348546
H           15.03644494738925       28.80647603218072       29.59293799568492
C           16.98374536532465       29.37661194359662       29.12198388856287
H           17.98484633217594       29.09817955018056       28.83927080407025
H           16.77727011027818       30.43279055803069       29.17620653527254
C           20.64293771155818       28.12364984122457       32.12759750763576
H           19.65023003785297       28.46595187201101       32.41505282843370
H           21.00830257473255       28.77653289126846       31.33300080597596
H           21.30753517621114       28.22022528166968       32.98382841210966
C           22.74790185085250       25.74923573412412       32.64303147391522
H           23.00533689015623       24.84704209522663       33.18606927867464
C           23.58063940012181       26.78444174409001       32.68591689644576
H           23.40068091845489       27.68810736738060       32.13039898795702
H           24.48981585208191       26.75232649184226       33.26330433686719
C           23.12867844765517       20.64703476705181       31.26892214895596
H           23.13386139189004       20.84805084348177       32.34063398341032
H           23.85304781418666       21.31178875872421       30.79782990310337
H           23.45255524863764       19.62104118534290       31.11232890443588
C           21.15510957189331       18.54257903872887       29.77187141919428
H           22.13458378025623       18.21637205157583       30.11279004878342
H           21.08704306122018       18.36196842616784       28.69890860019110
H           20.39944263770070       17.93080395787110       30.26571754089893
O           17.57025477017344       22.91734522292241       31.81543812760549
H           16.81978437459538       22.40868995839088       31.48934065687004
H           18.22523520372243       22.28527104915977       32.13114391734872
C           22.09542364497592       24.44910303791811       25.64140055638456
H           22.06876253664059       25.42260373803594       25.15203809710528
H           22.19092308302206       23.68327490901670       24.87168675140663
H           22.96864986915439       24.40678686670273       26.28471221916907
N           19.61376688812093       24.24084845551292       25.90559874648893
H           19.39547280374742       24.39094816377148       24.93431356789019
C           20.87041166195175       24.23267910453398       26.45200714790256
C           18.73108585576834       24.01536526598366       26.90474870838564
H           17.67024337038344       23.96752750352645       26.76959836611305
N           19.35221623036262       23.86489350286073       28.04934944234788
C           20.68354269028440       23.99746951104265       27.78398107448182
H           21.41241095587223       23.91526943317733       28.56335638648326
