78
 energy: -116.058077749590 gnorm: 0.000034185613 xtb: 6.7.1 (edcfbbe)
Fe          -5.61974894011218       57.13915973550533      111.77133100671317
N           -6.38132778765595       56.20957291130042      113.38725683343816
N           -6.49570483207402       58.85576875977038      112.36410277076023
N           -4.81951134808703       58.08251293831303      110.20874134758139
N           -4.71614443818615       55.44816383767132      111.23168357557554
C           -6.24782311533223       54.89564938611757      113.71083634832556
C           -6.97749120700386       54.59007577576283      114.92008511271541
C           -7.56106649045954       55.75239089480657      115.32015114300131
C           -7.18250747357763       56.75187553174788      114.34716183915812
C           -7.28182182376905       59.04292889747455      113.46267700802609
C           -7.77248650361933       60.39436521930226      113.51724221107538
C           -7.27632739633023       61.02960617600795      112.40811515709042
C           -6.47401375366828       60.04638507683898      111.70887778592758
C           -5.00835205114453       59.38241344693305      109.85369389419527
C           -4.28292952246114       59.69611088454241      108.64769649016431
C           -3.64535467160355       58.54410460848358      108.27325755087284
C           -3.99592519698732       57.55173227662137      109.27219123995707
C           -3.91434407490840       55.26472163830859      110.15164967788712
C           -3.45860868405691       53.89259944226839      110.07734045779264
C           -4.00952058748198       53.25118133550856      111.14099250381922
C           -4.79246753450154       54.24113364094558      111.85019661675599
C           -5.50752652145843       53.96928609758577      113.00035378393510
H           -5.48463037782364       52.95775550202119      113.37571629159368
C           -7.59744661384945       58.06871306467210      114.39640485341133
H           -8.24003545491721       58.35441975829588      115.21518949552228
C           -5.79165721096005       60.29685111552801      110.53440230157766
H           -5.87748183027393       61.28611231891990      110.11189196734422
C           -3.57234689703464       56.23634170918185      109.23118358274735
H           -2.92960768030267       55.94257864383560      108.41528809658116
C           -8.42550059328282       56.01677145706072      116.50543828992394
H           -7.97693058473921       56.77596123398147      117.14685570558615
H           -8.56333625872721       55.11215218882353      117.09240878790744
H           -9.40701304642119       56.37579206079067      116.19409502250726
C           -7.03144206015166       53.24104981285905      115.55079192321321
H           -6.03081317234657       52.90592808633138      115.82485876710025
H           -7.45356916211501       52.51180928802465      114.85907197657058
H           -7.64471175296352       53.25691806559711      116.44848686102024
C           -8.59471023514115       60.96509969218077      114.62007790948239
H           -8.28710615391899       60.55763056285560      115.58209752596035
H           -9.65243302340542       60.73527334025488      114.47935695559688
H           -8.48051019728006       62.04687848598801      114.64801859849314
C           -7.45030666353308       62.40211478492683      111.98808969676291
H           -6.60644138111399       62.84376898484347      111.47091113435606
C           -8.54241113507266       63.13559093880875      112.17787180466313
H           -9.42797912843261       62.73736516000213      112.64157151362333
H           -8.59658236767374       64.15999011006519      111.84858117919332
C           -4.20815608005364       61.04275441246099      108.01710511070010
H           -4.15156884568388       61.82120117275727      108.77652887456189
H           -5.08895798367062       61.23466765239882      107.40193774230706
H           -3.32543096097968       61.10967842098635      107.38450061087411
C           -2.76728154855240       58.30722747295123      107.14879892471058
H           -1.96350513890349       57.60152962169093      107.32384955246222
C           -2.87884286433970       58.87216764649083      105.95089296658510
H           -3.68382493407928       59.54332518466993      105.70681861849251
H           -2.17784746053352       58.66060046742950      105.16044621795540
C           -2.55836082766158       53.36230331082974      109.01485345743740
H           -1.60690462785486       53.89432572165887      109.02038435066301
H           -3.00996058197209       53.48757575792704      108.03035633036137
H           -2.35958282492304       52.30444705379944      109.16827061380195
C           -3.87757875919859       51.82659591854110      111.55833126966847
H           -3.43728651277079       51.75802148532160      112.55334519725052
H           -3.24406952423616       51.27791580957089      110.86580472224061
H           -4.85442240261686       51.34311686527381      111.58672318052018
O           -3.85918804794156       57.73051948874340      113.11828245247300
H           -4.05345229193477       57.17924653960263      113.88413936871858
H           -4.12112737788564       58.62994876677804      113.34315630359524
C           -9.14552154014685       55.50614394854428      107.77498413669792
H           -9.80394444458778       56.25651416877830      107.33761994180142
H           -9.72678978436566       54.59978245635890      107.94446570770089
H           -8.35268818690650       55.28407075967681      107.06771496617841
N           -9.31997620282874       56.37073718265950      110.11881839459039
H          -10.32573229565973       56.35167145684026      110.15942141707229
C           -8.55452731468111       55.99926971268402      109.04464956290695
C           -8.48104264950179       56.76713730346415      111.10206776579051
H           -8.80310762197474       57.11253051734788      112.06255996191966
N           -7.23213673674894       56.66897221849691      110.71630191087246
C           -7.26141064781808       56.19223676470272      109.43850269598565
H           -6.35676604303519       56.02215986290646      108.89207307760304
