78
 energy: -116.057991478658 gnorm: 0.000116552340 xtb: 6.7.1 (edcfbbe)
Fe          -0.81815580181059       -0.96361761993806      -15.47803621641664
N           -2.20710936447606       -2.26293809706528      -16.13372697312015
N           -2.28413153397283        0.33414393795519      -14.99029808670434
N            0.55311624355450        0.35770089743148      -14.88081666629261
N            0.61767034769963       -2.23269047311671      -16.01434078433381
C           -1.98694193502978       -3.50732927895906      -16.63484058766088
C           -3.23629523008441       -4.15468564257396      -16.96403502980753
C           -4.22130271559645       -3.27071224708982      -16.64820184953395
C           -3.55984958826352       -2.09771516630422      -16.12293327387875
C           -3.62840017086409        0.14562096764278      -15.12123609982004
C           -4.35596477406724        1.28171971837639      -14.62106422201851
C           -3.41658461013156        2.17397893791427      -14.17274325570341
C           -2.12928938957743        1.55158062770847      -14.40593607960491
C            0.32582712865230        1.58416520381180      -14.33642657854282
C            1.56830373421082        2.24658215990939      -14.02648591518260
C            2.56534671485365        1.38623198374195      -14.40053172589906
C            1.89970811782350        0.20748270992521      -14.92281298256142
C            1.95682879079470       -2.03410734866184      -15.91445164591519
C            2.68481523469389       -3.18742310223174      -16.40067516832036
C            1.74813949601820       -4.09035911326780      -16.79224192785088
C            0.46193563960142       -3.47332786876076      -16.54460371068063
C           -0.74488054377951       -4.08228288023539      -16.82821195264999
H           -0.71705990409764       -5.07884929707187      -17.24138861188728
C           -4.22874793496697       -0.97966363721786      -15.66317807171616
H           -5.30646952475774       -0.98927456513914      -15.72114796023945
C           -0.91783837316470        2.14663689482853      -14.11181631231103
H           -0.94357910066185        3.13550979171803      -13.68049821466932
C            2.56608941130001       -0.89991391906532      -15.41376959242337
H            3.64518629562307       -0.87787811166798      -15.40884665387558
C           -5.69882947301256       -3.41342928668980      -16.78498633452747
H           -5.95491142089690       -4.37430966583076      -17.22430061909412
H           -6.10373122804848       -2.62673567479038      -17.42213365902611
H           -6.18481884576192       -3.34202676659249      -15.81124845313626
C           -3.34675826823139       -5.52465709828915      -17.53979835319262
H           -2.89834033144446       -6.25855091216162      -16.86988301640462
H           -2.82813464390419       -5.58069179818184      -18.49713307104285
H           -4.38767201469807       -5.79611360943733      -17.69803813856548
C           -5.83984744180765        1.39004656753123      -14.55496689202921
H           -6.28754519771780        0.42884302011155      -14.30607432404089
H           -6.25087790234537        1.71468020609890      -15.51248967718197
H           -6.12698073392698        2.11467197366446      -13.79571021657819
C           -3.60692878003287        3.46863060249986      -13.55725559472955
H           -2.87473319784646        3.74092361926340      -12.80585952016795
C           -4.58187569690925        4.32465357045711      -13.84564255033283
H           -5.30807740034197        4.12909445927603      -14.61521723521434
H           -4.67092635154635        5.26936255976435      -13.33539701585500
C            1.69093677023409        3.57438438405133      -13.36428428231848
H            2.67030540278934        3.67071580375834      -12.90008609635094
H            0.92821645259983        3.69441841401456      -12.59618764743922
H            1.57141671361740        4.38267832475415      -14.08758907015591
C            3.99902463137211        1.54493049380612      -14.29551241366134
H            4.55784084243224        0.63699923996869      -14.09904559589727
C            4.66036071028065        2.69005938210968      -14.42850699943859
H            4.16429191314371        3.61294868618709      -14.67296935702448
H            5.73180318611863        2.73717671306697      -14.32469191614499
C            4.17104581740762       -3.29000591101559      -16.43565304225731
H            4.58630809131641       -3.20593453431683      -15.43085551779588
H            4.59432904308680       -2.49091702160178      -17.04427601439797
H            4.48345107791638       -4.24279330705984      -16.85600475608647
C            1.93036331190296       -5.45108745188555      -17.37205999445121
H            1.44610787382585       -6.20224634769633      -16.74757988896880
H            2.98579986122336       -5.69987693998876      -17.45055363844746
H            1.49056391072724       -5.50480158641140      -18.36821284902927
O           -0.88610739057344       -0.02674818815818      -17.56862675001222
H           -1.34147707172932        0.79868151675928      -17.37034401333283
H           -1.52812734808265       -0.61174450121955      -17.98550286885279
C            0.40267138364576       -3.05795223079515      -10.45741192450018
H            0.16707400908643       -4.10438194230559      -10.26391470224864
H            0.11305849976070       -2.47606600170186       -9.58247856428999
H            1.47458214303745       -2.96282656678001      -10.59898403200098
N           -1.66993944899227       -2.57466349926136      -11.77700624556621
H           -2.31488692068212       -2.89161255210370      -11.07190560726709
C           -0.30378483993394       -2.57335293826316      -11.67015162620290
C           -1.98623891591103       -2.07352333948851      -12.99221486467688
H           -2.98791798455236       -1.95656467527828      -13.35069149983070
N           -0.90451056813750       -1.75533166717042      -13.66070295937891
C            0.15036573194091       -2.06099748859148      -12.85159263797079
H            1.15769538009480       -1.89254149669026      -13.17197180326111
