87
 energy: -128.467865406303 gnorm: 0.000051858538 xtb: 6.7.1 (edcfbbe)
Fe          38.80203850752770       20.39808931360833       -3.33043950055474
N           39.09756554675840       18.52031759384850       -3.96875135102532
N           38.18741476317900       20.91806623447982       -5.16561255841308
N           38.50380472941565       22.27677395470311       -2.69856123238717
N           39.41733735369720       19.87211595963432       -1.49496815309164
C           39.51601561726886       17.46209024356407       -3.22502109476156
C           39.61092550666090       16.27048485133938       -4.03991574994057
C           39.24307028641473       16.63822357814939       -5.29650849776566
C           38.92290298439573       18.04722920702115       -5.22937194571753
C           38.13422133789719       20.12520602351830       -6.26711670855628
C           37.63773459930121       20.86539415477982       -7.40668897737037
C           37.38779727765029       22.12608549013866       -6.96245633468977
C           37.74100371960434       22.13863856258631       -5.55941481111637
C           38.00790423956619       23.31161892513162       -3.42005315259362
C           37.95853361862675       24.51923856593557       -2.61754449201798
C           38.43802575011735       24.17013115156850       -1.38250770714235
C           38.76791810222002       22.76959794435578       -1.45854467311202
C           39.55234359873894       20.68607672929233       -0.41782569901026
C           40.04244644637516       19.94267949873055        0.72787059875376
C           40.17660587410895       18.64601190075935        0.30500386609811
C           39.78847403287297       18.63063117493498       -1.08183698629327
C           39.82989499086586       17.49921651658153       -1.88048482198160
H           40.15244716912252       16.57663201851967       -1.42131545217087
C           38.48246834681340       18.78786830284057       -6.31157316656292
H           38.39352922510717       18.28013007683458       -7.26041588666968
C           37.64674043657762       23.25854093753940       -4.75440681858086
H           37.28148282928708       24.16656042165326       -5.21031967969801
C           39.27502337867963       22.03974274844176       -0.39679872631728
H           39.45993624754686       22.57114582026273        0.52465344206392
C           40.03752370099218       14.93459248522293       -3.53339640547686
H           39.37319640492814       14.59633216964412       -2.73767393679153
H           41.04974639579002       14.98053918852361       -3.13010951479142
H           40.02088685174654       14.19471524671016       -4.33012495737460
C           39.16044872861189       15.81357715410542       -6.53596528242744
H           39.80942317349457       16.22142382514332       -7.31136440491414
H           38.14087502063127       15.80064259084566       -6.92286277083735
H           39.46415084326279       14.78794566018484       -6.34018119922263
C           40.56930037069780       17.44934021943407        1.10041672160101
H           39.98111042221189       16.58145759828003        0.80575221925037
H           40.40700477360176       17.63611380588488        2.16016972337994
H           41.62371434330290       17.20845968754060        0.95210346178024
C           40.28485117071507       20.50660252013971        2.03637047018875
H           39.64106506351278       21.33241178900113        2.31722489281772
C           41.21892094565310       20.10456197400416        2.89296208459891
H           41.91911942875961       19.32343184281116        2.65366790901990
H           41.33180996987062       20.56548227372539        3.86043376946600
C           38.53894687924001       25.01204895551488       -0.15807327603473
H           39.55947861565404       25.37173223165600       -0.01538453784943
H           38.25681454217467       24.44291248738848        0.72665373202565
H           37.87944863814563       25.87364959656924       -0.24167988758231
C           37.46579275257807       25.79696251533799       -3.08068227526323
H           36.66390246225455       25.75248152481112       -3.80907596769474
C           37.91788399296382       26.98654057947821       -2.69593341275553
H           38.74308674369640       27.09254576261299       -2.01357635325945
H           37.49122663816633       27.90107811025339       -3.07397981962009
C           36.86204431626692       23.30429212059438       -7.70927188600220
H           37.58173374881220       24.12328035941527       -7.69024094793505
H           35.93449694705546       23.66039930355833       -7.26005317690044
H           36.66308992340745       23.04821329719532       -8.74724769470469
C           37.45917199722219       20.29148987377814       -8.77117885033545
H           37.08458703000033       21.04343608608653       -9.46157676269836
H           36.75107915704022       19.46216889562219       -8.75110947939316
H           38.40758981630319       19.91531804459429       -9.15552583179621
C           33.88089954213967       19.82578177271717       -0.73900574953314
H           33.58043494527207       18.82533081738323       -0.42732720017693
H           33.01306507119720       20.32249137317324       -1.17310479924053
H           34.19803071811484       20.38249031127332        0.13725323156367
N           34.88428578470453       19.11799024227035       -2.92208929808086
H           34.06536829268104       18.63959848890857       -3.25971753706033
C           34.99654192106524       19.76155600542410       -1.71694788659934
C           36.06692660744833       19.24624500372324       -3.56565056569572
H           36.27054326387439       18.84029224111456       -4.53492790475797
N           36.91885669642213       19.93017017292264       -2.84288245763327
C           36.26814553787003       20.25767655519199       -1.69036081663137
H           36.75530057407560       20.82434173674862       -0.92436639238146
C           43.42856247095814       22.88893450676786       -5.23984713538266
H           43.96815846746329       22.41163111412989       -6.05802272941858
H           44.15775457310931       23.23920622783120       -4.50920399348450
H           42.88948319842281       23.74589445799543       -5.63149066481656
N           42.86735819450962       20.76824159629560       -4.03094804179428
H           43.81534313781007       20.43633416844105       -3.96282391192504
C           42.46946831346432       21.94233652346738       -4.61598665426808
C           41.75976479718550       20.14855326609755       -3.56393381946748
H           41.76797506533259       19.20580031964853       -3.05702127115564
N           40.68753444510426       20.85706950453123       -3.81749766831475
C           41.11229407207966       21.97538615343998       -4.47167877928958
H           40.41777598454168       22.72392976410190       -4.79197803626655
