87
 energy: -128.221162477704 gnorm: 0.285186599231 xtb: 6.7.1 (edcfbbe)
Fe          38.79800000000000       20.39500000000000       -3.32000000000000
N           39.01500000000000       18.52500000000000       -3.95100000000000
N           38.19800000000000       20.91400000000000       -5.13800000000000
N           38.56400000000000       22.25000000000000       -2.67100000000000
N           39.37400000000000       19.87100000000000       -1.48700000000000
C           39.41000000000000       17.41900000000000       -3.20100000000000
C           39.51500000000000       16.24500000000000       -4.03700000000000
C           39.13900000000000       16.60900000000000       -5.28800000000000
C           38.83900000000000       18.02700000000000       -5.23500000000000
C           38.17399999999999       20.13600000000000       -6.30000000000000
C           37.81300000000000       20.93600000000000       -7.45200000000000
C           37.55200000000000       22.19000000000000       -6.99500000000000
C           37.78100000000000       22.17200000000000       -5.56300000000000
C           38.05500000000000       23.32800000000000       -3.39500000000000
C           37.93800000000000       24.52100000000000       -2.55500000000000
C           38.39000000000000       24.16900000000000       -1.32200000000000
C           38.79500000000000       22.77800000000000       -1.39700000000000
C           39.54700000000000       20.68500000000000       -0.35100000000000
C           39.99600000000000       19.90800000000000        0.80600000000000
C           40.05399999999999       18.61300000000000        0.36500000000000
C           39.69100000000000       18.59100000000000       -1.03400000000000
C           39.71800000000000       17.43900000000000       -1.83000000000000
H           39.99600000000000       16.49800000000000       -1.35600000000000
C           38.47299999999999       18.78000000000000       -6.34400000000000
H           38.41700000000000       18.27500000000000       -7.30800000000000
C           37.68800000000000       23.29000000000000       -4.74300000000000
H           37.29899999999999       24.20700000000000       -5.18500000000000
C           39.25699999999999       22.04600000000000       -0.30400000000000
H           39.39900000000000       22.56900000000000        0.64100000000000
C           40.00999999999999       14.86300000000000       -3.61100000000000
H           39.26100000000000       14.71900000000000       -2.80300000000000
H           40.96200000000000       15.21700000000000       -3.16100000000000
H           40.17200000000000       13.89300000000000       -4.12900000000000
C           39.06000000000000       15.67300000000000       -6.50800000000000
H           39.69599999999999       16.31000000000000       -7.15900000000000
H           37.99200000000000       15.86600000000000       -6.74800000000000
H           39.30500000000000       14.60600000000000       -6.69700000000000
C           40.37600000000000       17.38400000000000        1.21000000000000
H           40.42899999999999       16.27600000000000        1.15500000000000
H           39.62000000000000       17.67100000000000        1.97200000000000
H           41.37400000000000       17.77900000000000        1.49700000000000
C           40.27700000000000       20.37400000000000        2.11000000000000
H           39.45799999999999       20.25400000000000        2.82800000000000
C           41.54600000000000       20.23400000000000        2.68900000000000
H           42.45399999999999       20.33200000000000        2.07500000000000
H           41.64900000000000       20.02400000000000        3.76400000000000
C           38.36299999999999       25.04100000000000       -0.06000000000000
H           39.45500000000000       25.01400000000000        0.14400000000000
H           37.85900000000000       24.28000000000000        0.57300000000000
H           37.97600000000000       26.05400000000000        0.18400000000000
C           37.33500000000000       25.73700000000000       -2.92100000000000
H           36.46900000000000       25.53900000000000       -3.55600000000000
C           38.03100000000000       26.93400000000000       -2.88400000000000
H           38.89599999999999       27.05600000000000       -2.21500000000000
H           37.72700000000000       27.77600000000000       -3.52300000000000
C           37.06800000000000       23.37600000000000       -7.82600000000000
H           36.89099999999999       24.47000000000000       -7.74600000000000
H           36.12100000000000       22.87900000000000       -8.12800000000000
H           37.85400000000000       23.19300000000000       -8.59000000000000
C           37.87599999999999       20.47400000000000       -8.90200000000000
H           38.39200000000000       21.40400000000000       -9.22500000000000
H           36.77900000000000       20.61499999999999       -9.00900000000000
H           38.21500000000000       19.63300000000000       -9.54300000000000
C           34.08599999999999       19.64399999999999       -0.49300000000000
H           33.81900000000000       18.57800000000000       -0.33300000000000
H           33.16900000000000       20.20799999999999       -0.76800000000000
H           34.51500000000000       20.05200000000000        0.44700000000000
N           34.84700000000000       19.30900000000000       -2.88100000000000
H           33.97599999999999       18.92900000000000       -3.19300000000000
C           35.09400000000000       19.74700000000000       -1.59700000000000
C           35.93200000000000       19.47200000000000       -3.61700000000000
H           36.01100000000000       19.20300000000000       -4.67000000000000
N           36.87400000000000       20.00600000000000       -2.85800000000000
C           36.37400000000000       20.19000000000000       -1.59300000000000
H           36.97900000000000       20.62100000000000       -0.80500000000000
C           43.09499999999999       22.65600000000000       -5.79100000000000
H           44.07300000000000       22.17600000000000       -6.00800000000000
H           43.27600000000000       23.64300000000000       -5.31400000000000
H           42.54100000000000       22.79100000000000       -6.74500000000000
N           42.75099999999999       21.43600000000000       -3.61000000000000
H           43.65899999999999       21.65000000000000       -3.25000000000000
C           42.30400000000000       21.78400000000000       -4.86600000000000
C           41.79199999999999       20.78300000000000       -2.97200000000000
H           41.87900000000000       20.39500000000000       -1.95800000000000
N           40.74399999999999       20.69300000000000       -3.77100000000000
C           41.04199999999999       21.30500000000000       -4.96600000000000
H           40.32400000000000       21.34100000000000       -5.77600000000000
87
 energy: -128.338772365412 gnorm: 0.154738676557 xtb: 6.7.1 (edcfbbe)
Fe          38.79477160544330       20.38335060894901       -3.31430788357346
N           39.01373296491288       18.49910711917214       -3.95544468868171
N           38.19191346875217       20.91269643150809       -5.13825721128673
N           38.56699416107512       22.26897268764289       -2.66594897132971
N           39.37420909529225       19.86816429675487       -1.47592743399215
C           39.41736651497506       17.41552561863334       -3.20503964716709
C           39.51684161979414       16.23628008468922       -4.04207642102446
C           39.14390429806456       16.59699701330983       -5.28572672250697
C           38.84183675984189       18.01626587506417       -5.23301634581950
C           38.18629503222709       20.13515016086038       -6.27960378033817
C           37.84085605693558       20.92846416876941       -7.42596550673934
C           37.56004186928178       22.18728270693910       -6.96556615625081
C           37.78817622129903       22.16418256042449       -5.54568122744471
C           38.04602201385323       23.31857172929174       -3.38905640902958
C           37.93122499640299       24.50707142728405       -2.55506939731026
C           38.38436723783236       24.16822149350352       -1.32396541865128
C           38.78649159180259       22.77739828966882       -1.39704095584167
C           39.54398638670148       20.67964087685123       -0.36477675805983
C           39.99942906211302       19.89919202242293        0.77392884170515
C           40.04668197728315       18.60147674782097        0.33045395544208
C           39.68388867775008       18.59508051928736       -1.05464230060112
C           39.71134081554255       17.44840502309744       -1.84399573468293
H           39.99206924611326       16.51418657154527       -1.36291020221198
C           38.47585801496868       18.77976015251596       -6.33187125656833
H           38.41571265028992       18.28381141155375       -7.29743232059072
C           37.68959767296891       23.28122920467911       -4.73083827035091
H           37.30797320602877       24.19573169601122       -5.17944567683834
C           39.26014432926968       22.03989513060735       -0.31611395221051
H           39.40103256231642       22.55759996796472        0.63031594790822
C           40.00819372751956       14.88833584517494       -3.56456170611281
H           39.28117487932201       14.68325782224730       -2.77070684063374
H           40.97301267118687       15.17784737926671       -3.13169534558209
H           40.14749605028797       13.96323232893972       -4.15212085573034
C           39.04744905319737       15.72369187869467       -6.52577045757276
H           39.68441400103093       16.29618856772639       -7.20904522149249
H           37.99123424174766       15.85381908668449       -6.79197592359166
H           39.30633635156207       14.65430230050354       -6.63131044520868
C           40.38178179571219       17.42707569864917        1.23569387509479
H           40.40981516207612       16.33232126693142        1.09317800919715
H           39.64566778286270       17.64054126753775        2.02233906603421
H           41.38184703506364       17.75085271278949        1.55154251913968
C           40.29650872570458       20.31554888368733        2.12754437742951
H           39.45890153575432       20.26736153594045        2.83098981480316
C           41.52988069369316       20.23038045054863        2.68176550409522
H           42.43270863273233       20.31720750537195        2.08011365742187
H           41.64992173830205       20.06584263807477        3.75061617589327
C           38.38758007990717       24.99446111597263       -0.04949991816625
H           39.45822922130780       25.02156994327995        0.18772265105616
H           37.87040348880060       24.29804480652335        0.62124793410528
H           37.97703462487150       26.00802580711218        0.11531079470932
C           37.36307722770353       25.74964332056081       -2.97130235265993
H           36.46960621138107       25.58059551423765       -3.56847515645014
C           38.01678356240855       26.92514809839769       -2.89086415850854
H           38.88208271201999       27.04311248234104       -2.24074302940805
H           37.71232159984729       27.77766653281401       -3.49094461533576
C           37.07485625731551       23.32909389921230       -7.84877701510721
H           36.91814978931745       24.41120849527909       -7.68430296961466
H           36.11464145029751       22.90453995813402       -8.17491467533057
H           37.82689112939128       23.22439825000432       -8.64292482919893
C           37.84839762623536       20.52283487222525       -8.89252091997929
H           38.37661938548869       21.40259248930341       -9.28663318926065
H           36.76999000823748       20.62326597337539       -9.07440567689706
H           38.21570898444278       19.64374686029680       -9.45347184080144
C           34.08305991588981       19.64274767735139       -0.49588211646325
H           33.81647636170721       18.59053533908819       -0.33083461154786
H           33.17527973918371       20.20118646824770       -0.75822451866768
H           34.50632888809439       20.04729590306208        0.43042467011659
N           34.83515038246012       19.30626601152697       -2.87117505510760
H           33.96323716012967       18.92445159185604       -3.18964646039765
C           35.08589557246565       19.74324463032615       -1.59290813136123
C           35.94032405019795       19.47841904293318       -3.60708899365837
H           36.01960155728991       19.21172928527790       -4.65093529087627
N           36.88459310092363       20.00986960575365       -2.85960128286704
C           36.37240377881693       20.18645341983143       -1.60357468756156
H           36.97102389275621       20.61506148170989       -0.81866979246906
C           43.10209031454214       22.65258668351770       -5.79154158096837
H           44.06994625083117       22.18545147376030       -6.01105364145792
H           43.27687859415896       23.63206559481223       -5.32628881143835
H           42.55085048821714       22.79002516826195       -6.72875670324140
N           42.76130012413864       21.44422048754537       -3.61691425448524
H           43.67141073370677       21.65511431955536       -3.25063292489618
C           42.31296880831301       21.79412215543099       -4.86680779046102
C           41.78222048399599       20.78500523782584       -2.98275747859777
H           41.86845175090870       20.39833225482534       -1.97799942231133
N           40.73040053171392       20.69926500507995       -3.76863595896189
C           41.04796919627761       21.30613281666401       -4.95471091482356
H           40.33966077741969       21.34095116109537       -5.76285957978570
87
 energy: -128.404555480083 gnorm: 0.068184548517 xtb: 6.7.1 (edcfbbe)
Fe          38.78968616548896       20.37212691691845       -3.31163654432616
N           39.01403968857318       18.47510836835052       -3.96100041983623
N           38.18732028003153       20.91303164647496       -5.14597506171874
N           38.56258216101017       22.28518168398000       -2.65781908146320
N           39.37371606168942       19.86203221040191       -1.46527029875583
C           39.42063287823128       17.41169355855754       -3.21135856608231
C           39.52042496349943       16.22257608579488       -4.04667714175476
C           39.14837928881451       16.58290041864817       -5.28860438994600
C           38.84350460410226       18.00637501667191       -5.23030667328304
C           38.19793367304373       20.13753984220353       -6.26945106700932
C           37.85892908526197       20.92372674463395       -7.41676171087632
C           37.56481739936812       22.18769024216608       -6.95364308765698
C           37.79427910446875       22.15864083168153       -5.53873916192502
C           38.04027970256180       23.31151578691454       -3.38035638407441
C           37.91780311755838       24.49528974434096       -2.54745486655861
C           38.37806314355699       24.16770717615970       -1.31765579414854
C           38.77832431509893       22.77453213561980       -1.39787031268986
C           39.54293123439852       20.67154219637805       -0.37724377353759
C           39.99905867956851       19.89428373159022        0.74948941272286
C           40.04397804531258       18.58991117054670        0.31438075488077
C           39.67890830809613       18.59684054629579       -1.06610137470366
C           39.70438409455966       17.45507389745131       -1.85774810774949
H           39.98870273599779       16.52920732329055       -1.36994721141089
C           38.47952982478237       18.77907364465298       -6.32058729987425
H           38.41527486820001       18.29245867286857       -7.28652951126717
C           37.69123899025963       23.27355309111206       -4.71979150831988
H           37.31695617086067       24.18459813294517       -5.17295010999862
C           39.26481269220420       22.03247200225973       -0.33002326180440
H           39.40561306137782       22.54339335308885        0.61729041141577
C           40.00699352861638       14.91152552837184       -3.52055267441758
H           39.30212850888896       14.64767093595403       -2.73573257434810
H           40.98403016421647       15.13833524399704       -3.09734732256868
H           40.11894344733503       14.03736450028287       -4.18336995552328
C           39.03546295012736       15.77118825648693       -6.54168434192680
H           39.67132993016703       16.28479048911806       -7.25915030388571
H           37.98977621946376       15.84594588707035       -6.83746531498806
H           39.31148298914149       14.70247126763866       -6.55551161432745
C           40.38816401046581       17.46959208844572        1.26079858656813
H           40.38656348839985       16.39284724523809        1.01246379054870
H           39.67015878716914       17.61461461689545        2.06922265626546
H           41.39016183100006       17.72590161316559        1.60211518022731
C           40.30703861535602       20.26066674795541        2.14066368656364
H           39.45252169664878       20.26808494147193        2.82241521486529
C           41.51613365526110       20.23016553367161        2.67424597837462
H           42.41735894870984       20.28552533696413        2.07957052522423
H           41.65414939295089       20.12488911817528        3.74353627471373
C           38.41091175497625       24.95001159704245       -0.03947717072691
H           39.46317003254544       25.02614548219175        0.23055097208186
H           37.88439985372006       24.31307711803008        0.67047303184717
H           37.97494659610695       25.96231123046577        0.03344292608200
C           37.38414337764168       25.75767441659045       -3.01450330843711
H           36.47578794161814       25.61927825711190       -3.59190024527349
C           38.00617540100328       26.91907063602716       -2.89869183275987
H           38.87992007660485       27.03204181625543       -2.27197617909588
H           37.69027937223645       27.78906906536284       -3.45357250663653
C           37.08156463970959       23.28298239311198       -7.87024992533514
H           36.95207447478709       24.34830637449499       -7.60152059290206
H           36.11010586435531       22.92368462347119       -8.21801304142920
H           37.80241996240535       23.25034328829577       -8.68924519392012
C           37.82119341118483       20.57081443292725       -8.88225066137373
H           38.35856538678809       21.40361323384578       -9.34143852438505
H           36.76100800542647       20.63192582625324       -9.13098416089044
H           38.22094758911246       19.64672366682050       -9.34331471223625
C           34.08100203209661       19.64250874029298       -0.49751448805317
H           33.81295711806028       18.59910618214907       -0.32908596450911
H           33.17835145818552       20.19712368879074       -0.75164477004661
H           34.50071244051784       20.04559362438616        0.41972913426439
N           34.82700671044873       19.30341326832625       -2.86418493726257
H           33.95576979965342       18.92055132836443       -3.18967674041506
C           35.08091897536368       19.73997755574323       -1.59006893857065
C           35.94843444472622       19.48363152365714       -3.59765476031200
H           36.02739598854473       19.21945457017197       -4.63456643914159
N           36.89478951391388       20.01062987872600       -2.85864345586144
C           36.37113885344857       20.18283761582318       -1.61136298879760
H           36.96126575560240       20.61037112584922       -0.82593308014134
C           43.10891291740369       22.64940931024447       -5.79331078061173
H           44.07090021898532       22.19130697857986       -6.01444516457021
H           43.28081321673214       23.62520451720025       -5.33683789292519
H           42.55803369314840       22.78814198619817       -6.71906279665358
N           42.76956453620334       21.45027906033836       -3.62076746054844
H           43.68003572444645       21.65743054224285       -3.24756170719731
C           42.32036644716343       21.80244555964434       -4.86644059065021
C           41.77256522463145       20.78936715419419       -2.99158284636688
H           41.85905814400302       20.40262238478543       -1.99464129493893
N           40.71841938514755       20.70904928305225       -3.76709701476882
C           41.05253266278484       21.31161173960883       -4.94437077177392
H           40.35593849667085       21.34720340043082       -5.75547877437069
87
 energy: -128.432844014418 gnorm: 0.046663316333 xtb: 6.7.1 (edcfbbe)
Fe          38.78585375861053       20.36467920308737       -3.31157678043222
N           39.01136560454920       18.46730571361985       -3.96209777288719
N           38.18474278657378       20.91189756670468       -5.15016844487025
N           38.55627063097396       22.28497645359179       -2.65467307752171
N           39.37095641831417       19.85235487336115       -1.46397781524523
C           39.41957118636881       17.41191369961424       -3.21498560831715
C           39.52176831597480       16.21785942959260       -4.04459494088479
C           39.14977442578653       16.58152308883092       -5.29093969932399
C           38.84400184536725       18.00534905346185       -5.22687787715454
C           38.20507427081736       20.13925135825196       -6.26918866007085
C           37.86131600273349       20.92464443375489       -7.41889051487810
C           37.56809934442946       22.18595703757714       -6.95593054791219
C           37.79691800955669       22.15628154993356       -5.53872750664606
C           38.03146483904042       23.30395706461001       -3.37408134638920
C           37.90917134415393       24.48953548361687       -2.54477297434278
C           38.37483693864706       24.15934273144059       -1.31287011252931
C           38.77161901222274       22.76477891975024       -1.40018985496533
C           39.54280666542024       20.66293953337725       -0.38430333600526
C           39.99450409895903       19.88973773901643        0.74089591713255
C           40.04705133729039       18.58462425572890        0.31697614695050
C           39.67679498563120       18.59174985382938       -1.06685532939257
C           39.70038763752636       17.45529127333962       -1.86436506923525
H           39.98753613417868       16.53470899294028       -1.37554082789025
C           38.48377406340498       18.77960964532597       -6.31421137744856
H           38.41648326679269       18.29792774340359       -7.27952513232021
C           37.68891302368813       23.26630360954034       -4.71361638487868
H           37.32455161281146       24.17729033356926       -5.16804151406209
C           39.26786223945226       22.02347140929290       -0.33995998677810
H           39.41542535760195       22.52924372359179        0.60609392457876
C           40.00463441258874       14.92395732321464       -3.49442097664331
H           39.32240218848910       14.61135460087221       -2.70341237561243
H           40.99236135501252       15.09665550152623       -3.06343824878280
H           40.09077739210056       14.09751471190446       -4.21550356886489
C           39.02900211355431       15.79999688032377       -6.55092239807147
H           39.65824535109774       16.27207641915470       -7.30669347708293
H           37.98975598593891       15.83905613914213       -6.88212910734890
H           39.31909258358415       14.73973699866082       -6.48709175549418
C           40.39349105572436       17.49001538401593        1.27077512231486
H           40.36544681577549       16.44012691614237        0.92914842155737
H           39.69649276249132       17.58179245897421        2.10927544556181
H           41.39835404398922       17.69329962819076        1.64664511673002
C           40.29608669171270       20.22927544078614        2.14301524119584
H           39.43675011719460       20.26152596431377        2.81077429155945
C           41.51171354216265       20.24314503846958        2.67203675893622
H           42.40953611601551       20.24232861584987        2.06871939808423
H           41.66286092171483       20.21408143413302        3.74818810054932
C           38.42557040063713       24.92080537733262       -0.03491770674737
H           39.46757738476181       25.02997633130232        0.26972815398109
H           37.90051475728454       24.32926106734970        0.71958496811666
H           37.97241624235728       25.92603944781946       -0.04666082542343
C           37.39440546254870       25.75543803905860       -3.04473472291511
H           36.48578386552365       25.64895505375210       -3.62650655749797
C           38.00106705829712       26.92420665334692       -2.89869679357140
H           38.89418273598113       27.02380708493960       -2.30051929822361
H           37.65721456194756       27.81581725654986       -3.40512245071569
C           37.08703367899386       23.25735721179353       -7.87677339171607
H           36.98399668744428       24.29597187002912       -7.51142386099811
H           36.10779326587022       22.94687340531143       -8.25544137684396
H           37.77840138338842       23.28343194557574       -8.72620400989366
C           37.80365356794061       20.59307318338433       -8.87269779255530
H           38.34026831372432       21.39298737185691       -9.39567832205319
H           36.75553324030661       20.63561967854042       -9.18241255182071
H           38.22498187984947       19.63692661680140       -9.23710737939721
C           34.07738891298862       19.64329762203891       -0.49788667581719
H           33.80588834035662       18.60207467549355       -0.32556299624810
H           33.17460297303538       20.19810943484494       -0.74831802800276
H           34.49774309994424       20.04808949083007        0.41686507390188
N           34.82426917686423       19.30062237679541       -2.86228060342051
H           33.95395983208682       18.91763219470696       -3.19209302935660
C           35.07807183120555       19.73748218836086       -1.58897241639474
C           35.95255564093499       19.48403481754555       -3.59141934899212
H           36.03458560440203       19.22343814232086       -4.62649820073915
N           36.89947115446773       20.00799504156270       -2.85352166669638
C           36.36871961170409       20.17910737742491       -1.61045859235231
H           36.95149137040719       20.60764416833776       -0.82222759216511
C           43.11913887711646       22.64775793835073       -5.79590713667649
H           44.08083726678345       22.19181502007210       -6.02003803288996
H           43.29239908822298       23.62598536683527       -5.34706071813345
H           42.56443066240314       22.78475723311476       -6.71836525456247
N           42.77476839145766       21.45473311745489       -3.61908124863471
H           43.68513157268877       21.65690426882421       -3.24104058163185
C           42.32814188546878       21.80946267306179       -4.86445308892143
C           41.76711380838665       20.79825562337849       -2.99498183273530
H           41.85075901007902       20.40662864816515       -2.00232896107150
N           40.71271962404696       20.72475577827300       -3.76830548634649
C           41.05724548391944       21.32615451201223       -4.94086218679682
H           40.37127368814818       21.36426946602105       -5.75858696190935
87
 energy: -128.443693717182 gnorm: 0.038613914602 xtb: 6.7.1 (edcfbbe)
Fe          38.78294588882953       20.36080397790343       -3.31149671837141
N           39.01008403704905       18.47053072853800       -3.95842584755256
N           38.18513499200944       20.91155495019708       -5.15369883886673
N           38.54321807101896       22.27506224624170       -2.65568246173708
N           39.36915265299587       19.83924512553535       -1.46484422142045
C           39.41689087373485       17.41467072822079       -3.21426700565886
C           39.52047316791242       16.22021396408489       -4.03888485422407
C           39.15022997464747       16.58839908770124       -5.29041543992239
C           38.84552710283094       18.01012646911288       -5.22193889877621
C           38.20780520283839       20.13968357702274       -6.27309092512103
C           37.85615270963602       20.92624513492413       -7.42436461842697
C           37.56706165746295       22.18344689047674       -6.96175325311628
C           37.79669302862629       22.15611853909627       -5.54141858112048
C           38.02057260143102       23.29689986461610       -3.37107163876177
C           37.90816632130255       24.48713932771621       -2.54507005328658
C           38.37735736426263       24.14642873043585       -1.31158705811434
C           38.76481468850971       22.75126492356311       -1.40428540554500
C           39.54183252335820       20.65347118499813       -0.38767147231014
C           39.99261977739276       19.88559629855270        0.74089899667139
C           40.04981543498007       18.58022938549809        0.32717027984984
C           39.67762153642529       18.58126977839052       -1.06153483994112
C           39.69892715313114       17.45071198558312       -1.86419113939350
H           39.98835783646377       16.53013800090023       -1.38081128451490
C           38.48757449044979       18.78154485499606       -6.31095901253317
H           38.42060298002968       18.29960347442201       -7.27488229337017
C           37.68484492244333       23.26077645811545       -4.71190947090141
H           37.32935811967959       24.17431558102138       -5.16490729125776
C           39.27000644849131       22.01274693095932       -0.34760530958593
H           39.43009621612005       22.51637417118324        0.59574432479423
C           39.99872136549556       14.92662879924385       -3.48601274327902
H           39.33170365063441       14.58288864873270       -2.69231701226689