87
 energy: -124.215635787860 gnorm: 0.537704341297 xtb: 6.7.1 (edcfbbe)
Fe          -5.58800000000000       -1.88500000000000       10.98200000000000
N           -6.10200000000000       -3.54700000000000       10.95300000000000
N           -7.13300000000000       -1.25100000000000        9.82000000000000
N           -5.15600000000000       -0.20900000000000       11.08400000000000
N           -4.10600000000000       -2.48600000000000       12.18400000000000
C           -5.77700000000000       -4.90800000000000       11.49600000000000
C           -6.51300000000000       -6.13800000000000       11.10400000000000
C           -7.44900000000000       -5.69700000000000       10.23100000000000
C           -7.22400000000000       -4.18400000000000       10.21300000000000
C           -8.02200000000000       -2.16800000000000        9.18300000000000
C           -8.83100000000000       -1.31600000000000        8.34100000000000
C           -8.50400000000000        0.05800000000000        8.55700000000000
C           -7.41300000000000        0.06900000000000        9.53800000000000
C           -5.46500000000000        1.22400000000000       10.73300000000000
C           -4.65900000000000        2.35400000000000       11.04800000000000
C           -3.64300000000000        1.94100000000000       11.73200000000000
C           -3.91600000000000        0.42500000000000       11.77200000000000
C           -3.12000000000000       -1.76100000000000       12.77000000000000
C           -2.35900000000000       -2.50200000000000       13.65300000000000
C           -2.84300000000000       -3.75200000000000       13.62700000000000
C           -3.94100000000000       -3.75900000000000       12.70700000000000
C           -4.73200000000000       -4.87600000000000       12.30700000000000
H           -4.43500000000000       -5.83600000000000       12.72700000000000
C           -8.08400000000000       -3.56000000000000        9.30900000000000
H           -8.78600000000000       -4.14200000000000        8.71600000000000
C           -6.63800000000000        1.17400000000000        9.98100000000000
H           -7.02600000000000        2.14700000000000        9.68300000000000
C           -2.95900000000000       -0.37900000000000       12.53600000000000
H           -2.07800000000000        0.11600000000000       12.94400000000000
C           -6.26100000000000       -7.57800000000000       11.51200000000000
H           -6.36900000000000       -7.40800000000000       12.60500000000000
H           -5.18100000000000       -7.58400000000000       11.25300000000000
H           -6.71900000000000       -8.55600000000000       11.25300000000000
C           -8.61500000000000       -6.49800000000000        9.57000000000000
H           -8.34100000000000       -6.29900000000000        8.51200000000000
H           -9.42300000000000       -5.79800000000000        9.87000000000000
H           -8.96900000000000       -7.54700000000000        9.65900000000000
C           -2.55000000000000       -5.04900000000000       14.49600000000000
H           -1.55500000000000       -5.12900000000000       14.00800000000000
H           -2.88300000000000       -6.06300000000000       14.80300000000000
H           -2.46200000000000       -4.39200000000000       15.38800000000000
C           -1.16600000000000       -2.03500000000000       14.48800000000000
H           -1.23600000000000       -1.63500000000000       15.50800000000000
C            0.10300000000000       -2.85500000000000       14.21800000000000
H            0.27800000000000       -3.30400000000000       13.22900000000000
H            0.85200000000000       -3.00200000000000       15.01000000000000
C           -2.48900000000000        2.62300000000000       12.39900000000000
H           -1.68600000000000        2.01000000000000       11.93600000000000
H           -2.65100000000000        2.27700000000000       13.44200000000000
H           -2.17500000000000        3.68900000000000       12.39700000000000
C           -5.17900000000000        3.64800000000000       10.55400000000000
H           -6.25000000000000        3.58200000000000       10.37400000000000
C           -4.26400000000000        4.79600000000000       10.15100000000000
H           -3.18900000000000        4.76100000000000       10.38300000000000
H           -4.66700000000000        5.67300000000000        9.62300000000000
C           -9.04500000000000        1.35300000000000        7.89600000000000
H           -8.96500000000000        0.90500000000000        6.88300000000000
H           -8.88600000000000        2.45000000000000        7.81900000000000
H          -10.05700000000000        1.14400000000000        8.30300000000000
C           -9.91400000000000       -1.79800000000000        7.34500000000000
H           -9.49400000000000       -1.25800000000000        6.46900000000000
H          -10.68000000000000       -1.15600000000000        7.83000000000000
H          -10.37800000000000       -2.74500000000000        6.99600000000000
C           -7.33200000000000       -1.00200000000000       16.15700000000000
H           -7.57600000000000       -1.95100000000000       16.68000000000000
H           -8.13200000000000       -0.26000000000000       16.36500000000000
H           -6.35700000000000       -0.62400000000000       16.53200000000000
N           -8.31600000000000       -1.73000000000000       13.99100000000000
H           -9.21400000000000       -1.92100000000000       14.38700000000000
C           -7.24600000000000       -1.25000000000000       14.69500000000000
C           -7.97400000000000       -1.89700000000000       12.72600000000000
H           -8.65600000000000       -2.25400000000000       11.95500000000000
N           -6.71700000000000       -1.57200000000000       12.56000000000000
C           -6.23900000000000       -1.08600000000000       13.76200000000000
H           -5.24200000000000       -0.67300000000000       13.84800000000000
C           -5.23600000000000       -0.85900000000000        6.88500000000000
H           -5.15200000000000        0.08900000000000        6.31300000000000
H           -6.28900000000000       -0.98100000000000        7.21800000000000
H           -4.95500000000000       -1.70200000000000        6.21800000000000
C           -4.26100000000000       -0.82200000000000        8.16000000000000
H           -4.53900000000000        0.02600000000000        8.82200000000000
H           -3.21100000000000       -0.67300000000000        7.82800000000000
S           -4.43700000000000       -2.37800000000000        9.01800000000000
C           -2.66800000000000       -2.72100000000000        9.47200000000000
H           -2.25300000000000       -1.91500000000000       10.11500000000000
H           -2.04300000000000       -2.78600000000000        8.55600000000000
H           -2.59400000000000       -3.67800000000000       10.03100000000000
87
 energy: -124.453270191798 gnorm: 0.332606120473 xtb: 6.7.1 (edcfbbe)
Fe          -5.59141062028234       -1.88416234221984       10.99043299706814
N           -6.15903223324101       -3.61391961496403       10.92956200341204
N           -7.12516311939177       -1.26533459173187        9.83647276931277
N           -5.07801345644547       -0.14710685068603       11.11289052127094
N           -4.10478569268817       -2.49136815435725       12.18737624673057
C           -5.76250093850382       -4.90357855020822       11.49708498054218
C           -6.51471705761331       -6.12108379877955       11.09642744945220
C           -7.45306293260706       -5.68297106777838       10.24599829872898
C           -7.24871508125261       -4.18474054503951       10.17788726458402
C           -8.01114625250652       -2.12903215880220        9.17903255698760
C           -8.82406491610819       -1.30277435029740        8.34383582378229
C           -8.47899091593028        0.05010526618424        8.56856949836445
C           -7.40579479829109        0.04194438105514        9.53195795575278
C           -5.51237748865428        1.19378791822199       10.70547704990908
C           -4.69743884271038        2.35304650065664       11.02407739137204
C           -3.65201976950107        1.90746874073238       11.73064137760104
C           -3.87389731758172        0.40254401123029       11.79954998726360
C           -3.12262475669460       -1.74837253465352       12.76582421624053
C           -2.34079060052476       -2.51110799149132       13.66252044535531
C           -2.87607816677206       -3.77553495421901       13.62636075230342
C           -3.94961975942629       -3.75570385467286       12.69994963063583
C           -4.71050158170569       -4.88079875900681       12.32543206284732
H           -4.42078780474357       -5.83749075187962       12.74082218024838
C           -8.07882507830006       -3.52437935983162        9.30548780388751
H           -8.78124995489321       -4.11502006782240        8.71993061201332
C           -6.66652327232683        1.16667954476772        9.96511609583103
H           -7.04403152501539        2.13877389059867        9.66715147607351
C           -2.96412185206475       -0.37659990819769       12.52769752778114
H           -2.08733001659715        0.11133974722406       12.94445178422556
C           -6.23526344716635       -7.54968408094695       11.53213970870775
H           -6.35411873445242       -7.42996514698632       12.61627890069622
H           -5.17238907646523       -7.60691167817565       11.26843910815666
H           -6.72458643289055       -8.50357841571036       11.23994298559928
C           -8.60460811692389       -6.45683698105869        9.56362122782115
H           -8.35975845098306       -6.30325491599231        8.50446424016171
H           -9.44024345943809       -5.80856041343334        9.85475332258324
H           -8.92783699273909       -7.51462792192237        9.68093985537135
C           -2.51385211082329       -5.01340055884417       14.49922079933332
H           -1.53125814337886       -5.14868896001967       14.03544538848458
H           -2.90711578443493       -6.01855452358993       14.76494369650406
H           -2.43622664576928       -4.41633682141839       15.41428417742559
C           -1.13342500502841       -2.10977397571591       14.48043085648581
H           -1.23347658302693       -1.64269355902410       15.47629311901222
C            0.06384530736320       -2.83177489285583       14.22926773526444
H            0.26026569463735       -3.29217059425796       13.25322344867049
H            0.83518888243725       -2.97846321513118       14.99394990621926
C           -2.48863827740627        2.58782454673447       12.40004289419259
H           -1.66493345533839        2.01736249752216       11.95240896655440
H           -2.63058223672335        2.28349553269784       13.44637688087097
H           -2.21152824815850        3.66227526109078       12.38036034926713
C           -5.14078572998463        3.67043567564239       10.53458614782450
H           -6.22041438055091        3.61984722477915       10.36911808460290
C           -4.29819068990371        4.75309106626572       10.16674839456142
H           -3.22148864090818        4.74699602486294       10.37932013837244
H           -4.67080770365861        5.64442925066797        9.64372700524600
C           -9.06634913380330        1.30704912130655        7.88756313563712
H           -8.99029730501930        0.92371260730206        6.86312102824385
H           -8.85913798468675        2.40100514126017        7.84986298807237
H          -10.08102249591925        1.16411106164846        8.27887644881731
C           -9.90954733108739       -1.75449793536485        7.35101457485790
H           -9.51870281266542       -1.25698086463522        6.45333403490856
H          -10.70858726431180       -1.15460612112437        7.80164129362528
H          -10.33685618234016       -2.73024729523080        7.03331325781281
C           -7.33060988678720       -1.00017614623044       16.15724625705484
H           -7.57349080315305       -1.94020338390114       16.67781392597417
H           -8.12297188176553       -0.26563831778869       16.36807796720041
H           -6.36812133498705       -0.62644868358141       16.52986338567096
N           -8.31976399557084       -1.73004655230907       13.99924870054381
H           -9.22059603982890       -1.92222788214946       14.39405415505419
C           -7.24529479331744       -1.24424505569268       14.69456147932470
C           -7.96959967697375       -1.90024277888115       12.72332179059024
H           -8.64495391179634       -2.25370463323302       11.95735027405822
N           -6.71491435130451       -1.56323378074892       12.56035066322455
C           -6.24683513153597       -1.09567395367234       13.76380819343494
H           -5.25325055909638       -0.68283443542109       13.84947020548518
C           -5.22704708130905       -0.85582153838607        6.89307043068712
H           -5.15083539948841        0.08035913036177        6.32190511959883
H           -6.27138108024834       -0.98055157943511        7.21704652798379
H           -4.95701591754624       -1.69208329299310        6.22998309468169
C           -4.26886311711973       -0.81588086420115        8.13858649237919
H           -4.53915650277200        0.01568623556765        8.81071591971034
H           -3.22190147676693       -0.67638720582586        7.82566189386895
S           -4.41797261436189       -2.38018020753648        9.02067966413471
C           -2.65912440553584       -2.71802068119302        9.47243939208008
H           -2.26113908256176       -1.91887445525036       10.11128440069207
H           -2.05150278018388       -2.78705209669185        8.56005374427099
H           -2.60231340206696       -3.66715377518126       10.02333346275373
87
 energy: -124.594830529662 gnorm: 0.165638538512 xtb: 6.7.1 (edcfbbe)
Fe          -5.59817345996794       -1.88166709148091       10.99579606595657
N           -6.21916933416097       -3.70580614046516       10.90439368102229
N           -7.11862549058686       -1.27867393541564        9.84837668769454
N           -4.99572103740747       -0.05895067326645       11.14893712931464
N           -4.10546525985922       -2.49724222955282       12.19244840516536
C           -5.75580059680156       -4.89301156966385       11.49248880386075
C           -6.51405837404409       -6.10481058317505       11.08892100145574
C           -7.45967590598242       -5.67075916403521       10.25464971897508
C           -7.26643429876218       -4.19558620495891       10.15389463133226
C           -7.99803833112638       -2.09134384309939        9.17618627107151
C           -8.82131911664705       -1.28941514983469        8.34310336628526
C           -8.46021704020149        0.04601703208468        8.57496316346473
C           -7.39946585359087        0.01812436679767        9.52438759978665
C           -5.53769315373176        1.15488120887983       10.69025674860402
C           -4.72204792890359        2.34556770854839       11.00878237817882
C           -3.66554740870232        1.87484666986309       11.72297980595645
C           -3.85374701843839        0.39549414260229       11.81029458562531
C           -3.12483795173654       -1.74176753395143       12.76256086685453
C           -2.32218280667185       -2.52382030427329       13.66807082638389
C           -2.90094445883928       -3.79604802199833       13.62778015968926
C           -3.96057837176927       -3.75073088592322       12.69542876396477
C           -4.69600161745310       -4.88359844309457       12.34152968142231
H           -4.41023440177584       -5.83673123374663       12.75213785564657
C           -8.07108362495367       -3.48957084171111        9.30596912327434
H           -8.77644550152379       -4.08245667132696        8.72452698165061
C           -6.68714967912702        1.15736944711741        9.95420527954990
H           -7.05581945523925        2.12836063802594        9.65528780135244
C           -2.97441502758866       -0.37432821730168       12.51705665018982
H           -2.09841362237230        0.10367832716233       12.94655681925470
C           -6.20871340126520       -7.51694557919978       11.55244540423431
H           -6.33739041320143       -7.45021121415643       12.62904448787719
H           -5.16163749841005       -7.62833416027627       11.28589405215291
H           -6.73365451926655       -8.44031928790116       11.22187825361997
C           -8.59442802056087       -6.41408518338518        9.55802396841784
H           -8.37722238484598       -6.30517441991349        8.49669970918619
H           -9.46014045320926       -5.81705961616358        9.83695737712733
H           -8.87752129231150       -7.47981744839319        9.70981613907511
C           -2.47684283110610       -4.96844867558997       14.49854461373103
H           -1.50364994074364       -5.16766714092897       14.06566903180755
H           -2.93827824342958       -5.96166423098342       14.71587081515344
H           -2.40487003393858       -4.44007893279699       15.44256629319368
C           -1.10391177707483       -2.18977380813787       14.47481195779020
H           -1.23806929286366       -1.65356602656070       15.44189010035695
C            0.01824437513483       -2.81047057523398       14.24025449601700
H            0.23941375542085       -3.28896187875634       13.27922427858169
H            0.82173573046495       -2.94438537379440       14.97360030692991
C           -2.49357305060010        2.55188936691442       12.39802187923678
H           -1.64417074950771        2.02474288205842       11.96889104006640
H           -2.61074169818475        2.28874174258159       13.45018946691746
H           -2.25850135571621        3.63359598918256       12.35721859563562
C           -5.10094343688351        3.68463834320508       10.51802609055087
H           -6.19019977032578        3.65614236506848       10.36011984439002
C           -4.33282786803266        4.70160503972923       10.18442240074246
H           -3.25216978946984        4.73057103746295       10.37306796803362
H           -4.67766200735641        5.61176558181897        9.67136541320211
C           -9.08688066640571        1.25695254996775        7.88034667406732
H           -9.01771317995790        0.94027303211761        6.84346806155798
H           -8.82356043739948        2.34286879001627        7.88961644043038
H          -10.10525084665350        1.18153053538714        8.25346204108582
C           -9.90304581364305       -1.70842959233644        7.35854115393260
H           -9.54503288130780       -1.25310364962616        6.43665104236705
H          -10.73875941123842       -1.15089324772872        7.77125269451764
H          -10.28476950698575       -2.71645594943949        7.08128963052867
C           -7.32932546391260       -0.99820500339163       16.15814904881994
H           -7.57107426015732       -1.93112254578177       16.67553400323747
H           -8.11522881374464       -0.26983497838873       16.37134003728224
H           -6.37682107099163       -0.62753907830022       16.52811514495058
N           -8.32396612952915       -1.73067247025265       14.00703282008144
H           -9.22742166290911       -1.92430338522419       14.39944253483204
C           -7.24553504787375       -1.23883005169312       14.69418559131669
C           -7.96409107815396       -1.90321381047288       12.72073412193048
H           -8.63374995372379       -2.25428233512389       11.95973618263717
N           -6.71071063190027       -1.55658834684523       12.55948295393332
C           -6.25477250038941       -1.10409526836594       13.76441364418177
H           -5.26423729437908       -0.69362568112247       13.85295368508466
C           -5.21616077700806       -0.85333184404292        6.90272178518366
H           -5.14834979305050        0.07380070317000        6.33084884378267
H           -6.25431323388038       -0.98003257608754        7.21806519895964
H           -4.95726579764126       -1.68390751947962        6.24106060314103
C           -4.27588225732709       -0.80913272449920        8.11704292404696
H           -4.54066823947610        0.00541691637098        8.79922889451838
H           -3.23121681251702       -0.68034472163496        7.82049233978711
S           -4.40397288879746       -2.38704024678305        9.02736752007885
C           -2.65250766046256       -2.71245149923644        9.47134057830098
H           -2.26762263578210       -1.92090950174452       10.10828234520623
H           -2.05812252765444       -2.78749215267597        8.56288771505400
H           -2.61193862989796       -3.65575394540827       10.01542890815439
87
 energy: -124.659765333633 gnorm: 0.085123355165 xtb: 6.7.1 (edcfbbe)
Fe          -5.60157313294735       -1.88646027346733       10.99976277885814
N           -6.25493208915743       -3.76483386687750       10.89387905214294
N           -7.10917026993611       -1.28368378910353        9.85616598383586
N           -4.95391051908241       -0.01243445250589       11.16071871767058
N           -4.11080285365044       -2.50190996771003       12.19564416844575
C           -5.75542404296698       -4.89280344283261       11.48699694877320
C           -6.51066017406910       -6.09481639583744       11.08800953585765
C           -7.46971821897997       -5.66259965850661       10.25647520298327
C           -7.28256748968171       -4.20749304845524       10.13405692035856
C           -7.98610863994900       -2.07012351359967        9.17227376231481
C           -8.81974644414390       -1.27431595261232        8.34058608716811
C           -8.45474667052195        0.04281821652658        8.57260200087319
C           -7.39229520121109        0.00531816908695        9.51826776217157
C           -5.54431034825852        1.13104592447005       10.68548791311236
C           -4.73459827513091        2.32814611355658       11.00357719477008
C           -3.67215309702654        1.85773218531601       11.71606423218418
C           -3.84266922280953        0.40230544746094       11.81088405917479
C           -3.12788676418099       -1.74708607692904       12.75981005929073
C           -2.32982691227614       -2.53803803514293       13.66631128964408
C           -2.90792190672252       -3.80381417461670       13.63097244753190
C           -3.97113779274648       -3.75184513100654       12.69756688937050
C           -4.69337263351948       -4.88806468606666       12.34909338077293
H           -4.39986791682599       -5.83556342611456       12.76737785802067
C           -8.07091143225870       -3.46025957428094        9.29741459740515
H           -8.78504212818336       -4.03161563403828        8.71687421731587
C           -6.69852585643122        1.14438908858074        9.94616033489588
H           -7.07144524030337        2.10955866979023        9.63697503027746
C           -2.96762891452585       -0.38512030700901       12.51892698281013
H           -2.10019443641929        0.08916153756090       12.95995268882849
C           -6.18457451337914       -7.48444972351259       11.57057185109021
H           -6.31007224643493       -7.47200981334746       12.65205344890694
H           -5.14004828831724       -7.65247215683196       11.31307928655003
H           -6.75277264315612       -8.35901229783492       11.19391375759435
C           -8.59005053772945       -6.37672485503565        9.55159550115534
H           -8.40143440490350       -6.30189050325106        8.48053664022364
H           -9.49320394958372       -5.82216941666908        9.80979297207411
H           -8.80679579701229       -7.44496479613499        9.75468812696104
C           -2.44163749016848       -4.93233324137168       14.50010282226858
H           -1.45806168679317       -5.19069929134155       14.11004101609250
H           -2.98541908400391       -5.89743809678417       14.65134053468619
H           -2.35280340590669       -4.46996889483276       15.48362309707575
C           -1.14150666529037       -2.23194599954919       14.48785043034149
H           -1.26927424211333       -1.66740531429217       15.42634151443876
C            0.03812476678853       -2.80603801977070       14.23256443086082
H            0.22982520307665       -3.31508163909386       13.29191485140442
H            0.84454371536908       -2.89405628899965       14.95552111874626
C           -2.50003572993270        2.52090723727679       12.39344553315818
H           -1.61407398812520        2.02959061902845       11.98902710995619
H           -2.58599994678503        2.28996673153382       13.45721599424245
H           -2.32687568537580        3.60681837218511       12.31942769316367
C           -5.10163900752527        3.65981295684539       10.51154604115010
H           -6.18346001669950        3.68822092710541       10.34615483563917
C           -4.32997902609473        4.69083768027476       10.19391912766460
H           -3.25756226518088        4.71161370284156       10.36397590336304
H           -4.68993715796790        5.59452280166761        9.70308596697254
C           -9.10509793937469        1.21264565217673        7.87409699654859
H           -9.06075409489015        0.95716790198587        6.81392400738498
H           -8.76887710402289        2.27381775111000        7.94644984714894
H          -10.14225148623700        1.19758449149809        8.21630962786673
C           -9.89791272521013       -1.66370749496881        7.36600494405884
H           -9.58267876387298       -1.23941482454194        6.41045211598451
H          -10.78231866329664       -1.13630583875245        7.72895570758061
H          -10.21209122855851       -2.70822905568569        7.14968369735275
C           -7.32938522687153       -0.99472524095249       16.15865792494339
H           -7.56905791592968       -1.92406916888572       16.67612105270067
H           -8.11045061080474       -0.26833933881873       16.37829850455746
H           -6.37991483795581       -0.62502705432907       16.52763601231157
N           -8.32915065655047       -1.73209158897533       14.01130160225350
H           -9.23410162300526       -1.92734723556993       14.40324614001701
C           -7.25122585893273       -1.23546947159925       14.69557929079386
C           -7.96113850891751       -1.90587197644891       12.72218153825971
H           -8.62355246133725       -2.25950396621551       11.96020751591261
N           -6.70959420629845       -1.55402779762897       12.55933388552127
C           -6.26045960244989       -1.11119701728240       13.76722604752704
H           -5.27139993628981       -0.70869307020867       13.86189944708790
C           -5.20788636366515       -0.85195947860274        6.90641722040495
H           -5.14316111856358        0.07351891224794        6.33748103773113
H           -6.24019132006607       -0.98044063172331        7.22434385239553
H           -4.95309978625633       -1.68108702044265        6.24867373048103
C           -4.27554258513604       -0.80953103775729        8.10499829718870
H           -4.54397607462267       -0.00257442718832        8.78624332969496
H           -3.23478438354073       -0.68601200068703        7.80834918847873
S           -4.39661461420371       -2.39153534476426        9.03416753998391
C           -2.64894643270872       -2.70491899796882        9.46897939454489
H           -2.27170599674758       -1.91577037876607       10.10832533236494
H           -2.06177475850734       -2.78706409913519        8.55977845081024
H           -2.62403039801440       -3.64704577686062       10.00945901746977
87
 energy: -124.688431438885 gnorm: 0.058561084392 xtb: 6.7.1 (edcfbbe)
Fe          -5.60356411107899       -1.89077909931892       10.99995060813298
N           -6.27363426929163       -3.79848536747941       10.88927765985121
N           -7.09922158563551       -1.28118126290479        9.85072315969521
N           -4.94107485087344        0.01325535166093       11.16116311153289
N           -4.11945620853886       -2.50642618475043       12.20350405814810
C           -5.76265795394875       -4.89944264891768       11.48307474099881
C           -6.50937091926495       -6.09345369056101       11.08857247041129
C           -7.47968644683017       -5.66408399480498       10.25117889532557
C           -7.29816257276425       -4.22364509225907       10.12170671377760
C           -7.97840966892787       -2.06371198860286        9.16813509158154
C           -8.82243408038080       -1.26137513153241        8.33694878488154
C           -8.45971964222616        0.04337048188171        8.56637018484760
C           -7.38362684230366        0.00600663750915        9.51120748791769
C           -5.53728097153691        1.12770480250430       10.68531963537716
C           -4.73237838715709        2.32192883491829       11.00148815421036
C           -3.66359708368475        1.85718887054137       11.71227925422275
C           -3.82650229139476        0.41843322094401       11.81239320718088
C           -3.13156978282157       -1.75216151939576       12.76111049622234
C           -2.32716822811322       -2.54915781765969       13.65596179970449
C           -2.89662109533734       -3.80429204448251       13.63703219455498
C           -3.97802351238499       -3.75774399248628       12.70650605897663
C           -4.69937675928778       -4.89190487072107       12.35519370148226
H           -4.39474736454768       -5.83322498789014       12.78287865943604
C           -8.07452338754443       -3.44308686840171        9.28986371141314
H           -8.80311839675035       -3.97982186847745        8.70281531982521
C           -6.69772265628636        1.13744087301879        9.93955485306869
H           -7.08043240506496        2.09370280279911        9.61876080723422
C           -2.95661978318979       -0.39622975526539       12.52671477471551
H           -2.09633006241982        0.07190599090842       12.97931447181709
C           -6.16885956718675       -7.46068942705500       11.58269888377929
H           -6.28592310410112       -7.48916010479307       12.66847463316308