78
 energy: -115.934435843688 gnorm: 0.327223257771 xtb: 6.7.1 (edcfbbe)
Fe          32.47500000000000        9.53400000000000       15.18000000000000
N           33.81700000000000       10.86700000000000       15.82700000000000
N           31.12400000000000       11.00200000000000       14.81100000000000
N           31.06300000000000        8.16800000000000       14.60000000000000
N           33.76200000000000        8.03400000000000       15.57600000000000
C           35.13399999999999       10.65800000000000       16.21500000000000
C           35.75300000000000       11.90200000000000       16.53500000000000
C           34.85299999999999       12.88100000000000       16.36100000000000
C           33.61800000000000       12.23700000000000       15.91900000000000
C           31.33400000000000       12.36100000000000       15.02500000000000
C           30.17899999999999       13.10500000000000       14.64600000000000
C           29.26200000000000       12.20500000000000       14.23000000000000
C           29.88600000000000       10.89200000000000       14.31800000000000
C           29.78000000000000        8.40800000000000       14.22900000000000
C           29.04700000000000        7.12600000000000       14.09700000000000
C           29.92400000000000        6.14700000000000       14.36700000000000
C           31.19600000000000        6.80700000000000       14.71900000000000
C           33.50300000000000        6.70000000000000       15.51800000000000
C           34.66800000000000        5.95000000000000       16.02800000000000
C           35.59300000000000        6.84300000000000       16.33500000000000
C           35.02900000000000        8.15200000000000       16.15500000000000
C           35.71700000000000        9.36500000000000       16.34000000000000
H           36.77500000000000        9.31100000000000       16.59800000000000
C           32.49900000000000       12.90800000000000       15.57600000000000
H           32.50200000000000       13.98500000000000       15.74500000000000
C           29.28000000000000        9.67900000000000       13.99500000000000
H           28.30800000000000        9.73600000000000       13.50600000000000
C           32.36300000000000        6.15600000000000       15.05300000000000
H           32.36300000000000        5.07400000000000       14.92600000000000
C           35.01600000000000       14.39000000000000       16.49600000000000
H           36.06300000000000       14.62600000000000       16.78300000000000
H           34.33200000000000       14.77200000000000       17.28300000000000
H           34.78899999999999       14.88000000000000       15.52500000000000
C           37.22600000000000       12.11700000000000       16.97000000000000
H           37.82300000000000       12.46500000000000       16.10000000000000
H           37.65200000000000       11.16000000000000       17.33900000000000
H           37.27300000000000       12.88700000000000       17.77000000000000
C           30.02300000000000       14.62500000000000       14.78600000000000
H           30.97900000000000       15.12200000000000       14.51500000000000
H           29.76900000000000       14.88100000000000       15.83700000000000
H           29.22400000000000       14.98500000000000       14.10300000000000
C           27.84100000000000       12.46000000000000       13.66400000000000
H           27.48100000000000       11.95400000000000       12.75700000000000
C           26.93500000000000       13.43500000000000       14.39000000000000
H           27.28200000000000       13.94900000000000       15.29900000000000
H           25.92100000000000       13.63900000000000       14.01600000000000
C           27.56700000000000        7.05000000000000       13.64100000000000
H           27.51500000000000        7.13900000000000       12.53500000000000
H           26.99100000000000        7.88300000000000       14.09700000000000
H           27.13000000000000        6.07500000000000       13.94500000000000
C           29.80800000000000        4.62600000000000       14.40600000000000
H           30.74500000000000        4.06000000000000       14.49600000000000
C           28.60500000000000        3.80800000000000       14.33900000000000
H           27.61500000000000        4.27800000000000       14.24800000000000
H           28.67300000000000        2.71100000000000       14.37900000000000
C           34.69700000000000        4.42100000000000       16.14700000000000
H           34.54700000000000        3.96800000000000       15.14400000000000
H           33.88199999999999        4.08100000000000       16.82100000000000
H           35.68100000000000        4.09400000000000       16.54600000000000
C           36.95000000000000        6.58600000000000       17.09900000000000
H           37.78199999999999        6.52200000000000       16.36600000000000
H           36.88999999999999        5.62900000000000       17.66000000000000
H           37.15100000000000        7.42400000000000       17.80000000000000
O           31.58800000000000        9.25500000000000       17.09200000000000
H           30.79400000000000        8.74200000000000       16.94200000000000
H           31.88400000000000        9.54900000000000       17.87700000000000
C           33.62800000000000        8.74200000000000        9.63100000000000
H           34.60600000000000        8.24800000000000        9.44700000000000
H           33.50600000000000        9.57900000000000        8.91100000000000
H           32.81600000000000        7.99700000000000        9.48800000000000
N           34.44800000000000       10.20000000000000       11.57200000000000
H           35.18900000000000       10.63300000000000       11.05900000000000
C           33.58900000000000        9.28200000000000       11.06400000000000
C           34.13600000000000       10.42400000000000       12.86200000000000
H           34.66399999999999       11.12700000000000       13.50600000000000
N           33.09600000000000        9.65500000000000       13.20300000000000
C           32.74400000000000        8.90900000000000       12.10000000000000
H           31.93700000000000        8.18800000000000       12.14100000000000
78
 energy: -116.016396325539 gnorm: 0.131181332312 xtb: 6.7.1 (edcfbbe)
Fe          32.47037013623932        9.53002558036307       15.15580034980981
N           33.82439165181224       10.86554587872768       15.83130760875834
N           31.12197512151543       11.01362629355417       14.81283625822350
N           31.05077156491075        8.15010047426804       14.62305976964206
N           33.76879630130134        8.04211483363652       15.60076496603776
C           35.12764245298170       10.64699188376642       16.21857447483347
C           35.76866476528399       11.89821890402073       16.53436992083477
C           34.85143174116799       12.88214142962041       16.35723728997344
C           33.62979564984684       12.22676085153236       15.91395224319000
C           31.32621310094143       12.35842208491813       15.03037458090725
C           30.16085604220137       13.10867415234040       14.65389209004358
C           29.22997568478965       12.20786519586861       14.21089137847095
C           29.87488831167759       10.89382828535719       14.30656090569908
C           29.77417460465053        8.39885674588894       14.22396307053604
C           29.03987927971080        7.13014779154182       14.08136575869009
C           29.91618389218167        6.12102585703119       14.36863363217532
C           31.18595765287878        6.79281047123889       14.70426813262626
C           33.51853442569307        6.70722668685855       15.51863959798873
C           34.66467411616377        5.94360621877237       16.02580237485831
C           35.60053825693466        6.85167906377422       16.37413950240306
C           35.04072785883721        8.16564083672343       16.12660088884787
C           35.70501966410635        9.37133902704711       16.32897572009253
H           36.75470185320333        9.31632287905117       16.60340240094066
C           32.48893197717982       12.90536918394537       15.57076442393093
H           32.49574730802112       13.97815035416430       15.73619919688053
C           29.27023318185007        9.67544873582498       13.99117508631388
H           28.29710529785291        9.73467513318751       13.51928626570236
C           32.35764512014217        6.14440669767705       15.04809557688702
H           32.37149866876348        5.06774541820195       14.93804331781904
C           35.01558768803971       14.37484302052486       16.49742246924800
H           36.04593969742573       14.62183023361763       16.77878801269553
H           34.34086561369252       14.76763344408500       17.26873127017484
H           34.79098905742083       14.87190386741198       15.54431160864210
C           37.21278191674436       12.10840779885858       16.96440190489308
H           37.81272438322706       12.45696541609091       16.11298010000031
H           37.64657737446997       11.17509900061195       17.33597817935040
H           37.26947020723118       12.86755198646298       17.75491859850063
C           30.02562757737250       14.60990155880310       14.78241346653174
H           30.96512318070504       15.11199720302436       14.51901431998752
H           29.77245494128199       14.87715904984326       15.81724064628383
H           29.23498821643843       14.97551495877793       14.11656383774040
C           27.83491531671050       12.49738054366481       13.72204573107156
H           27.49173696889730       11.98342091343470       12.81705862682969
C           26.98455267198172       13.39160408201604       14.35652977070319
H           27.29073579997968       13.91180221591592       15.26174160544122
H           25.97429303391868       13.60733776165024       14.00434090299437
C           27.58620483395594        7.05639143652181       13.64519433268450
H           27.51899537171976        7.13945402851965       12.55243354126605
H           27.00434964082767        7.87097552454555       14.09150741815969
H           27.13909728656462        6.10269845553290       13.94132206057192
C           29.77060772051540        4.63333822796886       14.40227375280942
H           30.70927499359907        4.08118888532620       14.49353220488945
C           28.64531315089349        3.85224168107621       14.33846276030275
H           27.64935273702972        4.27440065236209       14.25256517805587
H           28.69761601242099        2.76329591708718       14.37948361285018
C           34.69630846973299        4.43600494727770       16.14051363731700
H           34.55000052983558        3.97350167057074       15.15661505984320
H           33.89619040434855        4.08870436745396       16.80760693800780
H           35.66122712082250        4.10105739440280       16.53909617955171
C           36.93436476049941        6.59190527545031       17.08661618406356
H           37.76479478643260        6.52513143894519       16.37209980475338
H           36.88658483218442        5.65038792408831       17.64651339981972
H           37.14352847871510        7.40752660534988       17.78699406967346
O           31.58544986094878        9.25275212126847       17.07895827747862
H           30.78661257976883        8.73998712792333       16.96084905285480
H           31.88464793705153        9.55507835890907       17.91505620460807
C           33.63114812972653        8.74712214288725        9.64374483310356
H           34.59298260039850        8.25580876156481        9.44871810868627
H           33.50709435888052        9.56540213519473        8.92286258474004
H           32.83083392729166        8.01505781010446        9.49496316422509
N           34.44378608557973       10.19675969456912       11.56059600399124
H           35.18928092985606       10.63466175657532       11.04819193798920
C           33.58492887204955        9.26632498108650       11.05871027976931
C           34.13076670789469       10.41523125404352       12.85436735870349
H           34.65070821146541       11.11168982799651       13.49343801527169
N           33.11320509109611        9.65115830362616       13.20519653794061
C           32.75620036631312        8.92235924160034       12.10206564088928
H           31.95185388320449        8.20828204647420       12.14299403092395
78
 energy: -116.035317199573 gnorm: 0.075490683463 xtb: 6.7.1 (edcfbbe)
Fe          32.46248789997512        9.52258010301164       15.14232455665745
N           33.82739087777242       10.86878940295857       15.82590318972390
N           31.11793549033199       11.01651399541125       14.80467030272424
N           31.04614156930935        8.13596255786251       14.62748319137964
N           33.77819003415756        8.04464251946307       15.59646469221143
C           35.11745777906730       10.64037455000109       16.21311942213405
C           35.77501889113887       11.89415261314578       16.53010649179187
C           34.84614524278030       12.87758282582533       16.34719343829668
C           33.63524628958238       12.21770342507655       15.90263554748264
C           31.31898517005800       12.34643325785972       15.03234034948532
C           30.14484870386151       13.10317143670767       14.66794275513782
C           29.21075593302205       12.20404613755660       14.20824505515803
C           29.86308385187315       10.88941318152006       14.29781902833700
C           29.77163866017378        8.39187786989141       14.21791044355679
C           29.04006256457417        7.14001324240355       14.06755590479890
C           29.91610385782533        6.11522621182831       14.36323758711317
C           31.18134099335134        6.78493758911230       14.69541580053729
C           33.52903131445179        6.71242319057486       15.51191906682058
C           34.66018920986382        5.94745524015168       16.01668622322315
C           35.60043199166368        6.86035533309783       16.39360804809593
C           35.03782903315878        8.17314608980123       16.10819820198435
C           35.68795354332850        9.37701953194845       16.32531719879120
H           36.72990654273273        9.32307889956001       16.61821721600926
C           32.47825300663953       12.89763287321967       15.56204227039886
H           32.48847452073978       13.96744563857524       15.72216168066903
C           29.25799801373114        9.67080968519301       13.99247275329052
H           28.27603079080891        9.73025236103215       13.54512409211161
C           32.35519310215057        6.13584726939937       15.04709830291923
H           32.35563664760780        5.05886943232591       14.96989020649328
C           35.01326752710922       14.35655636661892       16.49667690710395
H           36.03391772166727       14.60668473102229       16.77737846705531
H           34.34254013550395       14.75422733529412       17.25884563944304
H           34.78977672047692       14.86151987259683       15.55589026666159
C           37.19613352302560       12.09566464316647       16.95787649169040
H           37.80101556472839       12.44538397046421       16.11877147712181
H           37.63659591121729       11.17680952616300       17.33254379618660
H           37.25739321397270       12.84878831580504       17.74320810133175
C           30.02291013604017       14.58994212817526       14.78157701820191
H           30.95519534131004       15.08812124392163       14.51804542891421
H           29.77401632460170       14.87274548854704       15.80610965895920
H           29.23790073446458       14.96057505680666       14.12531437871643
C           27.84837992222338       12.51083460818025       13.75763251545728
H           27.51303008022854       11.98234748723446       12.86405674268337
C           27.04419304567784       13.34378048814639       14.34107033156421
H           27.31254753607638       13.87943682941888       15.24190877581719
H           26.04379687947135       13.56756569273206       13.98618228697810
C           27.60722106041479        7.06404598075384       13.64750404602971
H           27.52697777868525        7.14530778767196       12.56190349366393
H           27.02480833054714        7.87005810772550       14.08980485126866
H           27.15587769244316        6.12251586722269       13.94271032835009
C           29.75628900198120        4.66047700834205       14.39427209286386
H           30.69713029193240        4.12224420234954       14.49282110597032
C           28.67556769527440        3.90786194424010       14.33853138891961
H           27.67008453178339        4.28827467646082       14.25431908577912
H           28.72707953462204        2.82579375354849       14.37884215712892
C           34.69573480601701        4.45705904838495       16.13439325783453
H           34.55162074650342        3.98699482227697       15.16179316609197
H           33.90420656396359        4.10305516934965       16.79698879936086
H           35.64988906579814        4.11839375405534       16.53266940737176
C           36.90953942272702        6.60333036296535       17.07460884863093
H           37.73501423460353        6.53574432669160       16.36446452254608
H           36.87483864933142        5.66707974946838       17.62985057651742
H           37.13605424415751        7.40198074505911       17.77792148858304
O           31.58466255321935        9.26146513959920       17.08582292591730
H           30.78155833642193        8.74228231473602       17.01295238930726
H           31.87248639487051        9.55239665803907       17.94810313545332
C           33.63170339321323        8.75111474502897        9.65682178730164
H           34.58592002818294        8.26436785055109        9.45510439201063
H           33.50690800819301        9.56187465437458        8.93924519379433
H           32.83796965497471        8.02687177450865        9.50349472930261
N           34.44271454644267       10.19613592902567       11.54721618624458
H           35.18735805607096       10.63857200162680       11.03318142261361
C           33.58093612781812        9.25307634919848       11.05697011860345
C           34.13391318140700       10.40645207144986       12.84620725508600
H           34.64727445102088       11.10076809301147       13.47891215317119
N           33.13162813974273        9.64809949822957       13.21302213905189
C           32.77047909861286        8.92843031767963       12.11091714679939
H           31.96418253549668        8.22413504756620       12.14943910721223
78
 energy: -116.035317205601 gnorm: 0.075489578069 xtb: 6.7.1 (edcfbbe)
Fe          32.46248789997512        9.52258010301164       15.14232455665745
N           33.82739087777242       10.86878940295857       15.82590318972390
N           31.11793549033199       11.01651399541125       14.80467030272424
N           31.04614156930935        8.13596255786251       14.62748319137964
N           33.77819003415756        8.04464251946307       15.59646469221143
C           35.11745777906730       10.64037455000109       16.21311942213405
C           35.77501889113887       11.89415261314578       16.53010649179187
C           34.84614524278030       12.87758282582533       16.34719343829668
C           33.63524628958238       12.21770342507655       15.90263554748264
C           31.31898517005800       12.34643325785972       15.03234034948532
C           30.14484870386151       13.10317143670767       14.66794275513782
C           29.21075593302205       12.20404613755660       14.20824505515803
C           29.86308385187315       10.88941318152006       14.29781902833700
C           29.77163866017378        8.39187786989141       14.21791044355679
C           29.04006256457417        7.14001324240355       14.06755590479890
C           29.91610385782533        6.11522621182831       14.36323758711317
C           31.18134099335134        6.78493758911230       14.69541580053729
C           33.52903131445179        6.71242319057486       15.51191906682058
C           34.66018920986382        5.94745524015168       16.01668622322315
C           35.60043199166368        6.86035533309783       16.39360804809593
C           35.03782903315878        8.17314608980123       16.10819820198435
C           35.68795354332850        9.37701953194845       16.32531719879120
H           36.72990654273273        9.32307889956001       16.61821721600926
C           32.47825300663953       12.89763287321967       15.56204227039886
H           32.48847452073978       13.96744563857524       15.72216168066903
C           29.25799801373114        9.67080968519301       13.99247275329052
H           28.27603079080891        9.73025236103215       13.54512409211161
C           32.35519310215057        6.13584726939937       15.04709830291923
H           32.35563664760780        5.05886943232591       14.96989020649328
C           35.01326752710922       14.35655636661892       16.49667690710395
H           36.03391772166727       14.60668473102229       16.77737846705531
H           34.34254013550395       14.75422733529412       17.25884563944304
H           34.78977672047692       14.86151987259683       15.55589026666159
C           37.19613352302560       12.09566464316647       16.95787649169040
H           37.80101556472839       12.44538397046421       16.11877147712181
H           37.63659591121729       11.17680952616300       17.33254379618660
H           37.25739321397270       12.84878831580504       17.74320810133175
C           30.02291013604017       14.58994212817526       14.78157701820191
H           30.95519534131004       15.08812124392163       14.51804542891421
H           29.77401632460170       14.87274548854704       15.80610965895920
H           29.23790073446458       14.96057505680666       14.12531437871643
C           27.84837992222338       12.51083460818025       13.75763251545728
H           27.51303008022854       11.98234748723446       12.86405674268337
C           27.04419304567784       13.34378048814639       14.34107033156421
H           27.31254753607638       13.87943682941888       15.24190877581719
H           26.04379687947135       13.56756569273206       13.98618228697810
C           27.60722106041479        7.06404598075384       13.64750404602971
H           27.52697777868525        7.14530778767196       12.56190349366393
H           27.02480833054714        7.87005810772550       14.08980485126866
H           27.15587769244316        6.12251586722269       13.94271032835009
C           29.75628900198120        4.66047700834205       14.39427209286386
H           30.69713029193240        4.12224420234954       14.49282110597032
C           28.67556769527440        3.90786194424010       14.33853138891961
H           27.67008453178339        4.28827467646082       14.25431908577912
H           28.72707953462204        2.82579375354849       14.37884215712892
C           34.69573480601701        4.45705904838495       16.13439325783453
H           34.55162074650342        3.98699482227697       15.16179316609197
H           33.90420656396359        4.10305516934965       16.79698879936086
H           35.64988906579814        4.11839375405534       16.53266940737176
C           36.90953942272702        6.60333036296535       17.07460884863093
H           37.73501423460353        6.53574432669160       16.36446452254608
H           36.87483864933142        5.66707974946838       17.62985057651742
H           37.13605424415751        7.40198074505911       17.77792148858304
O           31.58466255321935        9.26146513959920       17.08582292591730
H           30.78155833642193        8.74228231473602       17.01295238930726
H           31.87248639487051        9.55239665803907       17.94810313545332
C           33.63170339321323        8.75111474502897        9.65682178730164
H           34.58592002818294        8.26436785055109        9.45510439201063
H           33.50690800819301        9.56187465437458        8.93924519379433
H           32.83796965497471        8.02687177450865        9.50349472930261
N           34.44271454644267       10.19613592902567       11.54721618624458
H           35.18735805607096       10.63857200162680       11.03318142261361
C           33.58093612781812        9.25307634919848       11.05697011860345
C           34.13391318140700       10.40645207144986       12.84620725508600
H           34.64727445102088       11.10076809301147       13.47891215317119
N           33.13162813974273        9.64809949822957       13.21302213905189
C           32.77047909861286        8.92843031767963       12.11091714679939
H           31.96418253549668        8.22413504756620       12.14943910721223
78
 energy: -116.041417240112 gnorm: 0.024686482028 xtb: 6.7.1 (edcfbbe)
Fe          32.45870636211286        9.51845216406352       15.14346738138005
N           33.82227818361605       10.86822850964487       15.81510648118030
N           31.12249369776540       11.00532838481741       14.80030118165014
N           31.05045537883915        8.13986006745922       14.62437645880211
N           33.77182537781740        8.04766613338727       15.58928230925588
C           35.10849515705631       10.63844757935878       16.20453490881018
C           35.76866636961442       11.88822499295066       16.52225994281162
C           34.84224779043856       12.87056357171417       16.33565601885541
C           33.63385595383990       12.21411437045124       15.88812566815698
C           31.32076170663297       12.33251471324718       15.03105711787173
C           30.14593489934046       13.08797250109563       14.67474085502409
C           29.22486940874045       12.18538768723152       14.21195496661152
C           29.86754651087274       10.87652142644357       14.29882492549161
C           29.77642791611961        8.39491027174511       14.21483489276213
C           29.04681403089944        7.15269103976075       14.05799976963319
C           29.92350764704472        6.13318700159072       14.35323405586300
C           31.18492450317160        6.79096823926506       14.69055941398623
C           33.52348202385291        6.71664153243240       15.50777511963028
C           34.65223763021235        5.95745057779079       16.01317299137079
C           35.58825943727738        6.86960667948457       16.39337538255614
C           35.02831664626642        8.17708431394445       16.10005683533612
C           35.67812529999112        9.37895467518427       16.32292587260530
H           36.71103533133697        9.32647362114872       16.64161339999085
C           32.47652692155390       12.89176681638894       15.55111176410808
H           32.48388065283859       13.96171220802333       15.70441966326202
C           29.25329332665531        9.66742328712902       13.99949834930733
H           28.25596944919642        9.72577075669577       13.58416935501572
C           32.35128860674914        6.13592785655731       15.05244729020622
H           32.34582369352733        5.05662548179362       15.00394757588233
C           35.00893648818855       14.34577800997988       16.49467731827662
H           36.02939979155021       14.59041267423071       16.78063712575939
H           34.33502483337162       14.73741139356731       17.25734595636129
H           34.78752335644290       14.85654577350816       15.55676741369886
C           37.18708678725805       12.08117562992250       16.95419370086964
H           37.79614286159605       12.42863544697509       16.11691658174184
H           37.62247824418521       11.15996582054105       17.33055257246470
H           37.24624289705887       12.83308345806427       17.74073719329676
C           30.01981822274260       14.57234155157986       14.78219680865082
H           30.95275865280116       15.06518404323209       14.51114422140194
H           29.77429682313552       14.86387976981073       15.80516040683177
H           29.23227075618083       14.93786180142914       14.12579580228932
C           27.87003307630007       12.47643193125231       13.75765000616257
H           27.53822171530264       11.93906154573100       12.87265918796692
C           27.05211831558123       13.33691428740441       14.34150035682499
H           27.31916249992793       13.87002668082883       15.24193916426342
H           26.05851373683195       13.55198528122022       13.97354884864719
C           27.61522625559047        7.07985185240550       13.64254856315678
H           27.53143798820265        7.16041070470238       12.55708671087700
H           27.03938734107590        7.88880202455862       14.08858265958822
H           27.16464154433930        6.14038538247798       13.94363463468326
C           29.76828450685779        4.68850846670756       14.38588243132888
H           30.70873675374223        4.15497841847356       14.48607454917816
C           28.67769708907242        3.93142884363706       14.33129210173719
H           27.67294414640017        4.30990327050715       14.25192570299511
H           28.73986665958880        2.85356530907782       14.37885016832623
C           34.69369008776476        4.46956175082727       16.12705052987269
H           34.55209165636208        4.00067681574986       15.15318444975677
H           33.90253119017003        4.11420110971169       16.78911337360014
H           35.64917752397039        4.13679112319103       16.52664593226045
C           36.89934708431645        6.61429660535297       17.06476461393691
H           37.71619590908089        6.55196429306691       16.34347312207571
H           36.86739302756819        5.67468829272942       17.61459346611854
H           37.13042806327281        7.40973834168931       17.77056707418426
O           31.58171497709393        9.27817640056899       17.11446972336898
H           30.78366112138095        8.74749636369946       17.07440227634363
H           31.86615711424049        9.55266425913294       17.98387320474685
C           33.62868662833594        8.75142925605742        9.66299151748258