87
 energy: -128.414296462281 gnorm: 0.275356202630 xtb: 6.7.1 (edcfbbe)
Fe          37.14099999999999       25.27400000000000       33.90200000000000
N           36.92800000000000       23.47400000000000       34.75100000000000
N           36.22300000000000       24.60500000000000       32.24800000000000
N           37.38100000000000       27.06700000000000       33.05700000000000
N           38.01899999999999       25.93300000000000       35.53100000000000
C           37.43400000000000       23.04900000000000       35.93599999999999
C           37.15799999999999       21.61400000000000       36.17500000000000
C           36.39600000000000       21.21900000000000       35.07399999999999
C           36.32900000000000       22.35100000000000       34.22300000000000
C           35.67100000000000       23.35300000000000       32.04700000000000
C           35.11200000000000       23.21500000000000       30.73400000000000
C           35.30400000000000       24.45100000000000       30.16200000000000
C           35.98700000000000       25.26700000000000       31.11400000000000
C           37.04499999999999       27.40600000000000       31.77700000000000
C           37.49700000000000       28.77600000000000       31.51300000000000
C           38.05200000000000       29.22200000000000       32.61400000000000
C           37.97900000000000       28.17599999999999       33.62200000000000
C           38.47900000000000       27.22400000000000       35.80000000000000
C           39.04200000000000       27.30700000000000       37.15799999999999
C           38.96000000000000       26.04100000000000       37.67800000000000
C           38.35700000000000       25.18600000000000       36.69900000000000
C           38.09100000000000       23.90300000000000       36.87900000000000
H           38.39800000000000       23.45799999999999       37.82500000000000
C           35.70800000000000       22.31600000000000       32.96800000000000
H           35.20800000000000       21.38900000000000       32.68900000000000
C           36.35599999999999       26.58900000000000       30.91300000000000
H           36.06600000000000       27.03100000000000       29.96000000000000
C           38.45100000000000       28.24100000000000       34.90800000000000
H           38.84000000000000       29.20200000000000       35.24299999999999
C           35.83400000000000       19.83500000000000       34.82099999999999
H           35.96200000000000       19.21100000000000       35.73099999999999
H           36.37700000000000       19.35800000000000       33.97800000000000
H           34.75100000000000       19.90700000000000       34.58300000000000
C           37.61199999999999       20.83400000000000       37.34000000000000
H           36.84900000000000       20.89200000000000       38.14500000000000
H           38.56900000000000       21.25000000000000       37.71999999999999
H           37.74900000000000       19.77100000000000       37.04900000000000
C           34.44499999999999       22.03900000000000       30.24200000000000
H           33.40000000000000       22.02000000000000       30.62000000000000
H           34.97400000000000       21.13000000000000       30.60000000000000
H           34.42600000000000       22.05500000000000       29.13100000000000
C           34.97999999999999       24.85700000000000       28.77300000000000
H           35.65900000000000       25.55800000000000       28.26600000000000
C           33.92300000000000       24.44600000000000       28.06500000000000
H           33.19700000000000       23.74500000000000       28.50200000000000
H           33.76600000000000       24.80400000000000       27.03700000000000
C           37.32999999999999       29.41300000000000       30.12100000000000
H           36.28600000000000       29.77199999999999       30.00000000000000
H           37.54400000000000       28.65800000000000       29.33500000000000
H           38.02200000000000       30.27600000000000       30.01800000000000
C           38.66700000000000       30.57600000000000       32.91100000000000
H           39.46900000000000       30.65600000000000       33.65900000000000
C           38.29600000000000       31.64399999999999       32.32800000000000
H           37.49800000000000       31.61900000000000       31.57100000000000
H           38.76800000000000       32.60700000000000       32.57300000000000
C           39.58200000000000       28.53300000000000       37.76100000000000
H           38.78599999999999       29.30700000000000       37.80300000000000
H           40.42400000000000       28.91500000000000       37.14500000000000
H           39.93300000000000       28.32000000000000       38.79300000000000
C           39.40800000000000       25.58200000000000       39.02300000000000
H           39.49700000000000       26.45600000000000       39.70300000000000
H           40.39899999999999       25.08800000000000       38.94000000000000
H           38.66400000000000       24.87300000000000       39.44400000000000
C           31.73200000000000       25.76600000000000       35.30200000000000
H           31.19400000000000       26.55800000000000       34.73800000000000
H           31.45700000000000       25.83800000000000       36.37600000000000
H           31.43700000000000       24.77300000000000       34.89999999999999
N           33.86000000000000       27.12400000000000       35.55600000000000
H           33.41400000000000       27.88300000000000       36.03000000000000
C           33.23400000000000       25.96000000000000       35.14200000000000
C           35.14899999999999       27.04100000000000       35.20800000000000
H           35.87700000000000       27.83400000000000       35.37900000000000
N           35.38400000000000       25.87100000000000       34.63900000000000
C           34.20000000000000       25.16700000000000       34.62600000000000
H           34.15800000000000       24.15400000000000       34.24500000000000
C           41.46699999999999       22.42300000000000       31.77199999999999
H           42.40400000000000       22.41300000000000       32.36900000000000
H           41.72300000000000       22.58300000000000       30.70300000000000
H           40.94899999999999       21.44800000000000       31.89699999999999
N           40.91100000000000       24.85700000000000       32.24900000000000
H           41.77100000000000       25.23699999999999       31.90800000000000
C           40.57600000000000       23.53800000000000       32.25400000000000
C           39.88000000000000       25.53800000000000       32.78200000000000
H           39.88800000000000       26.62200000000000       32.89400000000000
N           38.88800000000000       24.74500000000000       33.14100000000000
C           39.34999999999999       23.47300000000000       32.76000000000000
H           38.71000000000000       22.61100000000000       32.90200000000000
87
 energy: -128.455425084845 gnorm: 0.107699043774 xtb: 6.7.1 (edcfbbe)
Fe          37.14894476035117       25.26935250977290       33.90810721723015
N           36.93523454903210       23.45729071579176       34.75255464982566
N           36.22280382647833       24.60039787703755       32.25477647610332
N           37.37926487742024       27.07041817586121       33.05835416810298
N           38.03864087948779       25.93136980156084       35.54128571331006
C           37.43321543726582       23.04106419160984       35.93978534940425
C           37.15433003770341       21.63026727674485       36.16668850446693
C           36.41104728648465       21.22216928154443       35.08296608719917
C           36.31737422437293       22.35542859875864       34.22000904329499
C           35.68246792729605       23.35436892517948       32.05584942087458
C           35.10963563257562       23.23927117768727       30.74247833794756
C           35.30584259225092       24.46145699506831       30.14607979600225
C           35.99484751531021       25.27753645475100       31.11144225046412
C           37.04495145590409       27.41156093005782       31.78086513646015
C           37.48757574993042       28.77149102716217       31.49520068252807
C           38.06016755874654       29.23288798806509       32.62662555146415
C           37.98072814416331       28.16908112696330       33.61167335568387
C           38.47683396866130       27.20509277153684       35.80604771636144
C           39.03659617183931       27.29557385423519       37.14799668476913
C           38.95722827615842       26.04555681601162       37.67411927150833
C           38.34347119792368       25.19695859198444       36.68722212174249
C           38.08100407576012       23.87700760563879       36.86640863412155
H           38.38937357331442       23.43585467596401       37.80775234700100
C           35.70588823417248       22.31966801396000       32.97346491144273
H           35.21711283027520       21.39382653689618       32.69282237427095
C           36.36196693988377       26.59916722050707       30.90276378276361
H           36.07602663973168       27.03476825912387       29.95268428345915
C           38.44934999242837       28.24293428350108       34.90685005662156
H           38.84104744111685       29.19911542936824       35.23912990999592
C           35.84476928035784       19.85255772851359       34.82621134019528
H           35.96017256035729       19.22343195876568       35.71400259485745
H           36.36290586409796       19.36659496943459       33.99041817970987
H           34.77631600613928       19.90676871324107       34.58554594091044
C           37.60668204397456       20.84082363123802       37.33790233093029
H           36.86388575825285       20.88532789695652       38.14515792301747
H           38.55403090384456       21.23318550889439       37.72090151995245
H           37.74953597141295       19.78964008825017       37.06308972883971
C           34.44132526916033       22.03552872159902       30.23554178477292
H           33.40632599510953       22.00041866337001       30.60275844823042
H           34.95560937624467       21.13164033829714       30.58175863121951
H           34.42245755893158       22.03788266881314       29.14097987569690
C           34.97828802550602       24.85810998489439       28.77676107420837
H           35.65818103555531       25.55696852343019       28.29024609829395
C           33.92821346573436       24.44307643179931       28.07137494700124
H           33.19519859293445       23.76635175082577       28.49229964605453
H           33.76581015459564       24.78867506459984       27.05633562501189
C           37.33111811957088       29.40719972913821       30.13366015294612
H           36.30362681589307       29.76584906281208       30.00148779243916
H           37.54153367054047       28.67223309888772       29.35116961542873
H           38.01506399882599       30.25302933217519       30.01717622068445
C           38.66798224642380       30.55225193446687       32.90954250946379
H           39.45707067298022       30.60998371005607       33.65774782813018
C           38.28854255186447       31.66398258685379       32.31499522710737
H           37.49399862012540       31.65806585200195       31.58060119325838
H           38.75250120429536       32.61422995020081       32.55458865539581
C           39.57824917105362       28.53271330162769       37.75654590766603
H           38.80376334772888       29.30845715898876       37.80396239872451
H           40.41460235402356       28.91956965545878       37.16244538455219
H           39.93339453946218       28.33689034617090       38.77344365717767
C           39.40604364421576       25.58700851681411       39.02047678614694
H           39.50116596020298       26.43776875984908       39.70246124773166
H           40.38124958527062       25.08985260472956       38.95085246444933
H           38.68332872478517       24.88408260376827       39.44712563507121
C           31.74331377022337       25.76840017948019       35.30745469309049
H           31.20350249501609       26.54349703493693       34.75096037384323
H           31.45503785217261       25.83302364981003       36.36164044444472
H           31.44998102249612       24.79264475298040       34.91315295470854
N           33.84537589412446       27.12382979488688       35.54526914720621
H           33.40075212190565       27.89013902910142       36.01905955688689
C           33.22327388020061       25.95958493923258       35.15351996418654
C           35.14563695262397       27.02757321046595       35.20841101585401
H           35.86764385943334       27.80966925581701       35.37623476290394
N           35.39105410986346       25.86428945538240       34.64862343655508
C           34.20252055134945       25.17958061803525       34.62069752774570
H           34.15976281721879       24.17712481311079       34.23659804834156
C           41.46837627733610       22.43200415145750       31.77035119255898
H           42.39493445529119       22.41102637610978       32.35526841231272
H           41.72434271016179       22.57412696115533       30.71520960992938
H           40.95987409259403       21.47230534179152       31.89027692325590
N           40.91762719758984       24.85435617948324       32.25024316932107
H           41.78056437092401       25.23920872818032       31.90938518128475
C           40.57541499754726       23.52903971247609       32.24947013534576
C           39.88349681885163       25.53606443003660       32.78454321152287
H           39.88819296679244       26.60731082786403       32.90004456261509
N           38.89509760103802       24.73964582482026       33.12207398413265
C           39.33183471059170       23.47022715589029       32.77354007068725
H           38.69747358914318       22.61723961822869       32.91939942157021
87
 energy: -128.464151493799 gnorm: 0.021728340401 xtb: 6.7.1 (edcfbbe)
Fe          37.14833262561758       25.26655671487966       33.90898031622961
N           36.93824054249445       23.44750439145696       34.75222399132302
N           36.22391616440353       24.59668316608136       32.25524149679395
N           37.37944279683987       27.07265757096259       33.05847894315608
N           38.05260455075637       25.92661799063909       35.55179164134289
C           37.43666890225359       23.03908674425846       35.94279715892895
C           37.15344459766676       21.64154698144292       36.16574720368404
C           36.42360639183926       21.22405901071002       35.09347549350311
C           36.31484940388583       22.35971675568710       34.21556742239136
C           35.68619614442540       23.35913452276957       32.06108930481449
C           35.10119987333312       23.25609605876800       30.74969660957413
C           35.30431119434692       24.46718233362320       30.13792916989335
C           36.00548399234918       25.28512463556925       31.10781077675632
C           37.04689036580567       27.41514150584943       31.78440597333426
C           37.47371776224160       28.76614898146362       31.48924252239904
C           38.05533968937032       29.24256955788605       32.63473164626712
C           37.98353055068952       28.16218288749915       33.60171215552678
C           38.47988737973862       27.18997848865830       35.80429740835675
C           39.03286474936905       27.28984749846891       37.13767926303882
C           38.95251648219369       26.04586355037473       37.67405144311917
C           38.33757229741503       25.20319624108437       36.67437135613609
C           38.08120175243481       23.86112932917229       36.85250024424058
H           38.38879943720399       23.42292052152723       37.79068997402295
C           35.70490938503740       22.32229840446582       32.97631278971100
H           35.22459823804179       21.39643283199766       32.69513122926854
C           36.37274262230580       26.60303850460962       30.89057993464047
H           36.09651384151959       27.03354937648864       29.93940444712996
C           38.45177964020219       28.24128253514580       34.90251137514220
H           38.84315120815895       29.19223644626657       35.23580698797402
C           35.85476087550252       19.86703977557863       34.83190131628385
H           35.96458741600554       19.23534306384042       35.70909357499530
H           36.36215917355946       19.38391395448528       33.99585975278578
H           34.79453108486079       19.92632950516588       34.58855949390956
C           37.60300759035274       20.84404460330110       37.34183970023957
H           36.86812803513012       20.88740902439857       38.14708189595601
H           38.54743947594054       21.22336662534099       37.72329488645536
H           37.74248073166589       19.80020285826648       37.06821906049384
C           34.43820407069691       22.03278507717755       30.22674015060415
H           33.40712434969081       21.98514493930672       30.58307289875829
H           34.95092989608872       21.13553346890596       30.56725006024338
H           34.42745878433619       22.03364757983634       29.14067282695385
C           34.97453406627199       24.86438074143098       28.78651238816553
H           35.65997073342473       25.56280910630246       28.31932137236270
C           33.92713607913974       24.44783791508298       28.08122609934328
H           33.18755306224207       23.78382488491533       28.48922851164366
H           33.76900983000439       24.77514024619226       27.06777876804752
C           37.33197132106307       29.39994789162107       30.14817559787040
H           36.31478787896607       29.76589995220449       30.00494034854562
H           37.54030401054452       28.67512766406395       29.36424405876473
H           38.01831896860041       30.23420063099780       30.03412034679303
C           38.65058149209712       30.53530125518765       32.89978914223553
H           39.43641630244219       30.56834802992810       33.64414226464306
C           38.27930637856005       31.66988617890868       32.31053632054664
H           37.48174167297589       31.69138296639101       31.59292824044806
H           38.75307312063541       32.60714734136943       32.54396710194435
C           39.57660890231615       28.53566166269361       37.74882293643396
H           38.81087856682223       29.30990597325869       37.79560274717240
H           40.41103296894354       28.92162842672723       37.16463421252209
H           39.93125532513468       28.34471048269423       38.75818543601413
C           39.40217428571444       25.58724685567335       39.02110229699932
H           39.50404324505141       26.42969707046985       39.69996802055788
H           40.36878721149914       25.08704609380077       38.95296396909814
H           38.68828864733952       24.88840797908363       39.44979303676178
C           31.75107342870872       25.76730421227556       35.31233858850649
H           31.20984200064664       26.53443640212032       34.75963118413254
H           31.45638674153637       25.82883605387455       36.35803260818074
H           31.46467489056081       24.79674913085888       34.92383101857744
N           33.83369433756471       27.12677367711067       35.53523659059131
H           33.38982243343438       27.90104017247268       36.00151910461884
C           33.21503087696498       25.96171938205587       35.15917724353366
C           35.14231836122165       27.01833857551450       35.21402891877773
H           35.86294898770215       27.79127451333267       35.38259537226846
N           35.39160640972737       25.85935288123341       34.65869099281119
C           34.20234636679083       25.18826453340519       34.62016764735777
H           34.15298140070951       24.19565085915157       34.22418582790021
C           41.46831008219856       22.43691598618124       31.76772989232077
H           42.39072011190286       22.41398500013103       32.34606082513158
H           41.72500005260967       22.57471217921347       30.71940489605646
H           40.96497132864359       21.48346792707274       31.88207358000632
N           40.92314950434344       24.84552880024428       32.25502775143235
H           41.78846293230339       25.23123516273378       31.91462589426821
C           40.57237255744224       23.51954521199334       32.24798732332681
C           39.88896516079387       25.53272307332643       32.78909068813201
H           39.89209333174989       26.59595558601556       32.90942901749947
N           38.90590058175500       24.73299112570204       33.11864271218508
C           39.31854201487659       23.47197899150995       32.78182258359263
H           38.68688797025363       22.62413720006245       32.93584262550019
87
 energy: -128.465115652794 gnorm: 0.010406822221 xtb: 6.7.1 (edcfbbe)
Fe          37.14634370992865       25.26419459267319       33.90789338245818
N           36.94060125281817       23.44684493458304       34.75137023189510
N           36.22248018252324       24.59516672725675       32.25550428445527
N           37.37634494730566       27.06995545896626       33.05794767678746
N           38.06000432318543       25.92300625341647       35.55275207646816
C           37.44043559806916       23.04083180293610       35.94425248106697
C           37.15541155444986       21.64295479744800       36.16915209612448
C           36.42913522872357       21.22471446574680       35.09728100369830
C           36.31842755617237       22.36185477924818       34.21499161534633
C           35.68228404902548       23.36102995019359       32.06339278502274
C           35.09291712841900       23.25828658411674       30.75315786993713
C           35.29986431295818       24.46645718586878       30.13982171649874
C           36.00894533937038       25.28444063099610       31.10697331058783
C           37.04498358435492       27.41146210637892       31.78413254982515
C           37.45947335032158       28.76104661980986       31.49063915597957
C           38.04021712519764       29.24358538723549       32.63719149119120
C           37.97799470779086       28.15918675582719       33.60002429645758
C           38.48424150752906       27.18793240513120       35.80043348820868
C           39.03601785547345       27.29094502533492       37.13316600980986
C           38.95279996405147       26.04738547402555       37.67612754705246
C           38.33961635857018       25.20510731200964       36.67321390983785
C           38.08585894062469       23.85914177060729       36.85204600714000
H           38.39854515382761       23.41825417291992       37.78661866370848
C           35.70469160286972       22.32219692626298       32.97812232609764
H           35.22801049111639       21.39511858404493       32.69632923505279
C           36.37996880238489       26.59736833121042       30.88325416655950
H           36.11845253071851       27.02480932438508       29.92646251355773
C           38.45194465631813       28.23999494728296       34.89920453291980
H           38.84650114574785       29.18879044752689       35.23167884548508
C           35.85895492706869       19.87210504599399       34.83221329806673
H           35.96776838601617       19.23603967904103       35.70681833748210
H           36.36504702557495       19.39401033073361       33.99231393430989
H           34.79916730817102       19.94084661846011       34.58961887128417
C           37.59941096141698       20.84494649134272       37.34883445080821
H           36.86467030070050       20.89581213871055       38.15361360408108
H           38.54740983613297       21.21734118537504       37.72956992641716
H           37.73035777485794       19.80010523833165       37.07492672924737
C           34.43812108667266       22.03127882039406       30.21806720835205
H           33.40345601261790       21.97298295223633       30.56276805191401
H           34.95538822721011       21.13584014737366       30.55698483541187
H           34.43877238487367       22.03941132074365       29.13121650709025
C           34.97140747407854       24.86849900081438       28.79199953847188
H           35.65830984590976       25.57200295190721       28.33451626709940
C           33.92493292433031       24.45260845609124       28.08464404189116
H           33.17410714491625       23.80102581229828       28.49505432433281
H           33.76659818310510       24.78076127208725       27.07125615550122
C           37.33032998670062       29.39920588527544       30.15203102496670
H           36.31783110713598       29.77770232069817       30.00059596101883
H           37.53815144108414       28.67512336748083       29.36580451647342
H           38.02813297925000       30.22673635356974       30.04986592598669
C           38.63588593144657       30.53331252645408       32.89403394803365
H           39.42711843696487       30.55141736780491       33.63423149824791
C           38.27441497424936       31.67578209166973       32.31114117718607
H           37.45920068389505       31.71998064627655       31.61032475385951
H           38.76415458901163       32.60667307081107       32.54102225602087
C           39.57893962628017       28.54039831941063       37.74054218296293
H           38.81277241842161       29.31477649548107       37.78212953149816
H           40.41438595268991       28.92377314228691       37.15561313723721
H           39.93188910178030       28.35229425987229       38.75119935632215
C           39.39983220038643       25.58812801953626       39.02344934455057
H           39.50926740330513       26.43101601518282       39.70143346050484
H           40.36284026844051       25.08007863431465       38.95376752792598
H           38.68212333529029       24.89386035768587       39.45449015511564
C           31.75093802860310       25.76322222093309       35.31632658763623
H           31.20137543197209       26.52626178333933       34.76505143357181
H           31.45852880662405       25.82352436399812       36.36378996031087
H           31.47109110300787       24.78851411358588       34.93128744833569
N           33.83060340269613       27.13033506086326       35.53000457234715
H           33.38597268000581       27.90950751521765       35.98757129793000
C           33.21238724910183       25.96532939263976       35.15573312413611
C           35.14120094431642       27.01724296654672       35.21663606666584
H           35.86499518744981       27.78545575390983       35.39206827012288
N           35.38942421856953       25.85796526546478       34.66088457486457
C           34.19966854811940       25.19130759843945       34.61717702780351
H           34.14341951927617       24.20294036981858       34.21122382379055
C           41.46913438561740       22.43393164939392       31.76207379091717
H           42.39331880580739       22.41174388003454       32.33872951590723
H           41.72486609464253       22.57922923933573       30.71360870890402
H           40.96894315298116       21.47728898342635       31.87034681471379
N           40.92905590029696       24.83469126238048       32.26279336522710
H           41.79688127977944       25.21756559051724       31.92528128110938
C           40.57219942662250       23.51104202647846       32.25043793848685
C           39.89779874713484       25.52710957687853       32.79696194806586
H           39.90495255726496       26.58920449440147       32.92532772256993
N           38.91083759399415       24.72886484441733       33.11920826645292
C           39.31683299324295       23.46951055508906       32.78601618241487
H           38.68291074304085       22.62327140370160       32.94523316881328
87
 energy: -128.465642232436 gnorm: 0.006810053508 xtb: 6.7.1 (edcfbbe)
Fe          37.14534025627187       25.26068959825601       33.90663700024587
N           36.94295440067266       23.44842917731528       34.75176368569511
N           36.22159900509256       24.59206190244953       32.25625827392270
N           37.37459706886214       27.06472210676761       33.05683386595160
N           38.06435863885179       25.92087698080755       35.55448769284013
C           37.44452639068523       23.04464888715616       35.94682588317699
C           37.15815954317322       21.64459900279282       36.17337067183575
C           36.43469374217423       21.22575000372507       35.10110227876289
C           36.32358433621909       22.36461603972738       34.21582175649238
C           35.67729830174024       23.36127935117948       32.06608756246977
C           35.08288155657333       23.25831253100650       30.75719716824362
C           35.29452109673743       24.46424884562439       30.14323658307426
C           36.01225849552192       25.28122110938624       31.10683996416836
C           37.04322833952504       27.40565122696841       31.78309826107448
C           37.44311322526672       28.75582708243108       31.49326335184360
C           38.01958169917058       29.24435017002076       32.64045442828590
C           37.96910302271777       28.15678833860977       33.59995380936915
C           38.48987916890196       27.18789769597597       35.79664628945152
C           39.04154721215223       27.29370270951148       37.12902738201457
C           38.95505853887058       26.05112645182293       37.67829487176212
C           38.34361288306366       25.20791129639364       36.67424878571877
C           38.09298093546312       23.85956126983993       36.85395645437842
H           38.41117327422729       23.41528304765832       37.78480776324895
C           35.70537657751566       22.32089939930724       32.98090857738999
H           35.23138351148474       21.39272092064575       32.69881543104976
C           36.38941199911950       26.58816630933510       30.87553110610654
H           36.14505457936057       27.01306566120190       29.91303615170511
C           38.45177983288468       28.23875870460206       34.89595998233992
H           38.84969461872336       29.18616523827032       35.22688652958694
C           35.86226176460089       19.87659124723054       34.83044376390867
H           35.97135294780192       19.23349278398756       35.70050800484110