78
 energy: -116.058050310983 gnorm: 0.000037286098 xtb: 6.7.1 (edcfbbe)
Fe          35.15575757313990        3.97310513526182       10.23059646430814
N           37.00272018917388        3.58766276154110        9.59525147161924
N           34.88508889676596        5.24842943905348        8.71922566907956
N           33.31921725200717        4.41455317026114       10.93472421952884
N           35.42966768862964        2.71675476321545       11.77693357389144
C           37.89941415081740        2.73071828090050       10.14756605834245
C           39.14086076498019        2.73665967452322        9.40306912697026
C           38.96982610665084        3.61962519096867        8.38441304390542
C           37.62442520154386        4.13681108033489        8.51862193881794
C           35.77707766559219        5.55018219028277        7.73835978604634
C           35.21178090938993        6.48380511565165        6.79762703682979
C           33.94095233664209        6.74690403130831        7.23430096411853
C           33.76122768429567        5.95624380451140        8.43774297184904
C           32.41105667766675        5.25673634904387       10.36646829715867
C           31.19924956218744        5.30173424407195       11.14172297807143
C           31.38597045900143        4.45040550997881       12.19992550412107
C           32.72131629171184        3.90940168916795       12.04615570393370
C           34.53468114470067        2.41306014507330       12.75668350880992
C           35.07479859550907        1.41309185840306       13.65000901592305
C           36.31721815569205        1.11521797046083       13.18246473756886
C           36.52024007321640        1.93917650375526       12.01244547133311
C           37.68080399851024        1.94442766719544       11.26290750498816
H           38.47884473241007        1.28895969042795       11.57619364256157
C           37.06351519551977        5.04646932438846        7.64529370927873
H           37.67839995874326        5.39639836601849        6.82999624091336
C           32.61022989742312        5.97438218542008        9.20029111403230
H           31.79831055351491        6.59880609478013        8.86062876078394
C           33.27737477895508        2.97105571075537       12.89765614268618
H           32.67581330162047        2.63098914125926       13.72661448554361
C           39.92397155714992        4.02536932144831        7.31371850422735
H           40.87664332545000        3.51472036232108        7.43064122623434
H           40.10372972766289        5.09978343943156        7.35027754076318
H           39.52425643165802        3.78298705330877        6.32834905372347
C           40.33329042601270        1.91256218616812        9.74948493882823
H           40.08554824447935        0.85091475527483        9.72879795496605
H           40.68931524883367        2.15694985609090       10.75041895684123
H           41.14326037675494        2.08883006773291        9.04594096211914
C           35.88976708816706        6.98044173532167        5.56835833473672
H           36.48538647889399        6.19254974406010        5.10932213921983
H           36.55538258330021        7.81286493000806        5.80183841522924
H           35.15074034547866        7.32388698239483        4.84717263834666
C           32.93033922654323        7.59966843020673        6.64880519597460
H           31.90680535543228        7.26347895261877        6.76998232157401
C           33.16112215516330        8.73572135889438        5.99858085112446
H           34.15113029432403        9.14284433716487        5.89053444520508
H           32.35782728873549        9.31518840318589        5.57438098304570
C           30.02895086229301        6.17582859257546       10.85406752148552
H           29.37724781863080        5.72040928850342       10.10655379779637
H           30.35430204315002        7.14275567640538       10.47304335672986
H           29.45042900082476        6.33579320712321       11.76181495068102
C           30.49211793615401        4.13704228259086       13.29251129159628
H           30.96968615860068        3.93142176620056       14.24386554764799
C           29.16672860691956        4.07663496445614       13.21284564031281
H           28.64110188326704        4.22384725380510       12.28567656246937
H           28.56063357665511        3.85034632935768       14.07443032542461
C           34.35234194475235        0.86336928187467       14.83202782618073
H           33.41820847912275        0.39170724067828       14.52585834767998
H           34.11295579763920        1.65750084187211       15.53998593004140
H           34.95867747582211        0.12068663356777       15.34458830537451
C           37.32070772078509        0.15138649043986       13.71589146155344
H           36.93779017791707       -0.35902168988016       14.59622659740776
H           38.24010577415767        0.66840059127712       13.99198001695459
H           37.56786053579934       -0.59847404809088       12.96420636230784
O           35.91225980389716        5.64381243047946       11.60992546653595
H           35.08751256030227        6.10592455768128       11.79504188213662
H           36.12712476995161        5.12236311725140       12.39103912685519
C           32.32992770835742       -0.45019415898887        8.35195698203065
H           32.89071852293354       -1.35726170741989        8.12659903197454
H           31.60354472429104       -0.29180374871645        7.55495423948704
H           31.79585992264690       -0.59407152917615        9.28589868028738
N           34.04139920526095        1.13804601119776        7.44631919680172
H           34.09482546691639        0.71921781010828        6.53233216632530
C           33.24047488591763        0.71607414816956        8.47499400162225
C           34.73757977358962        2.21188510077036        7.88273467855202
H           35.44536498761367        2.75181940938442        7.28779376656602
N           34.42623943678563        2.49486487267542        9.12450799371076
C           33.49634947525447        1.57324580522250        9.50655165202516
H           33.07561701370894        1.58791417492894       10.49028368826174
