81
 energy: -118.045308790282 gnorm: 0.379673210968 xtb: 6.7.1 (edcfbbe)
Fe         -30.51599999999999        1.26000000000000       -9.97700000000000
N          -30.19300000000000       -0.09600000000000      -11.51000000000000
N          -31.62700000000000        2.46400000000000      -11.20400000000000
N          -30.94800000000000        2.47000000000000       -8.41500000000000
N          -29.52800000000000       -0.05900000000000       -8.75700000000000
C          -29.44700000000000       -1.25500000000000      -11.45100000000000
C          -29.20500000000000       -1.70400000000000      -12.79800000000000
C          -29.79400000000000       -0.85000000000000      -13.64400000000000
C          -30.42100000000000        0.18300000000000      -12.84200000000000
C          -31.62000000000000        2.31400000000000      -12.59200000000000
C          -32.19200000000000        3.48500000000000      -13.19800000000000
C          -32.56700000000000        4.40300000000000      -12.04200000000000
C          -32.18300000000000        3.68600000000000      -10.84100000000000
C          -31.67200000000000        3.64400000000000       -8.45000000000000
C          -31.59300000000000        4.26100000000000       -7.13800000000000
C          -30.73100000000000        3.53400000000000       -6.40600000000000
C          -30.42600000000000        2.32900000000000       -7.14900000000000
C          -29.22100000000000        0.19900000000000       -7.43100000000000
C          -28.41300000000000       -0.89200000000000       -6.92600000000000
C          -28.23000000000000       -1.76200000000000       -7.92100000000000
C          -28.93400000000000       -1.26000000000000       -9.08300000000000
C          -29.00200000000000       -1.87200000000000      -10.30800000000000
H          -28.68300000000000       -2.91200000000000      -10.37900000000000
C          -31.13800000000000        1.25200000000000      -13.31500000000000
H          -31.34800000000000        1.25900000000000      -14.38400000000000
C          -32.34600000000000        4.13600000000000       -9.55100000000000
H          -33.06100000000000        4.94200000000000       -9.38500000000000
C          -29.63300000000000        1.29100000000000       -6.70500000000000
H          -29.29800000000000        1.34200000000000       -5.66900000000000
C          -28.40800000000000       -2.97000000000000      -13.15200000000000
H          -29.00800000000000       -3.67000000000000      -12.53200000000000
H          -27.48600000000000       -2.69500000000000      -12.59600000000000
H          -28.14000000000000       -3.47300000000000      -14.10600000000000
C          -29.78900000000000       -0.93200000000000      -15.19200000000000
H          -29.37000000000000        0.08200000000000      -15.36700000000000
H          -30.89200000000000       -0.89200000000000      -15.31500000000000
H          -29.35000000000000       -1.63600000000000      -15.93100000000000
C          -27.45499999999999       -3.10300000000000       -7.84800000000000
H          -27.20800000000000       -3.98400000000000       -8.47800000000000
H          -28.09700000000000       -3.43200000000000       -7.00300000000000
H          -26.51200000000000       -2.66300000000000       -7.45900000000000
C          -27.85100000000000       -1.00400000000000       -5.48900000000000
H          -28.36800000000000       -1.66100000000000       -4.77600000000000
C          -26.30400000000000       -0.89800000000000       -5.49300000000000
H          -25.79100000000000       -0.23900000000000       -6.20900000000000
H          -25.70300000000000       -1.48100000000000       -4.78000000000000
C          -30.48600000000000        3.66300000000000       -4.88400000000000
H          -29.38300000000000        3.75300000000000       -4.97700000000000
H          -30.74000000000000        2.61800000000000       -4.60700000000000
H          -30.83900000000000        4.36100000000000       -4.09500000000000
C          -32.30600000000000        5.57800000000000       -6.72900000000000
H          -33.33500000000000        5.62900000000000       -7.05800000000000
C          -31.36500000000000        6.73500000000000       -6.31800000000000
H          -30.33200000000000        6.52900000000000       -6.00200000000000
H          -31.71900000000000        7.77600000000000       -6.33700000000000
C          -33.22200000000000        5.79600000000000      -12.14400000000000
H          -33.47900000000000        6.65900000000000      -11.49400000000000
H          -34.15900000000000        5.35600000000000      -12.54600000000000
H          -32.58200000000000        6.15200000000000      -12.97900000000000
C          -32.35300000000000        3.74700000000000      -14.71100000000000
H          -32.05700000000000        4.80700000000000      -14.55900000000000
H          -33.45900000000000        3.66800000000000      -14.63800000000000
H          -32.01400000000000        3.41900000000000      -15.71700000000000
C          -34.43900000000000       -1.61000000000000       -7.15200000000000
H          -34.64300000000000       -2.63700000000000       -7.52400000000000
H          -35.40400000000000       -1.11700000000000       -6.90600000000000
H          -33.80400000000000       -1.67600000000000       -6.24300000000000
N          -34.27000000000000       -0.58900000000000       -9.45600000000000
H          -35.17900000000000       -0.89200000000000       -9.74300000000000
C          -33.72500000000000       -0.82500000000000       -8.21300000000000
C          -33.40800000000000        0.09200000000000      -10.19300000000000
H          -33.59100000000000        0.41600000000000      -11.21700000000000
N          -32.31800000000000        0.29900000000000       -9.47600000000000
C          -32.49200000000000       -0.26300000000000       -8.23200000000000
H          -31.71900000000000       -0.20900000000000       -7.47600000000000
C          -28.64900000000000        3.35600000000000      -11.78200000000000
H          -28.90500000000000        2.83400000000000      -12.72800000000000
H          -27.64099999999999        3.80700000000000      -11.90100000000000
H          -29.39200000000000        4.16600000000000      -11.62500000000000
S          -28.66200000000000        2.20600000000000      -10.36600000000000
H          -28.09500000000000        1.20600000000000      -11.02400000000000
81
 energy: -118.212836904956 gnorm: 0.215315365390 xtb: 6.7.1 (edcfbbe)
Fe         -30.54957658251441        1.23644398704315       -9.96641841810700
N          -30.17566513732742       -0.08676961726973      -11.51762233577819
N          -31.60320157901168        2.45998444789905      -11.19758890262729
N          -30.93760453340045        2.48348137665988       -8.41684580477292
N          -29.51943491490271       -0.04870794714189       -8.75350615141320
C          -29.45527968845890       -1.25201184506957      -11.46431197598703
C          -29.20815105072702       -1.72036471670114      -12.81177803616975
C          -29.79265757100533       -0.85973919815592      -13.65802647208649
C          -30.41874865872326        0.17290307332002      -12.84321178194030
C          -31.62298970452073        2.32576910779638      -12.56930865471914
C          -32.18242922522069        3.49743372303565      -13.16130494263405
C          -32.54614154127255        4.37449356708313      -12.05457330073154
C          -32.17807942790323        3.66400736331915      -10.86020409712845
C          -31.68029356308559        3.63838547497322       -8.44223195484307
C          -31.60911643827127        4.28829939715038       -7.13448985836412
C          -30.77498009266835        3.53157235810814       -6.38202031268958
C          -30.41705626048136        2.35299482244507       -7.15824300784565
C          -29.22068893624853        0.19569283329082       -7.43505162603838
C          -28.40243149126195       -0.88602280410715       -6.91617369813940
C          -28.23621683565624       -1.76899121900145       -7.93684047245665
C          -28.94668337636371       -1.24955083202428       -9.07736917845645
C          -29.00758902492215       -1.86762175278095      -10.31007253519773
H          -28.66993071178461       -2.89882233417571      -10.37966797710158
C          -31.14085290896082        1.25214894329910      -13.31082130781014
H          -31.34304265338214        1.26807316377442      -14.37889895892905
C          -32.34410854106157        4.12840912252283       -9.55541962679494
H          -33.04215699690753        4.94753119692145       -9.39394763544278
C          -29.63154380886905        1.29829136679591       -6.70765619560166
H          -29.29826494562344        1.34080438124027       -5.67406985976010
C          -28.40734269790620       -2.97132705011483      -13.11216504992358
H          -28.98431729416165       -3.69914459979706      -12.52996494848272
H          -27.47131309088222       -2.72850989984090      -12.59478299719578
H          -28.16915615603012       -3.42288202670702      -14.09197207212876
C          -29.81115333278392       -0.89502982049021      -15.18129786984448
H          -29.38008089202431        0.08850020176086      -15.40114302543254
H          -30.89387767235695       -0.88255548427865      -15.35066704494185
H          -29.35232569772591       -1.63233280377195      -15.86692840344472
C          -27.46021341361563       -3.08277395553497       -7.81010674473174
H          -27.24214814185488       -3.92457682230749       -8.49427275792293
H          -28.06517727357640       -3.47011008534632       -6.98141068832540
H          -26.50298548824924       -2.69273256766501       -7.44075630830622
C          -27.77380043436764       -1.03474292951511       -5.54202693941895
H          -28.33256080375040       -1.63216336522826       -4.79837712557751
C          -26.36163238256642       -0.90999841936747       -5.49113170965440
H          -25.82706399821707       -0.26557547849858       -6.19712994081705
H          -25.73761835044663       -1.45140460394019       -4.77410353536106
C          -30.45953858343838        3.63654871037108       -4.89576472641618
H          -29.36969194993139        3.74359111969448       -4.94181042527279
H          -30.72592504574643        2.62203516723563       -4.57598747306570
H          -30.84980434844773        4.35653144680632       -4.15437199676926
C          -32.23167436238578        5.61005760798983       -6.75834916004057
H          -33.28960636847046        5.65776103978351       -7.04050388484007
C          -31.40898247042848        6.68629062391462       -6.33864454516857
H          -30.37345838330238        6.51526723983137       -6.02548216476278
H          -31.73505419852226        7.73230276649476       -6.32692111698563
C          -33.21632462645262        5.75428957733378      -12.18638867056277
H          -33.44030873076954        6.58722383013842      -11.48308801072583
H          -34.17785025018548        5.39154915507625      -12.57210568187914
H          -32.60646023245425        6.17614372366704      -12.99592357518722
C          -32.37939651058190        3.78546583276496      -14.66286393794300
H          -32.07988469298176        4.83728220743560      -14.60087672599944
H          -33.47381232207285        3.69518256255177      -14.67287948475395
H          -32.00023990274956        3.39401303267792      -15.63526283895274
C          -34.44080569776767       -1.61011971994963       -7.15440725967913
H          -34.64398433296483       -2.62802132622752       -7.51657132474769
H          -35.39494941810501       -1.12548290912573       -6.90418829307216
H          -33.81444292441554       -1.67367971516546       -6.25578018561188
N          -34.27901771619146       -0.59554988984510       -9.44840650124747
H          -35.18993595559431       -0.89668779191694       -9.74112257518021
C          -33.73111052969433       -0.83154254617881       -8.21049507207666
C          -33.39815115268657        0.09122623992155      -10.18547381067969
H          -33.57977734177111        0.41406386014187      -11.20148358641356
N          -32.31027376856614        0.29877227799837       -9.47827029487640
C          -32.49579548553280       -0.26169868761512       -8.24241500790202
H          -31.72905069923963       -0.20846098465378       -7.48790677884395
C          -28.64594997615474        3.36172272986376      -11.79450703707976
H          -28.90593669380493        2.83571072719005      -12.71958027602287
H          -27.64777251230275        3.80441081901218      -11.89771707985306
H          -29.38333473823069        4.15502654617113      -11.62111362929645
S          -28.64853520938121        2.21902946806010      -10.36836329279411
H          -28.08347954762271        1.20998752894463      -11.02806133422091
81
 energy: -118.297215464266 gnorm: 0.133784590066 xtb: 6.7.1 (edcfbbe)
Fe         -30.57669089857072        1.22138460607055       -9.96036347079389
N          -30.16911344974601       -0.08282711230010      -11.52256483881573
N          -31.58621741880749        2.45439055577775      -11.19245127069797
N          -30.93357094006247        2.49340376865574       -8.41529105425387
N          -29.51939710765004       -0.04277166697491       -8.74665822464070
C          -29.46422610707806       -1.24708382440650      -11.47354730562705
C          -29.21274318625096       -1.73579112032286      -12.82241084080377
C          -29.79431901150195       -0.86692291206726      -13.67039342659334
C          -30.41706309639808        0.16690391764494      -12.84153755921327
C          -31.62047966918337        2.33500106827955      -12.55120598174746
C          -32.18214560508112        3.51399956843523      -13.13060708710778
C          -32.53399407151859        4.34752626561686      -12.07312373757781
C          -32.17059878347646        3.64635562585089      -10.87354815219716
C          -31.68072607893237        3.63595402070245       -8.43645148130947
C          -31.61241084652152        4.31033474220878       -7.12871179982201
C          -30.80524183152754        3.52682007438484       -6.36155218599513
C          -30.41672270144710        2.36857806148438       -7.16426855044674
C          -29.21597882500329        0.19816226952001       -7.44030182299016
C          -28.38869014649878       -0.87314432700407       -6.91059611981327
C          -28.24205816620825       -1.77276139344242       -7.94685231700950
C          -28.96045314213481       -1.24100969669223       -9.07025894555287
C          -29.01071374539259       -1.85943941469206      -10.31266869722776
H          -28.65360014893873       -2.88063778364207      -10.38060203080973
C          -31.13832434685926        1.25487030074672      -13.30610219303184
H          -31.33675734644147        1.27948566814405      -14.37157080949679
C          -32.33519693351543        4.12404842720207       -9.55979337160431
H          -33.01730664260070        4.95465976079860       -9.40582905469883
C          -29.63185599000968        1.30703772153007       -6.71082938721282
H          -29.29901931670550        1.34136756708018       -5.68021798166878
C          -28.40917686197374       -2.97146347383535      -13.07186105936128
H          -28.95711967589465       -3.73420706556529      -12.52382054540389
H          -27.45538458827178       -2.76424901619459      -12.59063005796634
H          -28.20514120631277       -3.36385143025321      -14.08113575494944
C          -29.83462586991968       -0.85792507014206      -15.16800742872060
H          -29.39315547291745        0.09884075548392      -15.43780843391721
H          -30.89929804275700       -0.86826090029079      -15.39103228874674
H          -29.35216210092365       -1.63205682263928      -15.79119242181086
C          -27.46884960744098       -3.05813193842050       -7.77192405016844
H          -27.28703012631548       -3.85262106845101       -8.51929611653728
H          -28.03187696351866       -3.50898735921660       -6.95577250835605
H          -26.49370645903742       -2.72176172600179       -7.42149503080867
C          -27.70461423864370       -1.06655178691643       -5.59247271001030
H          -28.29934071250153       -1.61096006835181       -4.82864617048070
C          -26.42296496799830       -0.92217558592407       -5.49871940091988
H          -25.85703752993395       -0.30406594312599       -6.20117414546235
H          -25.78065420846344       -1.40605857323781       -4.75621447574224
C          -30.43810550088694        3.60904578919705       -4.91135947905787
H          -29.35805262559864        3.73407097693609       -4.91019385168772
H          -30.70607555677583        2.62143704270399       -4.53878281342010
H          -30.86626854591094        4.35619794044244       -4.22397290269383
C          -32.17465499709100        5.63371552475116       -6.78046576477777
H          -33.24700811344970        5.69418474845198       -7.03496727430397
C          -31.44733459936641        6.62828228854152       -6.37082893714025
H          -30.40558101853826        6.50099025626635       -6.05964152919580
H          -31.75940599365577        7.67755049906196       -6.30874871937491
C          -33.20994362910966        5.70904143549575      -12.22896588170950
H          -33.39080238265689        6.49768154994590      -11.46134674770815
H          -34.19540982458025        5.42304406627261      -12.60032966647948
H          -32.62993565064183        6.19414780472605      -13.01535606559668
C          -32.40684275745436        3.82461995012273      -14.61036552813111
H          -32.10680845927860        4.86957405824966      -14.63948962523797
H          -33.48977219374549        3.72454898874576      -14.70231957762873
H          -31.97696004745111        3.35882666324786      -15.53301415135650
C          -34.44134684514221       -1.60938440662236       -7.15678039103723
H          -34.64553847449331       -2.62147333035972       -7.51093636153291
H          -35.38864295647816       -1.13158494371191       -6.90276163485227
H          -33.82156832780205       -1.67109202542512       -6.26506421694181
N          -34.28483226883033       -0.59985344433458       -9.44337993773302
H          -35.19720715696138       -0.89850215440187       -9.74179847554981
C          -33.73397988913958       -0.83575783796783       -8.20999594083394
C          -33.38616713894752        0.09039398347413      -10.17940903753599
H          -33.56858429147707        0.41178364452276      -11.18837844881754
N          -32.29667740595394        0.29864845787578       -9.48193931861805
C          -32.49674767116760       -0.26112322296737       -8.25303244878024
H          -31.73856661254842       -0.20984419485328       -7.49603855380974
C          -28.64258473608832        3.36796806762987      -11.80499031691754
H          -28.90792314298598        2.83530128137042      -12.71181548658805
H          -27.65169496688765        3.80394906543978      -11.89703765792142
H          -29.37651435921713        4.14719386453066      -11.61615946676479
S          -28.63106652243487        2.23096523266857      -10.36828825117734
H          -28.07164115036632        1.21304471446663      -11.02953324096577
81
 energy: -118.340222276637 gnorm: 0.064072582907 xtb: 6.7.1 (edcfbbe)
Fe         -30.58809704957251        1.21288031680169       -9.95806836700532
N          -30.16735368409672       -0.07707300874253      -11.52370349740612
N          -31.56926082562997        2.45032685717997      -11.18914437009837
N          -30.92736560732767        2.49344313411839       -8.41926196537060
N          -29.52239184506253       -0.03666770157168       -8.74706171119860
C          -29.47315642428156       -1.24306908921347      -11.47449469898474
C          -29.22430539354212       -1.74199657365727      -12.81989094300230
C          -29.80463127961872       -0.86642384096349      -13.66994838415298
C          -30.41949525437071        0.16782821163443      -12.83853061158496
C          -31.61125903022501        2.33479117264403      -12.54474591292327
C          -32.18467627298588        3.51713107077222      -13.11890848237166
C          -32.53538753491416        4.33224806284507      -12.07567927717798
C          -32.16166539988287        3.63586004857404      -10.87270381445282
C          -31.67683259300743        3.62755649026446       -8.44054837998957
C          -31.61439803747896        4.29382031649726       -7.13371844130373
C          -30.82035600947520        3.50909782636650       -6.35544088791333
C          -30.41534343845249        2.36920498639810       -7.16983045160741
C          -29.21183898518130        0.20802164405346       -7.44764515381877
C          -28.39461550063435       -0.86459235883005       -6.92388407733974
C          -28.25208711697534       -1.77114746116799       -7.94967935044121
C          -28.97181124894170       -1.23699312080404       -9.06981914104703
C          -29.01496115662901       -1.85038621588306      -10.31489534911722
H          -28.62886011640227       -2.85952440617628      -10.38437685575149
C          -31.13427993935910        1.25870394870714      -13.30266546959206
H          -31.32725944429359        1.29502567028888      -14.36689352579788
C          -32.32323382107869        4.11936396892996       -9.56484701626686
H          -32.98184831907346        4.96970257743934       -9.42196773462208
C          -29.62757520310391        1.31471367519847       -6.71608254803420
H          -29.29790530294839        1.34371554438016       -5.68584974855542
C          -28.41415450186099       -2.97239810110108      -13.04198043817289
H          -28.92595119125692       -3.77874441522915      -12.51308758232194
H          -27.43833852637308       -2.80528539271192      -12.58195816620014
H          -28.24638403808881       -3.30100090903802      -14.07994978148691
C          -29.85590644500786       -0.82910011274337      -15.15877491889547
H          -29.41185147863409        0.11513365278990      -15.47995708289162
H          -30.91115156777467       -0.84681890565554      -15.43953520047473
H          -29.34796101011854       -1.63972662574834      -15.71103267466765
C          -27.47926419845921       -3.04064719082879       -7.74674979038055
H          -27.33920743539894       -3.77867251466583       -8.56053082366425
H          -27.99435527902765       -3.55263835419724       -6.92474593760954
H          -26.48376108016224       -2.75434491717636       -7.39879168383625
C          -27.72351492918076       -1.09947565315896       -5.63176920495267
H          -28.30018580645843       -1.62257547032772       -4.85925307177978
C          -26.40832201558935       -0.89734996297733       -5.47909898115473
H          -25.84721932707796       -0.34165444564312       -6.22794759310369
H          -25.79600433705213       -1.34683735568858       -4.70073906375334
C          -30.42352148944410        3.58847585293251       -4.92100506250076
H          -29.34190707042134        3.72173050903948       -4.87578672070675
H          -30.67984551737747        2.61740470286783       -4.48914788956915
H          -30.88917198829377        4.36785972371841       -4.29689118439030
C          -32.16933548045534        5.61482155959287       -6.83348367743225
H          -33.23474554409849        5.71651512601226       -7.06461856835974
C          -31.44847838461264        6.62886756852043       -6.35068344855246
H          -30.40051035378983        6.50083169906449       -6.09428937691766
H          -31.79118012570720        7.65611132541687       -6.26814592668666
C          -33.20742651881285        5.67270592807201      -12.25996130755972
H          -33.33523789222058        6.40035649636318      -11.42463757269855
H          -34.21473791574973        5.45415548275339      -12.63743069612988
H          -32.65631604566401        6.20862552208631      -13.04035029819270
C          -32.42911286221949        3.85397333266728      -14.57057450781263
H          -32.14443249386301        4.90745568129716      -14.67785868723644
H          -33.51089900652900        3.76429084746960      -14.72959442126332
H          -31.94543690988133        3.31369805358512      -15.42532667198600
C          -34.44318126986471       -1.60867663036729       -7.15803356917924
H          -34.64946372711599       -2.62048219803800       -7.50586096003637
H          -35.38843945166083       -1.13405396822608       -6.89947793612101
H          -33.82448515608251       -1.66781621578946       -6.26874334232454
N          -34.28780127858483       -0.60199008874502       -9.44307035477199
H          -35.20197688823875       -0.89780292847190       -9.74298445398832
C          -33.73615160344095       -0.83851325354021       -8.21147154267313
C          -33.38055882300223        0.08592796520339      -10.17677107345038
H          -33.55833305781042        0.40954988391612      -11.18212148352490
N          -32.28979343982741        0.29271865139134       -9.48297395565211
C          -32.49827713541806       -0.26567943390806       -8.25693669401441
H          -31.74576574269608       -0.21380955743939       -7.49813318558406
C          -28.63710777322291        3.37014060216641      -11.80927543921714
H          -28.91129957314651        2.83147405238963      -12.70821543421547
H          -27.64915915617245        3.80746695545778      -11.90216410662821
H          -29.37175711814976        4.14274680912021      -11.60888840581825
S          -28.61467560532138        2.23734360751805      -10.36752627269709
H          -28.05169259903695        1.22115126392094      -11.03037760983420
81
 energy: -118.359118165499 gnorm: 0.052989396753 xtb: 6.7.1 (edcfbbe)
Fe         -30.58980071308173        1.20981380705548       -9.95719487481922
N          -30.17567890829089       -0.07167936701270      -11.51725445689750
N          -31.55412241639814        2.44983390181676      -11.18911915186996
N          -30.92709807971628        2.48538191177767       -8.42395749332528
N          -29.52704243404073       -0.03399350458002       -8.74376226457622
C          -29.48506957383371       -1.23709144284629      -11.46823681723191
C          -29.23934312291765       -1.74464181505524      -12.80959561969224
C          -29.81913771214943       -0.86286375209604      -13.66241146615133
C          -30.42429564786016        0.17067015230709      -12.82977021853755
C          -31.60129364311728        2.33382467268023      -12.54482155189100
C          -32.19557252788770        3.51332430179023      -13.11837664268483
C          -32.54909741052335        4.32198947978289      -12.07145814558436
C          -32.15234900788201        3.63089020143572      -10.86725027055901
C          -31.67063015509651        3.61862245492569       -8.44349038259029
C          -31.60613959769456        4.28192747872031       -7.13916711490303
C          -30.82280883904111        3.48980553851523       -6.35472744366191
C          -30.41927293210006        2.36159686201242       -7.17429959275547
C          -29.20701703685245        0.21635272546103       -7.44866117698621
C          -28.39232075241647       -0.85221246894375       -6.92568329836988
C          -28.26366956818335       -1.77175692183922       -7.93879695445677
C          -28.98047078425967       -1.23615663753644       -9.06375108008497
C          -29.01522841967343       -1.83877395215305      -10.31294325850918
H          -28.59408761395250       -2.83266207028968      -10.38905167206309
C          -31.12640020967007        1.26516017380842      -13.30086565832019
H          -31.30905520540371        1.31277777800570      -14.36508229004580
C          -32.30440069254281        4.12074703328281       -9.56877480095407
H          -32.93202735560909        4.99571783006549       -9.43866493080199
C          -29.62385084678434        1.31987254100380       -6.71826136447989
H          -29.29233967867581        1.35080271889883       -5.69031238985494
C          -28.42418037967231       -2.97029459420999      -13.02410515774639
H          -28.90133703409061       -3.81334708207862      -12.51377155186986
H          -27.43218613540181       -2.83410332591895      -12.58380757754032
H          -28.28893187175273       -3.24270949591969      -14.07800255352273
C          -29.87239300760539       -0.81199822812665      -15.14749902176388
H          -29.42599766151662        0.11948128202259      -15.50674292785232
H          -30.91584384592194       -0.83314216830610      -15.47739289118967
H          -29.34784938944757       -1.64266804743419      -15.63792725291578
C          -27.49295178317589       -3.03039615683114       -7.73471001139637
H          -27.39684157712754       -3.71083382866837       -8.59623182033520
H          -27.96844318228242       -3.58878740895760       -6.91585723253850
H          -26.48244905170370       -2.78144716165277       -7.39721116593213
C          -27.72126517914377       -1.08164393766586       -5.64697380090510
H          -28.28133204702596       -1.60471261131331       -4.88236358851803
C          -26.41829998059550       -0.93321484899846       -5.52914159535210
H          -25.85277340965093       -0.36185996839313       -6.24197823307998
H          -25.85399418848566       -1.27631239718634       -4.64538316345733
C          -30.41726750985896        3.57717113295057       -4.92893712534298
H          -29.33702206763443        3.72030982282808       -4.85195384046516
H          -30.66095983199973        2.62482585580443       -4.44251474861373
H          -30.91011936265032        4.38239903112877       -4.36785647758574
C          -32.16409796633634        5.59404685882536       -6.84892636982674
H          -33.20905252685868        5.74320290852356       -7.09905476891584
C          -31.43524516859700        6.60779653136385       -6.39435747523841
H          -30.40457603265886        6.48195798290033       -6.11363162560697
H          -31.83940208207657        7.60486182770313       -6.23111534651190