91
 energy: -127.761214959458 gnorm: 0.320680773862 xtb: 6.7.1 (edcfbbe)
Fe           6.76400000000000       10.01000000000000       35.11799999999999
N            5.17700000000000        9.27700000000000       34.20000000000000
N            7.52300000000000        8.12500000000000       35.38800000000000
N            8.37900000000000       10.78900000000000       36.14400000000000
N            6.03200000000000       11.90600000000000       34.91100000000000
C            4.21400000000000       10.00600000000000       33.52500000000000
C            3.27200000000000        9.07800000000000       32.94200000000000
C            3.65200000000000        7.82800000000000       33.25700000000000
C            4.86000000000000        7.93900000000000       34.03799999999999
C            6.80800000000000        6.96500000000000       35.11600000000000
C            7.58700000000000        5.82900000000000       35.54399999999999
C            8.88600000000000        6.40700000000000       36.08100000000000
C            8.75000000000000        7.84300000000000       35.96200000000000
C            9.48600000000000       10.08300000000000       36.56199999999999
C           10.37100000000000       10.97600000000000       37.25300000000000
C            9.81500000000000       12.19600000000000       37.22900000000000
C            8.54400000000000       12.09400000000000       36.54000000000000
C            6.59200000000000       13.04600000000000       35.42600000000000
C            5.83000000000000       14.17100000000000       34.91800000000000
C            4.86600000000000       13.68300000000000       34.11799999999999
C            4.99300000000000       12.23700000000000       34.10700000000000
C            4.18100000000000       11.36800000000000       33.43100000000000
H            3.44200000000000       11.80100000000000       32.75700000000000
C            5.57400000000000        6.88200000000000       34.54900000000000
H            5.11400000000000        5.89500000000000       34.49600000000000
C            9.69900000000000        8.73900000000000       36.35900000000000
H           10.70700000000000        8.36000000000000       36.52900000000000
C            7.65800000000000       13.10900000000000       36.29000000000000
H            7.81200000000000       14.04700000000000       36.82300000000000
C            2.03700000000000        9.47500000000000       32.11600000000000
H            2.59000000000000       10.07300000000000       31.36000000000000
H            1.60500000000000       10.16300000000000       32.87400000000000
H            1.22500000000000        8.91300000000000       31.60700000000000
C            2.99200000000000        6.48900000000000       32.81400000000000
H            2.90200000000000        6.07400000000000       33.84100000000000
H            3.88000000000000        6.03900000000000       32.32000000000000
H            2.07300000000000        6.23900000000000       32.24300000000000
C            3.79300000000000       14.43000000000000       33.30400000000000
H            3.35300000000000       14.89000000000000       34.21500000000000
H            2.99400000000000       14.30100000000000       32.54300000000000
H            4.58700000000000       15.10000000000000       32.91000000000000
C            6.07200000000000       15.63500000000000       35.31900000000000
H            6.63000000000000       16.30300000000000       34.64600000000000
C            5.02300000000000       16.18200000000000       35.98900000000000
H            4.42100000000000       15.57100000000000       36.67800000000000
H            4.76300000000000       17.24200000000000       35.85000000000000
C           10.38200000000000       13.50900000000000       37.80200000000000
H            9.48700000000000       13.76100000000000       38.40999999999999
H           10.35500000000000       14.09700000000000       36.85999999999999
H           11.29500000000000       13.76300000000000       38.38200000000000
C           11.73400000000000       10.53900000000000       37.84599999999999
H           12.16200000000000        9.74000000000000       37.24600000000000
C           12.09400000000000       10.89100000000000       39.09899999999999
H           11.58800000000000       11.72200000000000       39.61300000000000
H           12.89700000000000       10.35100000000000       39.62100000000000
C           10.05600000000000        5.63800000000000       36.70400000000000
H            9.41000000000000        5.03800000000000       37.38000000000000
H           11.03800000000000        5.80100000000000       37.19600000000000
H           10.19600000000000        5.08200000000000       35.75200000000000
C            7.18100000000000        4.36000000000000       35.49499999999999
H            7.44400000000000        4.19700000000000       36.56199999999999
H            8.05500000000000        4.09300000000000       34.86400000000000
H            6.31400000000000        3.71600000000000       35.23500000000000
C            9.51400000000000       11.97900000000000       30.76300000000000
H            8.85200000000000       12.10500000000000       29.88000000000000
H           10.46700000000000       11.51100000000000       30.43500000000000
H            9.71400000000000       12.97700000000000       31.20799999999999
N            8.46300000000000        9.80600000000000       31.49500000000000
H            8.64200000000000        9.33100000000000       30.63300000000000
C            8.84200000000000       11.10300000000000       31.77000000000000
C            7.83500000000000        9.30700000000000       32.54300000000000
H            7.43700000000000        8.29400000000000       32.59800000000000
N            7.78000000000000       10.23500000000000       33.48500000000000
C            8.38800000000000       11.37300000000000       33.01600000000000
H            8.44000000000000       12.27200000000000       33.61700000000000
C            7.87400000000000        7.53200000000000       39.85199999999999
H            8.11800000000000        7.40000000000000       40.92800000000000
H            8.68600000000000        8.12000000000000       39.37400000000000
H            7.80800000000000        6.53000000000000       39.37700000000000
C            6.55000000000000        8.26300000000000       39.70300000000000
H            6.62300000000000        9.26100000000000       40.18600000000000
H            5.74800000000000        7.68000000000000       40.20300000000000
C            6.22500000000000        8.42800000000000       38.31499999999999
H            5.40900000000000        7.72200000000000       38.05200000000000
H            7.12100000000000        8.18500000000000       37.70600000000000
C            5.78600000000000        9.81200000000000       37.99200000000000
H            6.57900000000000       10.55300000000000       38.22700000000000
H            4.84800000000000       10.07300000000000       38.52500000000000
N            5.54100000000000        9.80100000000000       36.54900000000000
H            5.73900000000000        8.85300000000000       36.17099999999999
H            5.23100000000000       10.58500000000000       36.01000000000000
91
 energy: -127.895958831120 gnorm: 0.174779000981 xtb: 6.7.1 (edcfbbe)
Fe           6.79360442630517       10.02191859896037       35.10539128533575
N            5.18946045231901        9.26936999270612       34.16216596118539
N            7.51355673983678        8.14572940492882       35.38314226683742
N            8.37948980844582       10.78339337321614       36.15286451104476
N            6.04827798413048       11.89195205838391       34.90837244133447
C            4.21578693803158        9.98680443761025       33.51209949870492
C            3.25815830308346        9.06764751309713       32.92836544805444
C            3.64043538599488        7.81963265229528       33.24597008655169
C            4.85398055325314        7.94203025235611       34.02954040947686
C            6.82955344667498        6.98044319163694       35.13283609324377
C            7.60796368721340        5.86134923121138       35.56238248395148
C            8.84694583171082        6.41341731382522       36.07120593864379
C            8.72747880517335        7.83476364993478       35.93713458676800
C            9.48890023095087       10.08756184089026       36.55060324280169
C           10.40047811103724       10.97019998881446       37.24578107536685
C            9.83057859811946       12.19507020411513       37.24364753217401
C            8.55391892092833       12.07919975604681       36.55099684251644
C            6.58157086207198       13.03582061287575       35.42833676942756
C            5.83015024681000       14.16677017717790       34.92510934586579
C            4.86441491289684       13.66144260551037       34.10664566992313
C            5.00893743801311       12.23016163091032       34.10789672613706
C            4.18071733267410       11.36104557846181       33.42718980031893
H            3.43828872364583       11.80110219993179       32.76907694568832
C            5.57681725780119        6.88655963781606       34.55184639469341
H            5.12717386510996        5.89932341228804       34.48908041851538
C            9.69239698084292        8.73709097587196       36.35050197913914
H           10.68992906755785        8.35211929340367       36.54620859403504
C            7.66008004483540       13.10552802065084       36.29350154348342
H            7.82127229545802       14.05104277724660       36.80406360399509
C            2.05592599956380        9.51704737435355       32.12375213063939
H            2.55742497723395       10.09938440803667       31.34200146129554
H            1.57759377746245       10.18627058507531       32.84823662763445
H            1.27963852363308        8.89407375498204       31.64625555071505
C            3.02735344650595        6.48080459916022       32.84450625602935
H            2.89648930507011        6.03013657814671       33.83456309590416
H            3.86764282756335        6.00645224859294       32.32220127547222
H            2.10606176874373        6.30194643708634       32.26175540684382
C            3.82444923248001       14.46831697308921       33.33458990922421
H            3.33166233555267       14.93681490001315       34.19560439269196
H            3.04618016430484       14.24508053863709       32.58004136093592
H            4.55178861242371       15.15769718162485       32.89049800908578
C            6.00979820016443       15.62254790996558       35.27318169246676
H            6.63143815675992       16.27874222221765       34.65261498632226
C            5.02342219202610       16.18434876071148       35.98549994059417
H            4.41688836670044       15.58083322473335       36.65700915436967
H            4.78588926742328       17.24166563256389       35.88750701863821
C           10.34163350344027       13.51816372747956       37.78701180080035
H            9.49255344918142       13.80447940712499       38.41844792038805
H           10.35552320400590       14.13058574897762       36.87685197317968
H           11.27110807767435       13.70639733401186       38.35163168670469
C           11.69563507297654       10.52365968787013       37.85956888172875
H           12.16737417893503        9.74840489445501       37.26275187335699
C           12.08595425154714       10.88603774795622       39.08359263201714
H           11.58912837276289       11.69830294060606       39.60841303741704
H           12.89743099341718       10.37369454466612       39.60103370943806
C           10.00161475171528        5.60749168204142       36.67254831556065
H            9.43413999499550        4.99551748929205       37.38594686793945
H           10.96875208207728        5.85758768605943       37.16059504886555
H           10.22351155647714        5.02734803564237       35.76726453380826
C            7.24220284551991        4.38009368020965       35.51715071583417
H            7.45730599921631        4.14266756890648       36.56688243606629
H            8.06470214849371        4.03898773458591       34.87511986145242
H            6.33234324256525        3.80777430341916       35.23340170607928
C            9.51494244066235       11.97788743018069       30.75880507584908
H            8.86354909517008       12.10728325243381       29.88425326709849
H           10.45950958299619       11.52194815638875       30.43413989144034
H            9.71355799985722       12.96119060451353       31.20041046025634
N            8.47313248003161        9.81182194181891       31.48054817779457
H            8.65053845444897        9.33132574316999       30.61873261704421
C            8.84012755735669       11.10687023859357       31.75711180573413
C            7.83642678369321        9.31406371032759       32.54519175119888
H            7.44129066264867        8.31137190083955       32.60466646238127
N            7.77458547751486       10.23197529371717       33.48242623702018
C            8.38563740042962       11.36016389484537       33.01366369938122
H            8.43973382377084       12.25387984007933       33.61226893011116
C            7.88193077929726        7.52667191293862       39.86855052984264
H            8.12853234353722        7.39343276458559       40.92554461364585
H            8.67747365089162        8.10774935572812       39.38266468117603
H            7.81451955781818        6.54260234322534       39.38607747944531
C            6.55722573565711        8.25484687596680       39.73538685006998
H            6.62643101108014        9.24760776623203       40.20330253899660
H            5.75794052032492        7.68602524894576       40.22781674969877
C            6.22006534673870        8.42226939323352       38.30552221311733
H            5.41499297610018        7.72362513458955       38.03499641749489
H            7.10654131460432        8.18981653699812       37.70052768250945
C            5.78205750436829        9.82090288878545       37.98610864973219
H            6.57085343296175       10.55070976136082       38.23269121444046
H            4.85536417395638       10.07819451759175       38.52720114982002
N            5.54075393623774        9.79894501883055       36.56441686768895
H            5.69194209835803        8.86291097869249       36.18322161443002
H            5.19546572994902       10.58305957091891       36.03576360786771
91
 energy: -127.964908784553 gnorm: 0.083331675429 xtb: 6.7.1 (edcfbbe)
Fe           6.81760310775997       10.03089899218950       35.10207246038187
N            5.19832516116313        9.26360671607582       34.13124956472692
N            7.50912607569244        8.16683048339423       35.37351007733424
N            8.37614317314267       10.77721315019708       36.15017911983198
N            6.07106396466225       11.87604146175820       34.89772818307150
C            4.22469174890276        9.97052181533303       33.49530439617741
C            3.24633314417399        9.06054714358084       32.91511810753477
C            3.63173318801593        7.80998688087592       33.23757444984560
C            4.85622045211077        7.94594078200354       34.01708094790728
C            6.84515123160813        6.99642171564301       35.14420401039123
C            7.63111916552470        5.88512683510975       35.58023330915633
C            8.81357406210009        6.41016479980172       36.06067523402076
C            8.71183889845638        7.82995453257541       35.91691888785822
C            9.48656294737106       10.09143957616270       36.53464369255359
C           10.41874135636962       10.96701462627233       37.23992957987902
C            9.83319765184308       12.19564339289696       37.25791426105345
C            8.55648035456958       12.06346083210891       36.55625407882930
C            6.57662049826707       13.02510128532743       35.42623318635721
C            5.83002850776479       14.16068623994911       34.93392361694483
C            4.86282843204507       13.64353180569166       34.09667596567544
C            5.02633091469572       12.22307321247160       34.10232919241034
C            4.18406311619300       11.35279801905849       33.42073497145029
H            3.43289100020723       11.80039230539274       32.78487820544908
C            5.58284464146430        6.89349269818244       34.55020117868573
H            5.14403140453562        5.90587835950959       34.48152833267945
C            9.68450652503927        8.73602761015219       36.34523048095468
H           10.66939222605771        8.34318592437626       36.56868462424440
C            7.66355454035112       13.09997285245352       36.29214678319548
H            7.83304367132520       14.05294547507913       36.77960697215664
C            2.07582019142754        9.55611303871326       32.13197616403322
H            2.52346408932009       10.13001186099491       31.32343518002791
H            1.55049618069229       10.21339106227201       32.82176135678910
H            1.33958868625992        8.86685899133831       31.68888436183242
C            3.06185171168388        6.47453137092055       32.87413910205156
H            2.89275301618081        5.98388323689234       33.82991476619709
H            3.85796012318435        5.96971793582334       32.32667109203033
H            2.13725144470693        6.37626485947608       32.28129231915509
C            3.86069310132392       14.50223624334195       33.36801357175701
H            3.31464986156975       14.98293844528643       34.17845600130543
H            3.10931495321493       14.17290600109090       32.62234310716158
H            4.51911148638302       15.21580973353626       32.87562661014341
C            5.95463039645788       15.60341312895695       35.23637264935661
H            6.62548839997734       16.24011303005814       34.65055922174525
C            5.02141409737075       16.18395145152849       35.98107484186194
H            4.39936823738638       15.58906813698459       36.63277241635941
H            4.82028513624622       17.24544913764899       35.93314621642037
C           10.30107006103449       13.52238215791574       37.77159516423259
H            9.49553858916415       13.84974871496443       38.42593745107802
H           10.35194056437034       14.16363085865678       36.89175999948773
H           11.24838924693352       13.63680793071486       38.32074662065710
C           11.65890803746278       10.51593490984734       37.85880718082664
H           12.16962566478170        9.74672652818478       37.28415249684594
C           12.07922051368078       10.88467814689263       39.06544122499275
H           11.58413597425345       11.67454713178849       39.60983243224264
H           12.90039819059698       10.39649749935397       39.57559091302468
C            9.94636485141003        5.57890497313363       36.63969067566487
H            9.45189452313061        4.95501913090099       37.38631673184629
H           10.88862117181796        5.93372989603624       37.11907410586954
H           10.24521843663186        4.97562259356050       35.78038457394226
C            7.30232558768018        4.40321041976060       35.54024373866014
H            7.47498601724666        4.09332438061639       36.57181597631150
H            8.07637877383926        3.99405761061760       34.88814478647809
H            6.34617083802586        3.92187962779569       35.23008044858634
C            9.51547248764932       11.97742605383460       30.75615613449354
H            8.87342947261542       12.11002814515966       29.88487113682115
H           10.45493707953375       11.52966648369947       30.43317388255521
H            9.71413349078070       12.95084750679237       31.19560066001187
N            8.48064330282852        9.81636590142232       31.46961162963861
H            8.65638707770511        9.33053826498964       30.60815965985139
C            8.83612381071257       11.10949628434525       31.74878117806160
C            7.83753260611261        9.31964430927099       32.54880604812459
H            7.44467478708344        8.32493190978893       32.60987564810558
N            7.76865735977384       10.22743717479483       33.48704995683346
C            8.38164985582886       11.34759424236797       33.01379380007799
H            8.44065521279102       12.23897976624047       33.60744198417380
C            7.88991802642913        7.52034273010964       39.88446916856316
H            8.14340325694375        7.38415569298924       40.92853070874903
H            8.67224531072780        8.09858051227896       39.39283778107195
H            7.82115974968739        6.54918975256216       39.39614143025871
C            6.56352702920427        8.24721803137561       39.76472221675280
H            6.63123065647701        9.23587646027220       40.22021479843911
H            5.76701207151175        7.68824725439915       40.25248023182606
C            6.21587071514913        8.41748875466911       38.30603561079464
H            5.41951393571697        7.72453921085811       38.02825736552965
H            7.09580403158039        8.19611807366104       37.70433322535341
C            5.77573753119041        9.82782970143720       37.98430387290129
H            6.56287329216354       10.54774551838034       38.24207857860121
H            4.85883633531127       10.08389917234346       38.53515196886392
N            5.54668952916778        9.80230614121024       36.57696656187355
H            5.63943639352190        8.88382207181623       36.17702601682316
H            5.16507627494322       10.57542517970363       36.05631137511728
91
 energy: -128.006859335759 gnorm: 0.065800813748 xtb: 6.7.1 (edcfbbe)
Fe           6.83854934591942       10.03560516279202       35.09327323235264
N            5.21385633345549        9.26185916196352       34.10239816284646
N            7.51139676098862        8.17537908977235       35.36716117654078
N            8.37366259195376       10.77313446691037       36.14143324474256
N            6.08808695210268       11.86660911129665       34.88287574488976
C            4.24095569701306        9.96497930962360       33.47516653226159
C            3.24989073570380        9.06206036385849       32.90428352593416
C            3.63674520431741        7.80772540679141       33.23317640304700
C            4.86748268082282        7.95018005637253       34.00239787395432
C            6.84514147897369        7.00641551024800       35.14485838637427
C            7.63409705709701        5.89106270365485       35.58586729056767
C            8.81000318505823        6.40947777153603       36.05318493616836
C            8.71343067942227        7.83444318559653       35.90605343005875
C            9.48458223106491       10.09400778810344       36.51694584369447
C           10.41619004616268       10.96954034500381       37.23046055884285
C            9.81879333930687       12.19739028337108       37.26025270037338
C            8.54941091807469       12.05433767536665       36.55492350175746
C            6.57773097938167       13.01640746990319       35.42260661117913
C            5.82740947321917       14.14920520685519       34.94175632735863
C            4.86525529451831       13.63632053733799       34.09420762639535
C            5.04020934013183       12.21764821093367       34.08878006458091
C            4.19272047425679       11.34711785744620       33.41026788669666
H            3.42304751760462       11.79962268345276       32.80227283967972
C            5.58880973918001        6.90007569249683       34.54406411964104
H            5.16072875780436        5.91058191429674       34.46924295165623
C            9.68169139311900        8.73745526534388       36.34090264972701
H           10.65134345696340        8.33306208641315       36.60166198805412
C            7.66513676549637       13.09470923881182       36.28685104379436
H            7.84903388028511       14.05676802003566       36.74866011797711
C            2.08938509065924        9.58072983467463       32.13620574558776
H            2.48677395500234       10.16127761308239       31.30278920633220
H            1.52413088395716       10.24035298850526       32.79494437023322
H            1.39259469850951        8.83490083622263       31.72657679690389
C            3.08399577924093        6.46964152355830       32.89481221291545
H            2.88849982395994        5.93791740922765       33.82639321020500
H            3.84809658381567        5.92947745008580       32.33181579403117
H            2.15895676247557        6.44943213207130       32.29815374148757
C            3.88672611655768       14.51927488057282       33.39024849137009
H            3.29975605880925       15.02434011388198       34.15980730732607
H            3.16871296128591       14.09947885056774       32.65930921015878
H            4.48596604054843       15.26760688149765       32.86476702488994
C            5.92014306860857       15.58680789301390       35.21484693198645
H            6.61589323789144       16.19890158457896       34.63950043592528
C            5.01839999550071       16.18468007951679       35.98135617527716
H            4.36605920133522       15.59512243300681       36.60730392959179
H            4.87068768479865       17.25896429257444       35.99172145072776
C           10.27015528962085       13.52400996587263       37.76160208445481
H            9.49732002679449       13.89705536021215       38.43558161274105
H           10.34502561745335       14.19661481033345       36.90522236719700
H           11.23161721680462       13.56390180381460       38.29428966743519
C           11.63455756774906       10.50506488689520       37.85789015765152
H           12.16976884674843        9.73590964139623       37.30601050765662
C           12.07106968040103       10.88252898699996       39.05594872215073
H           11.56989819937242       11.65495396109508       39.61657180678487
H           12.91746976203149       10.42233788321265       39.54518984672836
C            9.91353884938116        5.56130410808807       36.61646659913874
H            9.46974017315126        4.91981657818019       37.38188461972843
H           10.81729655149003        6.01225758994384       37.08006603466580
H           10.26368476249718        4.92878239662245       35.79487631639987
C            7.33863699593427        4.41824826532808       35.55530300903895
H            7.49138835872790        4.04859580059016       36.57260126555691
H            8.08535526431974        3.95602415257899       34.90369434758284
H            6.35120548038323        4.03176307523770       35.22582230640695
C            9.51730295061427       11.97907424796812       30.75116594074201
H            8.88117025446577       12.11575431707861       29.87765269041044
H           10.45712515139014       11.53421062546206       30.42966360591882
H            9.71675633956114       12.94889100884721       31.19373629989453
N            8.48585237174044        9.81721133078866       31.45704179197612
H            8.66162418942643        9.32936252894058       30.59598789583553
C            8.83448939895583       11.11041845190277       31.73919802769142
C            7.84349522692604        9.31993628466278       32.54180713673649
H            7.44944026385908        8.32867595667224       32.60732040952527
N            7.77388913901603       10.22302085121770       33.48249591871565
C            8.38329058651672       11.34123771631010       33.00696700620016
H            8.44623339052475       12.23012459886842       33.60052683732899
C            7.89765640650041        7.51263267184880       39.90275544515162
H            8.16566199402246        7.36957167674568       40.94259247778095
H            8.67317356502058        8.09205562952689       39.40611978930922
H            7.82889407527668        6.54646395315120       39.40913142887555
C            6.56936892622884        8.23922556558068       39.78974482897519
H            6.64122756573455        9.22488323270503       40.24669392565887
H            5.77690594427671        7.68452488398377       40.28679020447899
C            6.21274483091324        8.41573506607418       38.32053403781246
H            5.42139458427483        7.72366302152714       38.02982751600382
H            7.08896507081739        8.20426688025149       37.71268148138662
C            5.77145366514355        9.83089254752716       37.99585635774932
H            6.55801015213318       10.54678547855765       38.26048899861055
H            4.85748348217305       10.08976108010142       38.54928999600391
N            5.55592711309216        9.81957175361465       36.58845198864549
H            5.54207804392739        8.89267772611982       36.17413345641931
H            5.10648642225385       10.57511327533650       36.08778442874731
91
 energy: -128.030970007006 gnorm: 0.062402462817 xtb: 6.7.1 (edcfbbe)
Fe           6.86373658383334       10.04134675041984       35.07970838249761
N            5.23366786422644        9.26190708376795       34.07437952659982
N            7.51857541341791        8.17717881765883       35.36310302517535
N            8.37612276333810       10.76983418386449       36.12854269798887
N            6.10217661654607       11.86431240560314       34.86236279912108
C            4.26017048789871        9.96380156164337       33.45263605943814
C            3.26073952551041        9.06677354794465       32.89309413842382
C            3.64878225544077        7.80838336952262       33.22883510880514
C            4.88410291360092        7.95409533787828       33.98454319753235
C            6.84639348110801        7.01199176337755       35.14224109558752
C            7.63525413173633        5.89159395531084       35.58657004896929
C            8.81460590217563        6.40703705248147       36.04598920574939
C            8.72024923461382        7.83643249827538       35.90076643089243
C            9.48433061014836       10.09453075160159       36.50492536306965
C           10.40672515513043       10.97301102837662       37.22531396932551