72
 energy: -105.980694687186 gnorm: 0.000129018030 xtb: 6.7.1 (edcfbbe)
Fe          -6.14800454635424       24.80278699124908        7.56685839719255
N           -4.42955493949361       23.82507839184058        7.32803245094326
N           -5.73520424972095       25.07572229727328        9.50496908280789
N           -7.91786078518899       25.73656298440389        7.81382025835093
N           -6.61158953754081       24.45864163893223        5.64730297814296
C           -3.93710013486420       23.30745560347354        6.17424057865299
C           -2.64551836120044       22.69375014096674        6.39808249190145
C           -2.37770989257993       22.84241220691383        7.72197959987897
C           -3.50559161531907       23.55246151417816        8.28599906457828
C           -4.64863592012475       24.61190178600870       10.17958618137570
C           -4.70729271936117       24.98930772058034       11.56855165778738
C           -5.86394166042318       25.70531494511196       11.72427863512264
C           -6.49650050862146       25.73062804735761       10.41979556495396
C           -8.36218809287794       26.35085295783434        8.94686435113978
C           -9.64802997642993       26.95814467864233        8.72763102036263
C           -9.98431555130545       26.68941814972539        7.42659131566163
C           -8.87600290155449       25.94026773326919        6.87226566534029
C           -7.75201580808566       24.82071905094876        5.00081733933154
C           -7.69750091806898       24.42636946446387        3.61061106375927
C           -6.48655105060151       23.83522266570723        3.42878733360530
C           -5.82336980994913       23.86417142338547        4.71308870222269
C           -4.57039646344260       23.33295479168476        4.94641549700863
H           -4.05410120335637       22.88897177569059        4.10971656696442
C           -3.60139481989016       23.90354150701544        9.61679439014561
H           -2.79215433558039       23.61050743067844       10.26732821401221
C           -7.69984476836112       26.35780340090451       10.16172330315541
H           -8.17749686336410       26.87198838219442       10.98090151153042
C           -8.81894487185228       25.49159872219923        5.56610684133849
H           -9.66173766186215       25.70589715917611        4.92812974942003
C           -1.19109204766662       22.39511996741494        8.50365564672204
H           -0.47429673595074       21.88879888929172        7.86212552756976
H           -1.49193411752069       21.70555952770300        9.29244683151653
H           -0.69384956479067       23.24637836833357        8.96948813115838
C           -1.83171010242068       22.03905134337672        5.33588469922538
H           -1.61583061371116       22.74110697270266        4.53030991905061
H           -2.36896586863571       21.19112775593126        4.91060411750501
H           -0.88838668347902       21.67890029684265        5.73866812944568
C           -3.71572868555710       24.59308666803620       12.60518824473832
H           -2.84444005087988       25.25019715661051       12.58442351131700
H           -3.37339266905953       23.57301871313456       12.43866645531318
H           -4.16668421024807       24.65257702970329       13.59351885890754
C           -6.41545804211438       26.30319511319471       12.92043444515083
H           -7.49684966500502       26.29825303531337       12.99161803087751
C           -5.70711540723667       26.84735344314264       13.90419993479135
H           -4.63424291899598       26.92110186987866       13.86533903004190
H           -6.18255691531373       27.26353940414782       14.77667461870052
C          -10.39633897414232       27.76367883534811        9.73064743354552
H           -9.71446723125336       28.37297314376104       10.32207032225844
H          -10.95152873926987       27.11834714386821       10.41356426358021
H          -11.10353648698538       28.41996747383191        9.22777081799538
C          -11.16748359107324       27.07677101674922        6.68992044913960
H          -11.01590499884176       27.28640188543321        5.63768859002110
C          -12.39003381079449       27.18106608945649        7.19975937824267
H          -12.60587604134387       26.94024611266416        8.22612292449845
H          -13.22739251910125       27.48843947321981        6.59579849044730
C           -8.78962215592865       24.66688116381537        2.62660148124754
H           -8.96558202440872       25.73597555945652        2.50596980242453
H           -9.71900590576081       24.20681332157882        2.96298136591310
H           -8.53313251323329       24.25084014072803        1.65562803544875
C           -5.89605184166450       23.25014757556425        2.19278583941429
H           -4.96792849738282       23.76033482127144        1.93512977131888
H           -6.58213861646722       23.34387076472516        1.35483097711340
H           -5.67222296830942       22.19295090520839        2.33744062095338
O           -7.24555532379883       22.90333799202816        8.04386603256479
H           -7.47097245285865       22.59330088941729        7.15903323947525
H           -8.05234278642645       23.26113011317671        8.43229266857091
C           -3.49870982411042       26.94091067271680        7.65094622811984
H           -3.47106916739137       26.50218835201245        8.64255227546841
H           -3.15998443753627       27.97230144882714        7.66420348014685
H           -2.88786933143288       26.35447854899751        6.97251927988083
S           -5.20533658958912       26.88028037208311        7.00091793751567
H           -5.73882890492924       27.59754706748600        7.99644235599690
