78
 energy: -116.057993373034 gnorm: 0.000066998331 xtb: 6.7.1 (edcfbbe)
Fe          -5.65473639240135       56.99860062920718      111.58361918315057
N           -6.36403325400705       56.05625279560523      113.21326246124036
N           -6.61500444922933       58.67866164357099      112.15554472710170
N           -4.91019537287196       57.96044148742114      110.00120607769730
N           -4.66685818192421       55.35100718549628      111.06464190440890
C           -6.16273370291271       54.75594353895674      113.55497039283988
C           -6.86798809822550       54.43231357800477      114.77406567452125
C           -7.50379107872571       55.57061267398088      115.16319781409572
C           -7.18379316033108       56.57258296819187      114.17174385970459
C           -7.40780673389588       58.84129972379669      113.25319592890870
C           -7.94901385392941       60.17359610428578      113.30113261487534
C           -7.46869067963409       60.82473391379050      112.19435978430961
C           -6.64611075306727       59.86296937975240      111.48915240663624
C           -5.15425348613264       59.24881789602377      109.63688865305534
C           -4.44396853583671       59.58386509824413      108.42781514468857
C           -3.75399568315050       58.45877392114492      108.06405989132379
C           -4.07258261495145       57.45543929163182      109.06263401734778
C           -3.84918505596449       55.19761630860266      109.99193501786088
C           -3.31230923402278       53.85377280012491      109.94332752838459
C           -3.83304031575912       53.19784797193495      111.01317441748115
C           -4.67608640631510       54.15201537697317      111.70254559581075
C           -5.37738257406746       53.85872977822751      112.85573135718813
H           -5.29936572632748       52.85596494020171      113.24689966832371
C           -7.66567703446234       57.86701116395510      114.20434071616469
H           -8.30279199366387       58.13688376809237      115.03270796376773
C           -5.95866128985009       60.14039833905159      110.32354599989549
H           -6.04879835992306       61.13748330815856      109.92074445806300
C           -3.56083128731155       56.17111034303513      109.05522390345767
H           -2.88146661386498       55.90742585955820      108.25904792039607
C           -8.37021625324809       55.80991030962640      116.35240609481002
H           -8.44874561430811       54.91180715127522      116.95994124435340
H           -9.37441743460489       56.10386977993620      116.04485967649094
H           -7.96053831294763       56.60788214782334      116.97226594643217
C           -6.85137290234972       53.09143559417704      115.42390727976948
H           -5.83404265302460       52.81153123933495      115.69837748202558
H           -7.23836303887423       52.33198313447348      114.74427983522756
H           -7.46157081333025       53.08898808653000      116.32384532821330
C           -8.89975056680342       60.67823641990730      114.33042196377150
H           -8.36843485685146       61.00646789160614      115.22550300641807
H           -9.60229821538182       59.89938980436625      114.62379992215477
H           -9.46126280913823       61.52296303160222      113.93648716928716
C           -7.71789122861242       62.17847588396990      111.75124597389778
H           -7.74429146192093       62.32123892956290      110.67712456584077
C           -7.90204941655219       63.22885954392684      112.54452336183940
H           -7.83859191709475       63.15665209312581      113.61625548892059
H           -8.09683172900208       64.20977481129273      112.14375149685641
C           -4.53235906939702       60.88740381679369      107.71394672974391
H           -3.87178806015612       61.62664817047413      108.16999466986471
H           -5.54857418337715       61.27763800327925      107.74762731374284
H           -4.24182562260608       60.76298027024640      106.67276527450697
C           -2.89592178831802       58.24041130929560      106.92055218812335
H           -2.91353083081398       57.23889192084472      106.50599211594009
C           -2.10399576660210       59.15173913012714      106.36490053098483
H           -2.00796353377479       60.14652857976442      106.76331957718452
H           -1.49895894389105       58.92230203842195      105.50334728315451
C           -2.37502502035476       53.36044329742688      108.89511477073358
H           -1.46574146850069       53.96143227144668      108.88316565258854
H           -2.83436662128456       53.42253090890045      107.90805414929316
H           -2.09886902037128       52.32507047225820      109.07905541642135
C           -3.62134140076751       51.79012637142166      111.45416431833148
H           -2.95587807761247       51.26704974598798      110.77184540147520
H           -4.56912794483294       51.25231868104285      111.48907230475989
H           -3.18039759248961       51.76339918232075      112.45087904467603
O           -3.92409018175221       57.71676177497147      112.90367776643227
H           -4.16768021362873       57.28922655130921      113.73195157625761
H           -4.14941762574164       58.64943146765417      112.98903432319506
C           -9.10217374364713       55.10455175605630      107.63325789303235
H           -9.78841221421725       55.81534806649780      107.17304736240328
H           -9.64789804474388       54.18144017592797      107.82836369404096
H           -8.29956565789077       54.89322285431326      106.93378007303281
N           -9.31605540439126       56.02001538971755      109.95431023124782
H          -10.31973156471011       55.95396144895065      109.99721712611246
C           -8.53431837592050       55.65728286167092      108.88890660150346
C           -8.49631658844905       56.48063591852560      110.92580949913373
H           -8.83403142385701       56.83514053469069      111.87755983033578
N           -7.24429035057265       56.43153720362746      110.54075733062791
C           -7.25164731252166       55.92123455612386      109.27569298609691
H           -6.33988520599207       55.77965763036564      108.73312604602737
