78
 energy: -116.058077830280 gnorm: 0.000111158514 xtb: 6.7.1 (edcfbbe)
Fe          11.47553934215829       -2.07641107295050        0.78217912153716
N           12.07421662355927       -0.40382380370666        1.72996493293320
N            9.79459933556599       -2.08842301545009        1.89616079514991
N           10.84619400381593       -3.69821443653429       -0.19111007164450
N           13.11317380416373       -2.01505114058727       -0.34912937736339
C           13.24052214972655        0.26854906537554        1.53918009235806
C           13.33585925000827        1.39340306175097        2.44125221745708
C           12.19804943165654        1.38427573828626        3.18748268949742
C           11.42428801565171        0.25129742813650        2.73285951189328
C            9.44845690678499       -1.20371768549895        2.87462780111226
C            8.19785790685408       -1.57467263907649        3.48162970914495
C            7.79264467742226       -2.72592185001262        2.85684202344541
C            8.80601156337117       -3.02071188003399        1.86408419536007
C            9.70938377742029       -4.40650011641642        0.04894748893278
C            9.61045111845080       -5.53627120879408       -0.84142969854747
C           10.72592410234002       -5.49854404629044       -1.63401284735701
C           11.47877400711526       -4.33374231918411       -1.20752724860241
C           13.44741886858300       -2.87874667474954       -1.34174484235481
C           14.72214421441988       -2.52020688451602       -1.92707699191817
C           15.15052115343151       -1.41769592751108       -1.25839464570794
C           14.13063625653079       -1.11809263683319       -0.27544729774133
C           14.20573472395339       -0.05580584987035        0.60425316494867
H           15.08252033697451        0.57156677929532        0.55663470351239
C           10.19975504586648       -0.10602527224424        3.26342604668075
H            9.80935302348441        0.50588604285036        4.06224236239192
C            8.76459034875204       -4.10884215994203        1.01433522869218
H            7.92805896281557       -4.78346235241715        1.11241724033526
C           12.69582006217991       -3.96379617838549       -1.74913882550264
H           13.09354615412495       -4.57099894973167       -2.54801523060604
C           11.76900822098109        2.31732169584649        4.26795633861095
H           12.51661425165836        3.08964063828205        4.43068282803695
H           11.62217065878538        1.77989018682505        5.20537521504332
H           10.82779691194441        2.80182420852802        4.00634556036398
C           14.48589401848959        2.33999376367414        2.48548218470183
H           14.60644930016149        2.84141757167269        1.52487653666862
H           15.41130906698548        1.80788337641428        2.70655723194217
H           14.33512794694972        3.09791996429757        3.25036193032266
C            7.48609634386404       -0.79020873326974        4.52855513060663
H            7.60648216520038        0.27884757158011        4.35895615007413
H            7.87511782924245       -1.01979347556539        5.52221375773144
H            6.42418352903988       -1.02726228209217        4.51378715085650
C            6.59609370879926       -3.50855841877150        3.07166852840736
H            6.19055233443507       -3.99429913352216        2.19175112207024
C            5.98163164616665       -3.67653141921707        4.23826570469690
H            6.36352721903468       -3.25930021291185        5.15362842201538
H            5.08270465045761       -4.26457278387749        4.32128093708017
C            8.46280892546733       -6.48279079049638       -0.90232463598057
H            7.52052907780560       -5.95550625175515       -0.76081006685698
H            8.54368551820340       -7.24406562805493       -0.12451654325553
H            8.44067242360520       -6.98022314045514       -1.86974681249603
C           11.11604349309706       -6.38387806994037       -2.70898380933954
H           11.64527244372792       -5.91619215947881       -3.53111463441095
C           10.88421919458466       -7.69187375572799       -2.75327796170336
H           10.40569688769246       -8.21652340635482       -1.94470411147530
H           11.19113094620440       -8.29048199578274       -3.59496487161038
C           15.37144624090147       -3.26059478574203       -3.04546026135084
H           14.73253119601063       -3.25444013872287       -3.92870504419270
H           15.55170126706061       -4.29895704451036       -2.76588351049698
H           16.32364393037215       -2.80673577897751       -3.30897138064497
C           16.39808661391953       -0.62403019672038       -1.44459229785020
H           17.01004958133124       -1.04609476472173       -2.23790618718325
H           16.98615518262806       -0.61262659426603       -0.52653159211330
H           16.16053681220034        0.40717703969324       -1.70685544456752
O           10.34621420720456       -0.69090571767777       -0.65606189937344
H           10.69051328257775        0.15857101382134       -0.35917620739101
H            9.45495527912007       -0.77519916283015       -0.29994707434521
C           14.47611005969276       -5.98034114801059        3.39554492126600
H           13.94336568639658       -6.69527643747890        4.02241080251940
H           15.37677728321251       -5.66832693679198        3.92421678676813
H           14.76684785306949       -6.47466561444685        2.47400038427779
N           13.09387561488760       -3.99845482613434        4.05371457184100
H           13.23052072141004       -4.10438918970030        5.04551608409902
C           13.61631291850497       -4.81117708980111        3.08196975282954
C           12.36509376242791       -3.04043307416477        3.43824399401132
H           11.83900824695733       -2.26330211683701        3.95289717379041
N           12.39463019881988       -3.19672773688294        2.13713085438332
C           13.16943445278082       -4.29412021503841        1.89981961131510
H           13.35132572873465       -4.63592681885430        0.90183243227534
