78
 energy: -115.989706673677 gnorm: 0.240787882801 xtb: 6.7.1 (edcfbbe)
Fe          11.47500000000000       -2.07900000000000        0.84000000000000
N           12.03600000000000       -0.34700000000000        1.74800000000000
N            9.77400000000000       -2.07200000000000        1.93600000000000
N           10.82800000000000       -3.68700000000000       -0.20600000000000
N           13.10200000000000       -1.93500000000000       -0.42700000000000
C           13.19300000000000        0.35700000000000        1.47900000000000
C           13.16800000000000        1.55900000000000        2.28200000000000
C           12.03400000000000        1.56400000000000        2.98600000000000
C           11.30600000000000        0.35600000000000        2.68200000000000
C            9.42100000000000       -1.17300000000000        2.93300000000000
C            8.22000000000000       -1.65600000000000        3.60100000000000
C            7.86900000000000       -2.80600000000000        3.00700000000000
C            8.83300000000000       -3.08100000000000        1.96800000000000
C            9.67100000000000       -4.38600000000000        0.07400000000000
C            9.52800000000000       -5.42500000000000       -0.92100000000000
C           10.55900000000000       -5.34000000000000       -1.78600000000000
C           11.40800000000000       -4.25500000000000       -1.33100000000000
C           13.43900000000000       -2.87900000000000       -1.37700000000000
C           14.83100000000000       -2.64100000000000       -1.73100000000000
C           15.27800000000000       -1.57800000000000       -1.04700000000000
C           14.18300000000000       -1.11400000000000       -0.21800000000000
C           14.20400000000000       -0.01800000000000        0.63200000000000
H           15.10300000000000        0.59900000000000        0.62600000000000
C           10.09100000000000       -0.01500000000000        3.23100000000000
H            9.63400000000000        0.66200000000000        3.95200000000000
C            8.80300000000000       -4.16400000000000        1.11800000000000
H            8.02500000000000       -4.90900000000000        1.28700000000000
C           12.61200000000000       -3.87200000000000       -1.87900000000000
H           12.94100000000000       -4.39100000000000       -2.77900000000000
C           11.55800000000000        2.63200000000000        4.00400000000000
H           12.31900000000000        3.43800000000000        4.08000000000000
H           11.42700000000000        2.16500000000000        5.00400000000000
H           10.59800000000000        3.07500000000000        3.66200000000000
C           14.27000000000000        2.63700000000000        2.25900000000000
H           14.74000000000000        2.66600000000000        1.25300000000000
H           15.04900000000000        2.39400000000000        3.01300000000000
H           13.82700000000000        3.63200000000000        2.47800000000000
C            7.51100000000000       -0.92400000000000        4.76300000000000
H            7.81200000000000        0.14500000000000        4.76700000000000
H            7.80400000000000       -1.38400000000000        5.73100000000000
H            6.41000000000000       -0.98700000000000        4.63000000000000
C            6.68700000000000       -3.73900000000000        3.32700000000000
H            6.30100000000000       -4.42300000000000        2.55700000000000
C            6.10000000000000       -3.74900000000000        4.53100000000000
H            6.45400000000000       -3.08100000000000        5.33000000000000
H            5.25700000000000       -4.42500000000000        4.73500000000000
C            8.33900000000000       -6.39200000000000       -0.96700000000000
H            7.43600000000000       -5.88900000000000       -0.55900000000000
H            8.56100000000000       -7.29000000000000       -0.35100000000000
H            8.14000000000000       -6.69200000000000       -2.01800000000000
C           10.88100000000000       -6.21700000000000       -3.02700000000000
H           11.53200000000000       -5.80000000000000       -3.80900000000000
C           10.42400000000000       -7.46500000000000       -3.23000000000000
H            9.76800000000000       -7.94700000000000       -2.49000000000000
H           10.70000000000000       -8.02000000000000       -4.13900000000000
C           15.64800000000000       -3.48000000000000       -2.72900000000000
H           15.39900000000000       -3.16900000000000       -3.76600000000000
H           15.40000000000000       -4.55600000000000       -2.60600000000000
H           16.73300000000000       -3.31800000000000       -2.55500000000000
C           16.70200000000000       -0.94200000000000       -1.11500000000000
H           17.13000000000000       -1.09800000000000       -2.12900000000000
H           17.36500000000000       -1.42500000000000       -0.36600000000000
H           16.63600000000000        0.14900000000000       -0.91600000000000
O           10.34900000000000       -0.66400000000000       -0.56500000000000
H           10.52800000000000        0.22100000000000       -0.24700000000000
H            9.84600000000000       -0.87900000000000       -1.26600000000000
C           14.84500000000000       -5.90300000000000        3.37100000000000
H           14.34400000000000       -6.83500000000000        3.71000000000000
H           15.52300000000000       -5.54500000000000        4.17500000000000
H           15.42900000000000       -6.12200000000000        2.45100000000000
N           12.93100000000000       -4.39300000000000        4.02900000000000
H           12.89300000000000       -4.71300000000000        4.97600000000000
C           13.81500000000000       -4.86200000000000        3.07900000000000
C           12.15800000000000       -3.46800000000000        3.48900000000000
H           11.37800000000000       -2.92500000000000        4.02000000000000
N           12.50300000000000       -3.33300000000000        2.22000000000000
C           13.53600000000000       -4.18600000000000        1.93700000000000
H           13.97700000000000       -4.23300000000000        0.94900000000000
78
 energy: -116.033037482710 gnorm: 0.095022946451 xtb: 6.7.1 (edcfbbe)
Fe          11.45609091224857       -2.06468263876175        0.81908645445661
N           12.03383707761050       -0.35422811366741        1.74697766959332
N            9.77941574546505       -2.09228192765302        1.95937040396690
N           10.82796789369417       -3.68568034553491       -0.21384683677608
N           13.11215836550354       -1.95897874477815       -0.39717316446057
C           13.18195347955229        0.35288225351821        1.49013008595053
C           13.17701254083548        1.56945488030910        2.28018257642258
C           12.03134412550595        1.57307196212789        3.00013559604967
C           11.31468926238396        0.35786075569641        2.67162184698688
C            9.41595372893943       -1.19042580604503        2.93195451230901
C            8.21124603531004       -1.65134248137605        3.60429026705547
C            7.85560711959441       -2.82596207506802        3.01272241082240
C            8.83703900742367       -3.08523947411095        1.97475447315510
C            9.68886007127037       -4.39597997407714        0.05972690713587
C            9.52407828834346       -5.43931467144298       -0.93165289240497
C           10.57038182072580       -5.35368228521300       -1.80262090732275
C           11.39882529709252       -4.24896795069498       -1.33128372483321
C           13.45300535150221       -2.87232032425086       -1.36055291116247
C           14.83562203370096       -2.64106521868446       -1.74916290959309
C           15.28476783742780       -1.56832265605727       -1.05176519158681
C           14.18416362242752       -1.13188961549145       -0.21201073471809
C           14.19708856307975       -0.03057207956341        0.63393064531134
H           15.08948562558569        0.58725096794844        0.62296947370319
C           10.09898700755941       -0.02217957929371        3.22234091544767
H            9.65364851892114        0.65085161117638        3.94760061375286
C            8.81449100584899       -4.16627093523102        1.11163835724280
H            8.02896210188366       -4.89701977179248        1.26991026304390
C           12.61558604719240       -3.86191371685335       -1.86794782902727
H           12.95385638051209       -4.39194313918331       -2.75297398931759
C           11.56240797709346        2.61938950503753        3.99222059372641
H           12.30381898680159        3.41910770737952        4.07807061124674
H           11.42577901264639        2.17087856470005        4.98175287883308
H           10.61304111950779        3.06041129633820        3.66925657007056
C           14.26022182857450        2.62519200743026        2.25523855115549
H           14.73122429629955        2.66704482994624        1.26906537763828
H           15.03278157098633        2.39847375462488        2.99892121776430
H           13.83828176473226        3.61036107838114        2.47591594584154
C            7.52346214940917       -0.92493351746391        4.74240694358820
H            7.80841965910131        0.13033507692753        4.76324171870873
H            7.80215786983588       -1.36937040608692        5.70611910021005
H            6.43613338690197       -0.98686525551284        4.62828150892453
C            6.70533817915841       -3.71771717224896        3.33429603743916
H            6.33951121974949       -4.38959661307793        2.55902256304007
C            6.10712945653814       -3.74390092299681        4.52276106527683
H            6.44285006993641       -3.11032820649074        5.33086582380490
H            5.27545778432970       -4.41119468971253        4.72521279276220
C            8.34621855701128       -6.38147405415618       -0.96794214119812
H            7.45111715231740       -5.89664115853532       -0.56579226332616
H            8.55448543793354       -7.27403697716089       -0.36541604228020
H            8.13967344678204       -6.68522289494320       -1.99789082118057
C           10.86998608118140       -6.20435448217260       -2.99932903965442
H           11.51823881310223       -5.77601260959045       -3.76340965742110
C           10.42364801171240       -7.44235363640808       -3.21340761829285
H            9.78995955165155       -7.94968555890884       -2.49827257690164
H           10.69382113081039       -7.99339313484790       -4.11070187314642
C           15.63354032597850       -3.47423040474688       -2.72549679204419
H           15.39959219768016       -3.17767012424954       -3.75415271096252
H           15.40285698333000       -4.53753995140596       -2.60866152136226
H           16.70468674833565       -3.32553410189541       -2.55849723002708
C           16.67467462051954       -0.94974359622397       -1.11416458523137
H           17.11186751655036       -1.09488929653715       -2.10765583184609
H           17.34048695793681       -1.41471482091140       -0.37756621763672
H           16.63074545542877        0.12462592153577       -0.91568878029723
O           10.36355339217045       -0.66452423650965       -0.55181476879825
H           10.51834119609109        0.23165220412627       -0.25952370497467
H            9.82605840289468       -0.87236040877086       -1.29408889395267
C           14.83981569518691       -5.90313991776414        3.37414533594660
H           14.35897798323457       -6.82938867832413        3.70889244568244
H           15.51958871226190       -5.55955544574234        4.16207899329286
H           15.41814215747707       -6.11615572049269        2.47168169317916
N           12.94223466213274       -4.40002620224507        4.03116123850988
H           12.90216493590123       -4.72099681998033        4.98358697921350
C           13.81646856515566       -4.86340382125942        3.08073829884874
C           12.16168501273381       -3.46558461845996        3.46988360014783
H           11.38974097245171       -2.93014967760084        3.99582364932478
N           12.48776180167349       -3.31055672806766        2.20333044278746
C           13.51842421686104       -4.17234875951427        1.94277395031589
H           13.95930210676839       -4.22398623136328        0.96437476205109
78
 energy: -116.044931007705 gnorm: 0.023157337814 xtb: 6.7.1 (edcfbbe)
Fe          11.45571696267974       -2.06263728084740        0.81374384085197
N           12.03062710285165       -0.35903327820212        1.73847996860055
N            9.78422432719960       -2.10275263928085        1.96640859875204
N           10.82212941629717       -3.67629094185680       -0.22210141257732
N           13.11357412482972       -1.97885403192826       -0.37182511182788
C           13.17161544582032        0.34599435403464        1.49476978802953
C           13.18071140459326        1.56952083423349        2.27480891919048
C           12.02883750858224        1.57235870737114        3.00423397088029
C           11.32261612090837        0.35319078802454        2.66051395671764
C            9.42129201394408       -1.20632049684242        2.92788909852096
C            8.21892047648578       -1.64805272403184        3.60409522623756
C            7.85938282845595       -2.83952732747788        3.01882908815521
C            8.84875628729703       -3.08825306462361        1.97917024798436
C            9.69784353302916       -4.39402417878438        0.04761617724331
C            9.52216092038051       -5.44449079669552       -0.93183664125374
C           10.57928707075370       -5.35630884541843       -1.80528832551490
C           11.39199316867708       -4.23953583688648       -1.32495143783784
C           13.45971836431264       -2.87294558425103       -1.33754061620729
C           14.83049895374161       -2.64209202452029       -1.75659861399543
C           15.27985864794197       -1.56445792272746       -1.05059423387672
C           14.18025160035855       -1.15220341019990       -0.19832105805764
C           14.19105713438927       -0.04612415263200        0.63923283438110
H           15.07717955429050        0.57382462003753        0.62125998261852
C           10.11237145530995       -0.03470545055670        3.21621362217496
H            9.67761373937750        0.63308405286574        3.94754090923233
C            8.82375501920583       -4.16327251525599        1.10500165730040
H            8.02886026313526       -4.88136153322556        1.24880742524139
C           12.62153272471651       -3.86089953220340       -1.84749226810795
H           12.97399772276729       -4.40342116611415       -2.71575343412830
C           11.56391617606561        2.60100708255048        3.97949070096720
H           12.29554144105294        3.39877242248706        4.06972127126705
H           11.42231643315349        2.16252653306226        4.96547327547503
H           10.61766696912736        3.03993900316438        3.66676094989342
C           14.25073379426729        2.60949921254518        2.25138257558821
H           14.72261843314653        2.66011276738920        1.27457409848747
H           15.02157568155681        2.39026752926018        2.98992800755454
H           13.83863653217990        3.58988743245464        2.47726531868005
C            7.53859282325105       -0.92500862914893        4.71808424908003
H            7.81547323823213        0.12432277166201        4.74068903002632
H            7.81097994879966       -1.35838431335460        5.68200268430009
H            6.45717897055756       -0.99224307067466        4.61359800318960
C            6.73770416858655       -3.69628917164055        3.33734457391196
H            6.38947331949502       -4.35400096974600        2.54960829936888
C            6.12000827273857       -3.74311920655066        4.51528519951051
H            6.43510207300412       -3.13950934118398        5.34411077319056
H            5.28724627405089       -4.40059596029812        4.70069511745948
C            8.35471848047024       -6.37115519726386       -0.96869819409487
H            7.46601851699603       -5.89178745887364       -0.56731469079813
H            8.55301815396433       -7.26393297643592       -0.37482185804700
H            8.14393096447774       -6.67600374531771       -1.98965990613483
C           10.86847918726509       -6.17806851420740       -2.96130470428452
H           11.51202770566325       -5.73298790272374       -3.71209438519509
C           10.43129427610503       -7.41497736566728       -3.18826342314464
H            9.81422339682393       -7.95145413374166       -2.49164050843201
H           10.68988453685708       -7.95232673754229       -4.08739035834915
C           15.61207542090980       -3.46700158702857       -2.72431852513944
H           15.38663321908008       -3.18277289450671       -3.75167783026090
H           15.38832037417845       -4.52396529610012       -2.60740992070556
H           16.67759965041001       -3.32659875267708       -2.56104288984275
C           16.64133883137631       -0.95378682320803       -1.11146503430005
H           17.08315805364957       -1.09659383671181       -2.09512952521831
H           17.30606886487135       -1.41188320625914       -0.37800049766172
H           16.60859474662822        0.11297054528235       -0.91028359646425
O           10.38342937464396       -0.67447444270283       -0.55283167055197
H           10.49129878074006        0.24129484167176       -0.29048152906460
H            9.81753983581304       -0.86195962107221       -1.30145537574883
C           14.83584105263625       -5.90133130881956        3.37175537045883
H           14.36319199791122       -6.82309657262249        3.70631197832012
H           15.51541758348291       -5.56461127346026        4.15290731845320
H           15.41112476698366       -6.11125784311291        2.47766670456214
N           12.94820478325970       -4.40100861987033        4.03344154856201
H           12.90631185156565       -4.72001846757083        4.98839991205771
C           13.81599237352165       -4.86185719310547        3.07992907114905
C           12.16312769786012       -3.46361550010779        3.45803817093830
H           11.39513533335756       -2.93172711035477        3.97908682193658
N           12.47563106653035       -3.30170814175012        2.19574613442022
C           13.50463323186288       -4.16388117725810        1.94621327289824
H           13.94658744850665       -4.22101440086376        0.97346183300415
78
 energy: -116.048089956127 gnorm: 0.019897472982 xtb: 6.7.1 (edcfbbe)
Fe          11.45770814500709       -2.05968907738939        0.81143555373258
N           12.03631423064201       -0.36856361810926        1.73747113469703
N            9.79666878732674       -2.10879126177255        1.97012934950989
N           10.82083888345403       -3.67042649001343       -0.21369035920697
N           13.11410031432176       -1.99615926363815       -0.34789514686631
C           13.17315970342865        0.33672702648263        1.49636411327860
C           13.18349844567607        1.56036621010548        2.27143708517737
C           12.03176330912323        1.56260624657399        3.00138346706782
C           11.33053682988722        0.34381362467875        2.65734297473588
C            9.43613993864789       -1.21320284179598        2.92876640513550
C            8.23955253336248       -1.64767083125897        3.60708924265586
C            7.87801443982523       -2.84257031244065        3.02762263595367
C            8.86123263638753       -3.09008393325925        1.98407165594245
C            9.69743132932642       -4.38730865688869        0.05134482488864
C            9.52254164462597       -5.44007555931765       -0.91950950125550
C           10.58448219763522       -5.35099477335043       -1.78809429199363
C           11.39342984653830       -4.23594457844500       -1.30801160734389
C           13.45923220583359       -2.88297838129506       -1.31648657832560
C           14.82035685986589       -2.64608283367020       -1.75190937946913
C           15.26897710252722       -1.56867185387781       -1.04571900262477
C           14.17737924693260       -1.16641960181702       -0.18335950099847
C           14.19317880370737       -0.05729799343242        0.64517806500946
H           15.07697523524901        0.56353213161723        0.62162338169442
C           10.12642894692188       -0.04330997882712        3.21784376830293
H            9.70045949746339        0.61852607961509        3.95817746993468
C            8.82339358871872       -4.15800974791283        1.10523759436421
H            8.01920844615980       -4.86739696764620        1.23592503034124
C           12.62760833744288       -3.87187794789621       -1.82458814942534
H           12.99379682305426       -4.42958618141156       -2.67682144842911
C           11.55961739116301        2.58679256180772        3.97336590372089
H           12.28772109468364        3.38818607404942        4.06530596373078
H           11.41615651563709        2.14713707196074        4.95947669269837
H           10.61026428032875        3.01985237260571        3.65904969205572
C           14.25136408784200        2.59842049995949        2.24754825464918
H           14.72117412179048        2.65336527115442        1.26932303522626
H           15.02415412260159        2.37625613831668        2.98406272768641
H           13.83894318464559        3.57783531812455        2.48002444265525
C            7.55223310915422       -0.91619147246100        4.70517700131331
H            7.82201206701123        0.13588167123540        4.71350854568095
H            7.82414265752097       -1.33729617555015        5.67510761606949
H            6.47182608902227       -0.99649502681156        4.59571134778858
C            6.75616153279514       -3.69006722388681        3.33678659773105
H            6.41942367536611       -4.33889877461630        2.53669811855587
C            6.12179229624460       -3.75042651179195        4.50676578119540
H            6.43394919593513       -3.17493755772663        5.36008228340791
H            5.28421304480416       -4.40755007660196        4.66778465886891
C            8.35554280499833       -6.36223799645651       -0.96677310509636
H            7.46694162741408       -5.88241353739014       -0.56446563627674
H            8.54865221241245       -7.26108125670464       -0.37927301475607
H            8.14796233473448       -6.66127007674610       -1.99097554977725
C           10.87573737602263       -6.15593850925514       -2.94441720885442
H           11.51734277428392       -5.69565230395560       -3.68755577412550
C           10.44427200723044       -7.39395917881508       -3.17985110568367
H            9.85275616986404       -7.95341913929106       -2.47632832514236
H           10.70245597707414       -7.91806401211238       -4.08502873652804
C           15.58979309121608       -3.46713604996347       -2.72895097966114
H           15.35742967598629       -3.18416360642696       -3.75568538545899
H           15.36433993373804       -4.52421147595202       -2.61002599732182
H           16.65720627332505       -3.32893305638915       -2.57318812021170
C           16.62194989133812       -0.95043094732712       -1.10739388133393
H           17.06346614295450       -1.09323989231554       -2.09118981006260
H           17.28520196390190       -1.40645423631606       -0.37026261988454
H           16.58291071028807        0.11619129176482       -0.90460607108029
O           10.41661040355845       -0.67629158871068       -0.59135545734312
H           10.44614549760567        0.24972205942299       -0.32042906602159
H            9.79790846553226       -0.85876148933094       -1.30555710986019
C           14.82997870514552       -5.89489697374570        3.36530949889234
H           14.35855514010560       -6.81723557770917        3.70136105222667
H           15.51234048380621       -5.56024472939443        4.14558717195185
H           15.40426261869091       -6.10517543011380        2.47026065254654
N           12.94570608873663       -4.39224110046902        4.03179658569989
H           12.90557072231138       -4.70840896010476        4.98762805407855
C           13.81017852087984       -4.85460960217274        3.07496800824833
C           12.15789762465174       -3.45667986741507        3.45330153141069
H           11.38967513868165       -2.92470030666931        3.97328271162982
N           12.46566303713161       -3.29676601913439        2.19107076011360
C           13.49335091875945       -4.15906438257756        1.94152401255307
H           13.93463889198189       -4.22155484159788        0.96908546561097
78
 energy: -116.048963891913 gnorm: 0.054250951034 xtb: 6.7.1 (edcfbbe)
Fe          11.46648375424394       -2.06107621131731        0.81371475231103
N           12.04436929601343       -0.38152080380634        1.73351190639782
N            9.81016179774267       -2.10839495150520        1.96300851504454
N           10.81942957995840       -3.66040984617590       -0.19939193170353
N           13.11344795904771       -2.01824339785769       -0.31423081849961
C           13.17846547501010        0.32468186591261        1.49740739128671
C           13.18827714973528        1.54734759665411        2.26788266061243
C           12.03781931230307        1.54868377043728        2.99646104450625
C           11.34120228641561        0.33112552584209        2.65355517967456
C            9.45605759800832       -1.21841899894010        2.92798618986397
C            8.26769768618423       -1.64755712788963        3.61033412992892
C            7.90299461246029       -2.84273542399708        3.03635564737190
C            8.87530981387054       -3.08878805363160        1.98639300643165
C            9.69388877911364       -4.37662657126607        0.05796178887876
C            9.52370281477655       -5.43196610713315       -0.90358493532875
C           10.59327230501602       -5.34445553026575       -1.76151484161141
C           11.39782252394975       -4.23351928689824       -1.28207303479014
C           13.45741935893531       -2.89858779648339       -1.28724395064143
C           14.80711260190764       -2.65269359718931       -1.74146591355513
C           15.25461916550662       -1.57593639079931       -1.03828408691211
C           14.17391964500561       -1.18365642168865       -0.16317434822763
C           14.20008316018655       -0.07094575659898        0.65405637649298
H           15.08277619191175        0.54907968916453        0.62483546467789
C           10.14581849445904       -0.05369305094919        3.22332364741061
H            9.73148041806940        0.59955522071065        3.97648083877717
C            8.81895383996020       -4.14972777164487        1.10557597198527
H            8.00704081897826       -4.85087969161298        1.22400600442380
C           12.63818663325190       -3.89250300854193       -1.79080200076290
H           13.01923175053639       -4.46783462699087       -2.62316724716309
C           11.55301558281002        2.56887184651796        3.96692185263165
H           12.27410565550356        3.37753977492398        4.06205862672889
H           11.40832243462740        2.12562190476338        4.95280271147469
H           10.59914761500074        2.99159730100223        3.64728700255385
C           14.25656309742959        2.58476936251736        2.24307658829200
H           14.71988185261147        2.64594145499598        1.26075363733940
H           15.03461367778322        2.35568257110969        2.97372558998459
H           13.84434385292507        3.56305716016735        2.48605656193824
C            7.56834067485642       -0.90598976844565        4.69280060348345
H            7.82265613434944        0.15183547775949        4.67677830027167
H            7.84238881947234       -1.30316431927545        5.67322606176082
H            6.48915136095956       -1.00739991223168        4.57772917081247
C            6.77907339238589       -3.68894731054816        3.33672376141733
H            6.44446083365711       -4.31817423697702        2.51962812600092
C            6.13295669407607       -3.76905978435768        4.49903436643547
H            6.42516549987711       -3.20721993067176        5.36939743809597
H            5.28051120178449       -4.41723897449521        4.62464159052855
C            8.35613719320639       -6.35155941843970       -0.96628274540313
H            7.46481371175618       -5.87279650824282       -0.56514480449121
H            8.54194219514545       -7.25838668112031       -0.38659359001949
H            8.15747378248259       -6.64107529855557       -1.99682759664623
C           10.89498895303898       -6.13487461937059       -2.92451379461536
H           11.51526088983294       -5.64655862678849       -3.66874746298643
C           10.47987820707151       -7.37782011504790       -3.16401287285706
H            9.89433373660126       -7.94679860291028       -2.46461381739435
H           10.72255373903072       -7.87820854632519       -4.08713276311424
C           15.55914302675724       -3.46937686016633       -2.73603557975665
H           15.30895109832850       -3.18336220919932       -3.75899785901744
H           15.33152937913874       -4.52743873050606       -2.61607588330680
H           16.63046809705856       -3.33379261783011       -2.59746598250116
C           16.60103286295979       -0.94395837863447       -1.10307813409907
H           17.04408168746675       -1.08731931748321       -2.08644486870184
H           17.26463081644343       -1.39208690918463       -0.35968617659633
H           16.54859865231893        0.12356576676541       -0.90300066606332
O           10.51022692894032       -0.67724375815318       -0.68095866393694
H           10.36545625589196        0.24692200972955       -0.34003304564105
H            9.73619875766198       -0.85247973458733       -1.28106750406452
C           14.82057401028303       -5.88495079304410        3.35619449496117