87
 energy: -124.448542662644 gnorm: 0.283797168803 xtb: 6.7.1 (edcfbbe)
Fe          -7.48000000000000      -11.45600000000000       12.71700000000000
N           -7.52200000000000      -12.23100000000000       14.65500000000000
N           -6.25200000000000      -13.01400000000000       12.14800000000000
N           -7.01000000000000      -10.46000000000000       10.97300000000000
N           -8.39700000000000       -9.74200000000000       13.45700000000000
C           -8.28500000000000      -11.78400000000000       15.69900000000000
C           -8.15700000000000      -12.67000000000000       16.85000000000000
C           -7.30100000000000      -13.67100000000000       16.48700000000000
C           -6.92300000000000      -13.37600000000000       15.10300000000000
C           -5.80500000000000      -14.04700000000000       12.92700000000000
C           -5.01600000000000      -14.98400000000000       12.12400000000000
C           -5.02600000000000      -14.49600000000000       10.83900000000000
C           -5.78900000000000      -13.25900000000000       10.88200000000000
C           -6.48200000000000      -11.04000000000000        9.84100000000000
C           -6.60800000000000      -10.13400000000000        8.68200000000000
C           -7.18200000000000       -8.97500000000000        9.17800000000000
C           -7.46200000000000       -9.22400000000000       10.59700000000000
C           -8.72900000000000       -8.61700000000000       12.73400000000000
C           -9.72100000000000       -7.80600000000000       13.47100000000000
C           -9.96700000000000       -8.48000000000000       14.64700000000000
C           -9.12500000000000       -9.66400000000000       14.62600000000000
C           -9.03000000000000      -10.61000000000000       15.64700000000000
H           -9.62700000000000      -10.39900000000000       16.53300000000000
C           -6.13500000000000      -14.17900000000000       14.28400000000000
H           -5.70500000000000      -15.05000000000000       14.77600000000000
C           -5.92200000000000      -12.33400000000000        9.83100000000000
H           -5.53600000000000      -12.66600000000000        8.86800000000000
C           -8.24900000000000       -8.40200000000000       11.42100000000000
H           -8.53500000000000       -7.44900000000000       10.97900000000000
C           -8.79300000000000      -12.48700000000000       18.23100000000000
H           -9.84300000000000      -12.46600000000000       17.86800000000000
H           -8.44200000000000      -11.44300000000000       18.37900000000000
H           -8.75600000000000      -13.04000000000000       19.19400000000000
C           -6.81900000000000      -14.83100000000000       17.38100000000000
H           -5.73100000000000      -14.62600000000000       17.28700000000000
H           -7.09800000000000      -15.63100000000000       16.66300000000000
H           -7.03500000000000      -15.16000000000000       18.42000000000000
C          -10.97900000000000       -8.13400000000000       15.75000000000000
H          -10.39300000000000       -7.22100000000000       15.99000000000000
H          -11.46000000000000       -8.50800000000000       16.67900000000000
H          -11.75500000000000       -7.87600000000000       14.99800000000000
C          -10.39300000000000       -6.66600000000000       13.01700000000000
H          -11.47500000000000       -6.81000000000000       13.14200000000000
C           -9.94300000000000       -5.38100000000000       13.18900000000000
H           -8.87400000000000       -5.14500000000000       13.08300000000000
H          -10.64600000000000       -4.57100000000000       13.43500000000000
C           -7.42900000000000       -7.66400000000000        8.42200000000000
H           -6.91700000000000       -7.02200000000000        9.17000000000000
H           -8.52500000000000       -7.61300000000000        8.59400000000000
H           -7.18700000000000       -7.29300000000000        7.40300000000000
C           -6.43900000000000      -10.51200000000000        7.33100000000000
H           -6.95100000000000      -11.47500000000000        7.18700000000000
C           -5.40100000000000      -10.20500000000000        6.47000000000000
H           -4.85500000000000       -9.25500000000000        6.57000000000000
H           -5.10900000000000      -10.90700000000000        5.67500000000000
C           -4.37800000000000      -15.11100000000000        9.58700000000000
H           -3.37100000000000      -15.12300000000000       10.05500000000000
H           -4.26500000000000      -14.95300000000000        8.49300000000000
H           -4.87700000000000      -16.08500000000000        9.78000000000000
C           -4.27200000000000      -16.23500000000000       12.61000000000000
H           -3.34000000000000      -15.89000000000000       12.11400000000000
H           -4.81000000000000      -16.92600000000000       11.92600000000000
H           -4.00600000000000      -16.76300000000000       13.55100000000000
C          -12.68500000000000      -12.33100000000000       11.06800000000000
H          -13.37000000000000      -12.88800000000000       11.74300000000000
H          -12.78500000000000      -12.73600000000000       10.03800000000000
H          -12.96200000000000      -11.25500000000000       11.08100000000000
N          -10.66000000000000      -13.72300000000000       11.64000000000000
H          -11.08700000000000      -14.59500000000000       11.40100000000000
C          -11.27800000000000      -12.49500000000000       11.54000000000000
C           -9.43300000000000      -13.55700000000000       12.09600000000000
H           -8.72600000000000      -14.36700000000000       12.27300000000000
N           -9.22900000000000      -12.26800000000000       12.29200000000000
C          -10.36800000000000      -11.58300000000000       11.95000000000000
H          -10.42300000000000      -10.50500000000000       12.03200000000000
C           -2.72500000000000      -11.49000000000000       12.55700000000000
H           -1.91800000000000      -11.21100000000000       11.84600000000000
H           -3.13300000000000      -12.48000000000000       12.26000000000000
H           -2.29200000000000      -11.55500000000000       13.57800000000000
C           -3.83900000000000      -10.43600000000000       12.52900000000000
H           -4.23400000000000      -10.40200000000000       11.49300000000000
H           -3.37200000000000       -9.45700000000000       12.76000000000000
S           -5.21400000000000      -10.67600000000000       13.64400000000000
C           -5.38000000000000       -9.01200000000000       14.26900000000000
H           -5.59300000000000       -8.29300000000000       13.45000000000000
H           -4.44000000000000       -8.69400000000000       14.76900000000000
H           -6.21500000000000       -8.95800000000000       14.99900000000000
87
 energy: -124.572511898792 gnorm: 0.155016185101 xtb: 6.7.1 (edcfbbe)
Fe          -7.42742076621224      -11.42931796518172       12.75972962747933
N           -7.53723510042812      -12.25070377136162       14.66658383257846
N           -6.27353457319787      -13.01499944509388       12.14684053773189
N           -7.03931997091842      -10.46860366912774       10.95917018978355
N           -8.40232273071012       -9.75279208637112       13.45031801136887
C           -8.28410525353359      -11.78588295095001       15.70753942567766
C           -8.14702699338641      -12.67434223053570       16.85635330581770
C           -7.29992603192072      -13.66451060091288       16.49191778962258
C           -6.92809353966176      -13.39001197250540       15.10126729501647
C           -5.82191788992521      -14.03633250743112       12.93186059223225
C           -5.03243862093250      -14.95601964464177       12.13485582613392
C           -5.04736848564476      -14.46543542257136       10.84525923447985
C           -5.79874179156315      -13.23285639018665       10.88601299240672
C           -6.50144417331510      -11.05111786027756        9.84456880355682
C           -6.60958385409619      -10.13539019586767        8.70058547612366
C           -7.17092586166503       -8.98330485592530        9.18109616719178
C           -7.47315990400542       -9.22443019172437       10.59637871328995
C           -8.72049630014864       -8.63763369170810       12.72508342312106
C           -9.70346257752023       -7.84350878463322       13.46618228577259
C           -9.95522242132854       -8.52876653871193       14.63659459926106
C           -9.11071860869868       -9.69025328970601       14.62036072041260
C           -9.02998892775701      -10.61638922307168       15.65509147919230
H           -9.62823546583778      -10.39558108377023       16.53330400123061
C           -6.13084743660093      -14.18686834539591       14.28694818482347
H           -5.69986303790951      -15.05601959430683       14.77206370153826
C           -5.93129727737137      -12.32873020315674        9.82700655206549
H           -5.53537628154603      -12.66154866103145        8.87102903336843
C           -8.24441494386645       -8.39598918276934       11.42385473741190
H           -8.54044843117485       -7.44829184940971       10.98334474422735
C           -8.81182064594904      -12.44921957680702       18.20014239349164
H           -9.86714037094957      -12.44268698420466       17.90212257313623
H           -8.47213021669891      -11.42836521225045       18.41229726583333
H           -8.72180236358834      -13.04898761243091       19.12428244535299
C           -6.79673841531234      -14.83205395525355       17.33021031416945
H           -5.71386796134985      -14.66317555196762       17.29347784398318
H           -7.07106942886572      -15.66862236979960       16.67716395309574
H           -7.06100269642031      -15.09861455338907       18.37129747018929
C          -10.96150904900155       -8.09352630898480       15.70705314567919
H          -10.43479430293101       -7.17987691576355       16.01319450741772
H          -11.39786156164385       -8.54650283950828       16.61914473417871
H          -11.78816208791319       -7.83794977651126       15.03020356933374
C          -10.39959772130028       -6.64811415576443       13.07508521720017
H          -11.48419530843664       -6.79212791493605       13.13598411495752
C           -9.94495344541601       -5.38709924619655       13.19033797097504
H           -8.88709929214304       -5.15347521393814       13.09938902366796
H          -10.63464534063043       -4.57030865143689       13.39091211972625
C           -7.44392400605275       -7.66621132770011        8.47120392828382
H           -6.93588341856482       -6.98006491848961        9.16081157748483
H           -8.53104210293555       -7.57329142133779        8.58811962460403
H           -7.17796599575512       -7.36495977740996        7.44065345625819
C           -6.38793020221594      -10.55217715746693        7.34142186295717
H           -6.94045379031502      -11.48019501912206        7.16208189525556
C           -5.40812063743971      -10.21055524565938        6.48335867766363
H           -4.85948637021410       -9.27631035265876        6.58117925787549
H           -5.13389837885326      -10.87647249040650        5.66753414426595
C           -4.37318209804354      -15.13415769622746        9.64250067643290
H           -3.34514737699753      -15.16462218023285       10.02893316175682
H           -4.30944939955037      -14.90578470820202        8.56028991272153
H           -4.84072549223054      -16.12256925176363        9.75097453760592
C           -4.27284977394152      -16.21572982978198       12.55651143801046
H           -3.30804818670173      -15.94332142171178       12.10766431747910
H           -4.77697644145521      -16.96003097875305       11.92349654073866
H           -4.05796666664299      -16.69083358929760       13.53327209730979
C          -12.68495004851805      -12.33436830196073       11.06930908127419
H          -13.36865606381184      -12.88131728526356       11.73241888233370
H          -12.79073218451366      -12.72899090307583       10.04975589905721
H          -12.95782057012384      -11.27283964682213       11.07874153863529
N          -10.67163971969417      -13.72228396404139       11.63807102719655
H          -11.09753977966859      -14.59990613921662       11.39981639820356
C          -11.28182502445921      -12.49676910427856       11.53936448896128
C           -9.42515446222967      -13.54228555811827       12.09558174606770
H           -8.72860842050570      -14.34775374835456       12.27315662564817
N           -9.19563733691999      -12.25534240937416       12.28049476234978
C          -10.35243691419521      -11.59070336524998       11.95069702113385
H          -10.41672575941449      -10.51954349245674       12.03120787337741
C           -2.73118546806195      -11.49140033014481       12.56108049976878
H           -1.93285550008326      -11.21639108516515       11.85753336560593
H           -3.12817177996090      -12.47023672317303       12.26849096453677
H           -2.29894110131621      -11.55956137115204       13.56668902900186
C           -3.82894183179508      -10.42820504361540       12.51180642917302
H           -4.23487603958443      -10.39528656073551       11.49253210102616
H           -3.37766088214904       -9.45739815154780       12.75359660320009
S           -5.20079296034030      -10.68152675927494       13.66305531628848
C           -5.37689472803381       -8.99838973190501       14.27021761011945
H           -5.59504557483941       -8.29982784679389       13.45316884110626
H           -4.44795966972347       -8.69431057102417       14.76939657671164
H           -6.20457038272128       -8.96573549355435       14.98831026721422
87
 energy: -124.643420803214 gnorm: 0.073621022633 xtb: 6.7.1 (edcfbbe)
Fe          -7.38134148758126      -11.41146517861558       12.79347153210230
N           -7.54467688149208      -12.26183801877394       14.67075119301653
N           -6.28433494770479      -13.01032821447521       12.15042198606393
N           -7.06026849432610      -10.47587714598198       10.95807121024478
N           -8.39896522012174       -9.76828593063860       13.44736136431444
C           -8.28097611042368      -11.78854764941208       15.71005235761191
C           -8.13914826877951      -12.67690772699393       16.86316736036296
C           -7.29795967646820      -13.66347698689555       16.49420578056774
C           -6.93421387903296      -13.39970236557652       15.09560845885436
C           -5.83547368978163      -14.03047848191975       12.93482218955261
C           -5.04272900585651      -14.93862628655653       12.14106510055051
C           -5.05876736704043      -14.44436110918238       10.84853209622298
C           -5.80804329160297      -13.21434402538460       10.89043601439702
C           -6.52448286103711      -11.05922041365018        9.85323469171057
C           -6.62144363050004      -10.13595652881095        8.71731646651788
C           -7.16675841513137       -8.98604142572205        9.18800703539214
C           -7.48523800872701       -9.22961092984912       10.60138560857853
C           -8.71531770673592       -8.66144897726897       12.71864521365738
C           -9.69074544224113       -7.87605931739798       13.45596230815554
C           -9.94828664042639       -8.56036666680548       14.62829706668779
C           -9.10364337065833       -9.71483456959492       14.61231758873847
C           -9.03274029098125      -10.62592350037372       15.66127831718029
H           -9.62840274298364      -10.39263825921110       16.53327853250540
C           -6.12915184064161      -14.19565067070225       14.28962015956006
H           -5.69410664125932      -15.06175380230642       14.76825801779290
C           -5.94552172098561      -12.32529141542267        9.82361972967099
H           -5.53584614129308      -12.65471044601308        8.87535057911473
C           -8.24242248619649       -8.39472924067724       11.42749856562889
H           -8.54447489180955       -7.44920643317176       10.99221227736724
C           -8.82676731773295      -12.41276301898537       18.16917451235516
H           -9.88948321281304      -12.41764987178596       17.93276802183155
H           -8.50457370262608      -11.40969782754090       18.44428615328799
H           -8.67987402027526      -13.06514067869058       19.04728030585895
C           -6.77527985772931      -14.83205659017061       17.27978512714888
H           -5.69418522608469      -14.70150907653545       17.29517295453547
H           -7.04275670550703      -15.70542843066950       16.68697825061259
H           -7.09449562967718      -15.02619863447014       18.32061982969402
C          -10.93997972945076       -8.05520256033944       15.66075301795859
H          -10.46905464768032       -7.14250412825360       16.02885078984005
H          -11.31931501463290       -8.60145389635493       16.55014406407804
H          -11.81265573633514       -7.80147460500941       15.05528578442672
C          -10.40538154045625       -6.63860617509488       13.13106516125033
H          -11.48772733764770       -6.78240850584114       13.14144221466271
C           -9.94330648518791       -5.39708559128859       13.18943384531701
H           -8.89170295175739       -5.16366334656117       13.12861436966860
H          -10.62376402966442       -4.56743670853445       13.33157303677517
C           -7.45786537129289       -7.66979596222190        8.52029635343274
H           -6.95604554956819       -6.93891318866234        9.15568096033121
H           -8.53803635000308       -7.53793028727840        8.58657705001447
H           -7.16256121174618       -7.45244510926463        7.47790127894965
C           -6.34623154889639      -10.59212315819032        7.35635085094567
H           -6.92174271026831      -11.49425829830046        7.14980091559602
C           -5.41416502028892      -10.21274100909291        6.49727910146744
H           -4.85087699038688       -9.29782579107524        6.60227281537736
H           -5.16394644614056      -10.83948913880188        5.65017947389218
C           -4.37015116864058      -15.15298951975422        9.69894480146663
H           -3.32412206850807      -15.20131275847111       10.01026059251055
H           -4.36673896782554      -14.84040410157712        8.63497069352745
H           -4.80790497325168      -16.15362443172712        9.73099938882662
C           -4.27695500312628      -16.19475976857422       12.50440338535951
H           -3.28340494551081      -15.98893829686040       12.09910718345923
H           -4.75005988169459      -16.98629386183056       11.91756222752303
H           -4.12281825415711      -16.60044401035331       13.52339618139232
C          -12.68327422527937      -12.33507261487667       11.07217543126516
H          -13.36708726447624      -12.87685757306484       11.72602808225526
H          -12.79293483779142      -12.72399721862489       10.05917783257156
H          -12.95416508977581      -11.28316547075879       11.07755006589944
N          -10.67794098493716      -13.72174017307367       11.63955987401254
H          -11.10069927955173      -14.60383941374022       11.40241167540570
C          -11.28216218808293      -12.49661218311440       11.54081872890156
C           -9.41796925406694      -13.52942220526396       12.09107361184516
H           -8.72847077873127      -14.33093501495558       12.27028697931777
N           -9.17650494564538      -12.24932830936158       12.27283929049275
C          -10.33760814457750      -11.59692471743864       11.94591574318659
H          -10.41286817103810      -10.53061569390320       12.02555784530304
C           -2.73674004862014      -11.49184319152310       12.56138616841569
H           -1.94152271285226      -11.22273508393970       11.86451275641638
H           -3.13062012964656      -12.46312056614461       12.27572874190729
H           -2.31079786150414      -11.56007958548693       13.55978792764736
C           -3.82061517286121      -10.42263139097806       12.49581133253176
H           -4.23898198823425      -10.39032172824372       11.49153071908735
H           -3.38357528596768       -9.45704327179651       12.74705901437737
S           -5.19746353310040      -10.68814607309492       13.67774927322116
C           -5.37516900780149       -8.98486661227278       14.27311510103466
H           -5.59715404038106       -8.30787396819629       13.45269081518630
H           -4.45338539653843       -8.69177956427150       14.77057615606241
H           -6.19887890015441       -8.97279832032864       14.98119733816075
87
 energy: -124.676271124892 gnorm: 0.049479585345 xtb: 6.7.1 (edcfbbe)
Fe          -7.34971917360996      -11.40241485144050       12.81467177349880
N           -7.54711860546552      -12.26567003366160       14.66219802784169
N           -6.29179536758803      -13.00509875146128       12.15719336534199
N           -7.08039016347281      -10.48716335584352       10.97073842295042
N           -8.39316596637508       -9.78464892271790       13.44758387905422
C           -8.27665644028121      -11.79024438397841       15.70241110307486
C           -8.13447905038852      -12.67278005896208       16.85842994112350
C           -7.29446307552140      -13.66392031118505       16.48366946873977
C           -6.93864781881523      -13.40226858826786       15.08474016175902
C           -5.84317558482320      -14.02820918708469       12.93666621681656
C           -5.04867611880705      -14.93026671307492       12.14004030464511
C           -5.06332126480337      -14.43470715456236       10.85362396544474
C           -5.81626561612645      -13.20614731291866       10.89663379394931
C           -6.54914924074392      -11.06801866061190        9.86725846041764
C           -6.63218973162933      -10.14453021489805        8.73349721357659
C           -7.17096041657039       -8.99070516614222        9.20579536982606
C           -7.49462324774277       -9.23993738304751       10.61506862546091
C           -8.71183387884116       -8.67885410898016       12.71784049336877
C           -9.68309141538622       -7.89250319461734       13.44732729527535
C           -9.94391443303561       -8.56863556202968       14.61966060346462
C           -9.10278146813993       -9.73017080939690       14.60702329680130
C           -9.03405960761708      -10.63395522472957       15.66255039616641
H           -9.62694480778843      -10.39291413405222       16.53274400917822
C           -6.13002336954880      -14.20202154248675       14.28984071294546
H           -5.68995579070796      -15.06730760321717       14.76405639764799
C           -5.96158327646740      -12.32572803127882        9.82632332507864
H           -5.54042760903040      -12.64683416235961        8.88175553053587
C           -8.24124834637021       -8.39734569873723       11.43347616830286
H           -8.54746992195715       -7.45143877445629       11.00457898163727
C           -8.83202892336167      -12.39026395122164       18.14529538210371
H           -9.90702171124745      -12.39454526552781       17.95953284619909
H           -8.53477263993749      -11.39285682300770       18.47331638024022
H           -8.63751940760568      -13.08573629425369       18.97656434755743
C           -6.76162169855948      -14.83092639676918       17.24276078925229
H           -5.67582109936695      -14.73844659672093       17.29378635870396
H           -7.01490690775578      -15.73942877492895       16.69394023145184
H           -7.12805680866514      -14.95630280288870       18.27602120669621
C          -10.91885223960118       -8.03842322338733       15.62820143481157
H          -10.49691177239868       -7.11714220114659       16.03955507547380
H          -11.23774606263273       -8.66080339549443       16.48824644027891
H          -11.82911600456960       -7.77276050809646       15.08107462109264
C          -10.40635352765643       -6.64267740984244       13.16185274218689
H          -11.48617624920035       -6.77921532345867       13.15130386607430
C           -9.93504402856188       -5.40537641793647       13.18009395956065
H           -8.88079627753932       -5.17802544442815       13.16744416834690
H          -10.61247546573215       -4.55876189530735       13.24805679302486
C           -7.46738680392940       -7.67880971374814        8.55679101134354
H           -6.97687163490539       -6.90342535224529        9.15132169488655
H           -8.54534723423885       -7.50791496872414        8.58755234835303
H           -7.14326938840155       -7.54476708518927        7.51026337558624
C           -6.32374876458445      -10.62463281944699        7.37975181912464
H           -6.89748861532999      -11.51828608735810        7.14974377483209
C           -5.41748904397705      -10.20636123186233        6.50852794142462
H           -4.83320772660229       -9.30987321438357        6.63784873992153
H           -5.20117491605093      -10.79092717809343        5.61922615707569
C           -4.37291738005332      -15.15534543169776        9.73667161298220
H           -3.31089548579124      -15.22846597261717        9.99207905628902
H           -4.42527555950604      -14.76687868772824        8.70202716241709
H           -4.77884979277745      -16.17250444812739        9.71322124723322
C           -4.28665107654517      -16.17621930987058       12.47473913897973
H           -3.26853561192126      -16.02926659031651       12.09703346453039
H           -4.72906328611882      -17.00656182941590       11.91575223072552
H           -4.19112340272347      -16.50852611393976       13.52498327919186
C          -12.67874099356109      -12.33459411648442       11.07581996101490
H          -13.36589862811972      -12.87496717527545       11.72586914445967
H          -12.79250920625192      -12.72166085061856       10.06345730453537
H          -12.94996387264247      -11.28431097847191       11.07852299384855
N          -10.67506971622013      -13.72146475891588       11.64287510231366
H          -11.09727029079780      -14.60569229404323       11.40971945345524
C          -11.27692318205546      -12.49516861070364       11.54264080172443
C           -9.40937109049871      -13.52220576613557       12.08442405863590
H           -8.72050735293095      -14.32077803204581       12.26672312579812
N           -9.16551093873876      -12.24639638850749       12.26100468619956
C          -10.32534842198626      -11.59767407696641       11.93767787707439
H          -10.40780071419394      -10.53334155243563       12.01514895973843
C           -2.74474422622962      -11.49098745913864       12.55963532659528
H           -1.94507890318063      -11.23210090619114       11.86659154524909
H           -3.14238389062529      -12.46165832607459       12.28117929990693
H           -2.32556815653703      -11.55777537683490       13.55988781388663
C           -3.81856474471159      -10.41748465582529       12.48397526684209
H           -4.24986180163564      -10.38599946977271       11.48676556585444
H           -3.38904736721941       -9.45129132287201       12.73785006238428
S           -5.19351161914619      -10.69076336654904       13.68844312124462
C           -5.37411974177243       -8.97667599847751       14.27644561785067
H           -5.60092321209622       -8.31464663259639       13.44762845457926
H           -4.45508084870127       -8.68316683469591       14.77424121353641
H           -6.19955372464420       -8.97829639498658       14.97949524139571
87
 energy: -124.690058538646 gnorm: 0.039220886518 xtb: 6.7.1 (edcfbbe)
Fe          -7.32965377443911      -11.39756471744881       12.82583828354380
N           -7.54562137818415      -12.26367156712346       14.64444357151820
N           -6.29566130054629      -13.00024769990412       12.16496620029119
N           -7.09663307077439      -10.50175137212812       10.99147090691388
N           -8.38840420580587       -9.79670880469247       13.44961586468425
C           -8.27175220616792      -11.78984773325091       15.68694980323461
C           -8.13050283576761      -12.66518242040592       16.84267194914256
C           -7.29066215030705      -13.66173817876782       16.46382225629044
C           -6.94098974200341      -13.39978578512146       15.06988272489813
C           -5.84663355174124      -14.02746209422458       12.93845719978130
C           -5.05361738744425      -14.92652419792386       12.13772511872342
C           -5.06718111255742      -14.43026307905600       10.85922659620965
C           -5.82431417274931      -13.20361608522806       10.90318329089180
C           -6.57337041210916      -11.07937672131118        9.88419447169539
C           -6.64145606229851      -10.15773997562465        8.75191815764987
C           -7.17717300713548       -9.00055154911553        9.23128179785329
C           -7.50177746083883       -9.25438604906578       10.63330473100429
C           -8.70527487825668       -8.68843827252532       12.72121984617582
C           -9.67369689123641       -7.89682758223251       13.44225818601792
C           -9.94003712462296       -8.56753846604551       14.61144002135996
C           -9.10408493132699       -9.73737266034571       14.60458101137489
C           -9.03471887256591      -10.63872895197196       15.65918262046435
H           -9.62380822026611      -10.39768026197384       16.53146571629584
C           -6.13100928449516      -14.20659592589554       14.28751809812749
H           -5.68980819210139      -15.07230592539474       14.76022473246810
C           -5.97873403890445      -12.33030393560582        9.83303350088064
H           -5.55210985534300      -12.64080903939742        8.88852858870498
C           -8.23892163638870       -8.40103702288894       11.44207996030233
H           -8.54686553336832       -7.45411776699562       11.01878306585509
C           -8.82809047308232      -12.38253376486150       18.12666838893419
H           -9.91039649716104      -12.38538460010091       17.97478436616462