78
 energy: -115.936646428181 gnorm: 0.316288894496 xtb: 6.7.1 (edcfbbe)
Fe          14.71400000000000       28.07300000000000        4.82300000000000
N           15.03500000000000       29.39100000000000        6.36100000000000
N           13.90600000000000       26.75300000000000        6.05100000000000
N           14.56600000000000       26.74400000000000        3.31800000000000
N           15.57900000000000       29.37900000000000        3.58300000000000
C           15.54600000000000       30.69500000000000        6.33100000000000
C           15.47900000000000       31.33100000000000        7.66500000000000
C           14.95600000000000       30.37800000000000        8.46200000000000
C           14.67700000000000       29.20600000000000        7.67600000000000
C           13.65200000000000       26.90700000000000        7.44500000000000
C           13.03700000000000       25.73400000000000        8.02500000000000
C           12.90200000000000       24.83700000000000        6.96100000000000
C           13.40900000000000       25.47800000000000        5.77900000000000
C           14.04200000000000       25.45400000000000        3.38000000000000
C           14.23300000000000       24.74000000000000        2.13000000000000
C           14.91600000000000       25.66100000000000        1.29500000000000
C           15.01700000000000       26.87800000000000        2.02300000000000
C           15.91000000000000       29.18300000000000        2.27000000000000
C           16.63700000000000       30.28800000000000        1.73000000000000
C           16.77800000000000       31.20799999999999        2.69000000000000
C           16.04900000000000       30.67600000000000        3.85700000000000
C           16.04500000000000       31.31800000000000        5.12800000000000
H           16.43900000000000       32.33200000000000        5.19600000000000
C           14.06100000000000       28.03200000000000        8.19900000000000
H           13.89000000000000       27.99800000000000        9.27500000000000
C           13.38700000000000       24.94000000000000        4.51600000000000
H           12.80700000000000       24.02700000000000        4.37900000000000
C           15.56600000000000       28.01700000000000        1.52700000000000
H           15.76300000000000       28.04100000000000        0.45500000000000
C           14.45400000000000       30.39000000000000        9.92600000000000
H           14.57300000000000       31.41000000000000       10.35000000000000
H           15.05000000000000       29.67500000000000       10.53300000000000
H           13.37900000000000       30.11000000000000        9.95700000000000
C           15.86900000000000       32.78700000000000        7.99200000000000
H           15.12500000000000       33.48000000000000        7.54300000000000
H           16.87100000000000       33.01100000000000        7.56900000000000
H           15.88000000000000       32.93400000000000        9.09300000000000
C           12.70300000000000       25.56400000000000        9.55500000000000
H           12.31300000000000       26.52300000000000        9.95800000000000
H           13.62400000000000       25.28700000000000       10.11200000000000
H           11.93000000000000       24.77700000000000        9.68500000000000
C           12.41200000000000       23.52400000000000        6.99600000000000
H           11.82300000000000       23.15600000000000        6.14400000000000
C           12.62900000000000       22.59200000000000        8.09800000000000
H           13.21000000000000       22.89700000000000        8.98100000000000
H           12.21400000000000       21.57400000000000        8.05800000000000
C           13.76000000000000       23.34200000000000        1.90300000000000
H           12.80600000000000       23.36100000000000        1.33300000000000
H           13.58600000000000       22.84100000000000        2.87900000000000
H           14.51800000000000       22.78000000000000        1.31800000000000
C           15.57600000000000       25.44300000000000        0.07400000000000
H           16.39300000000000       26.08900000000000       -0.27600000000000
C           15.12700000000000       24.28900000000000       -0.74700000000000
H           14.30900000000000       23.64100000000000       -0.39900000000000
H           15.60700000000000       24.07000000000000       -1.71200000000000
C           17.14200000000000       30.34900000000000        0.28500000000000
H           16.28000000000000       30.27800000000000       -0.41200000000000
H           17.83200000000000       29.50000000000000        0.09200000000000
H           17.66800000000000       31.31200000000000        0.11100000000000
C           17.58600000000000       32.49600000000000        2.68300000000000
H           16.91200000000000       33.35600000000000        2.48200000000000
H           18.35900000000000       32.45000000000000        1.88600000000000
H           18.07000000000000       32.64100000000000        3.67300000000000
O           16.65900000000000       27.27600000000000        4.99800000000000
H           16.67600000000000       26.49700000000000        4.44100000000000
H           17.33400000000000       27.58900000000000        5.48500000000000
C            9.57500000000000       29.55200000000000        2.65500000000000
H            9.58500000000000       30.53000000000000        2.12800000000000
H            8.66000000000000       29.48999999999999        3.28300000000000
H            9.57400000000000       28.73600000000000        1.90100000000000
N           11.13900000000000       30.31400000000000        4.59100000000000
H           10.55300000000000       31.06200000000000        4.90300000000000
C           10.84800000000000       29.43300000000000        3.56100000000000
C           12.37800000000000       29.95800000000000        5.09000000000000
H           12.89800000000000       30.52200000000000        5.86500000000000
N           12.80500000000000       28.90200000000000        4.52200000000000
C           11.89000000000000       28.51800000000000        3.54900000000000
H           12.05700000000000       27.63800000000000        2.94000000000000
78
 energy: -116.014210982421 gnorm: 0.139341395630 xtb: 6.7.1 (edcfbbe)
Fe          14.69695723256388       28.08710325997070        4.82452342981722
N           15.03861997397479       29.40559662582462        6.36726459426455
N           13.90152156021434       26.74933069572944        6.07897868417048
N           14.55638943422048       26.73697358459922        3.32260454762346
N           15.57731584650646       29.40081914107207        3.58037851782066
C           15.54157390139314       30.69343946318396        6.31983644252487
C           15.46988836892274       31.32190080448786        7.64879421894907
C           14.93226383363873       30.37059149286426        8.46528322787046
C           14.67175934381035       29.19616260650423        7.66872601240598
C           13.67486190475629       26.91228195629311        7.44666949064877
C           13.06086282940010       25.74044668127815        8.02918281448209
C           12.90467666622353       24.83971978278192        6.98443187244970
C           13.39715747545715       25.49839088177908        5.78673357425370
C           14.02845804911107       25.46548376024462        3.38457367169733
C           14.22465559734335       24.75576901231380        2.14407023580651
C           14.90660269990662       25.64241874909620        1.30251040334781
C           15.03275453967343       26.87199061523122        2.04458404930220
C           15.89307333559198       29.18504439178303        2.26889785728284
C           16.63202351125296       30.28905522870243        1.72207954992281
C           16.77285551095144       31.20873889169712        2.70905311975537
C           16.07605111293162       30.66179600090139        3.87981434486867
C           16.03590366369819       31.28874862399663        5.13522551225590
H           16.42599096412092       32.30226225284808        5.20050140959518
C           14.06725952379990       28.03486332039668        8.17860058111805
H           13.88966108628140       28.00175206990432        9.24957640151524
C           13.38801507929945       24.94753802771938        4.51755870278347
H           12.82967824087098       24.02536691601404        4.38468759814705
C           15.57388910464277       28.03038652564300        1.53722254079269
H           15.77697048025410       28.04813789831013        0.47068879593328
C           14.46703586801998       30.40329453269853        9.91340836597793
H           14.57626652650036       31.40252442122781       10.34617730267737
H           15.04129432422921       29.69135423262005       10.52069704351148
H           13.40634582279373       30.12141571947865        9.95633233529837
C           15.86186355333197       32.75626231837504        7.97989140840773
H           15.13819422120912       33.46178630554956        7.54680491929325
H           16.85248188184743       33.00032775771749        7.57599943327584
H           15.87966152772920       32.92013997021260        9.06565108729735
C           12.71043929428716       25.57143534320581        9.51625428833603
H           12.32268449452809       26.50789121934216        9.93799545398218
H           13.60625173495302       25.29270208558155       10.08936957842284
H           11.95047324860784       24.79308016855974        9.66522515875212
C           12.41269712320335       23.49896732952379        7.03355632219900
H           11.84404833833866       23.14229603554362        6.17086278241006
C           12.61514565945344       22.62186865073945        8.06897023698646
H           13.19771462721174       22.89979436628160        8.94255648030515
H           12.21866207529772       21.61021354544625        8.04315021633791
C           13.76547665663800       23.35430518415496        1.90990560868642
H           12.82208922980888       23.35599093945583        1.34229446406154
H           13.58950469334134       22.84492820513070        2.86350240029051
H           14.50963885173952       22.78330275643799        1.33948137227212
C           15.53659352557709       25.39343069710498        0.04862726992021
H           16.34954719032703       26.04603493232059       -0.28313892859466
C           15.14765710901037       24.32352730990959       -0.73568827088584
H           14.33286542029485       23.68332530959734       -0.42276437565787
H           15.61528774453438       24.09238062440421       -1.68642384616488
C           17.13742035229242       30.34818813831241        0.29763545413374
H           16.29420923526762       30.27973410714023       -0.40141441475726
H           17.82193652817263       29.51497238475380        0.09423671522377
H           17.66010402127683       31.29343203893850        0.11422153380704
C           17.57067241078051       32.48696305493315        2.68738520760891
H           16.91990998511959       33.34815491825093        2.48759477056850
H           18.33962816629964       32.44961538491081        1.90455569806219
H           18.06401881043393       32.64027437393268        3.65424316608248
O           16.64307825598627       27.26029896062956        5.00323238450925
H           16.69670744655842       26.48742362313701        4.44110032350618
H           17.36943992034592       27.58846150207090        5.49935226031749
C            9.59869186701510       29.54998799074426        2.67753068966815
H            9.59389078598410       30.51145926428771        2.14620045075316
H            8.68183753823716       29.48870706297136        3.27748100292458
H            9.58424201871069       28.75040421736247        1.92861760916377
N           11.13855908825455       30.31561852811085        4.57263979185356
H           10.55131665639558       31.06664487693715        4.88952996029226
C           10.83982795235268       29.42499253328827        3.56026524245196
C           12.35656598562301       29.95769087120740        5.08629874730342
H           12.87213711920065       30.51389048955492        5.85576034148193
N           12.80542771256246       28.89861302381341        4.49838086732187
C           11.88188243564165       28.52888583829558        3.54621709686055
H           12.04988409386284       27.65589759462599        2.94218479205840
78
 energy: -116.036450893711 gnorm: 0.059592040954 xtb: 6.7.1 (edcfbbe)
Fe          14.68207763327579       28.09864599213780        4.82568693530365
N           15.03111968243282       29.41419155982966        6.36782340820997
N           13.88604012146663       26.74812604729028        6.10088629681276
N           14.54194058010982       26.73544401995612        3.32448226641841
N           15.58019066625599       29.41519029860632        3.58241267642486
C           15.53178944482660       30.68414046337245        6.31099018638683
C           15.45801893045697       31.31028302132869        7.63154940970108
C           14.91233769837419       30.36743022319036        8.46251427135857
C           14.66088954023997       29.19159882204112        7.65730975981796
C           13.69561511139041       26.91459733957321        7.44335669940247
C           13.08072354444078       25.74289743146029        8.02978948607438
C           12.90411557300789       24.84967655351515        6.99939305743986
C           13.38875263338596       25.51765337722416        5.79401210981451
C           14.01067310261878       25.48088176776525        3.39424642973563
C           14.21384877619456       24.77146599531752        2.15928790587378
C           14.89740167433606       25.63047749654837        1.32067490992590
C           15.04143496380161       26.87015519270453        2.06526012795261
C           15.87666821230148       29.18718647812333        2.27233461897483
C           16.62329354555100       30.29451300957930        1.72077250785998
C           16.77118939963895       31.20303756294815        2.72909778668692
C           16.09054215425887       30.64676420960181        3.89403495443396
C           16.02592117413516       31.25894939878515        5.14214451979024
H           16.41677217387441       32.26926325629872        5.20903735078089
C           14.07273991017900       28.03817204041986        8.15953368597586
H           13.88638306926104       28.00940609429833        9.22534394988783
C           13.38997487204612       24.95505827096122        4.52559744968880
H           12.86410469329492       24.01649348205134        4.40230140005775
C           15.58087122044625       28.03957798094848        1.55114205121744
H           15.80417313249810       28.04729756768248        0.49227711760022
C           14.48024550203149       30.42021256918090        9.89634462403195
H           14.59207767310180       31.40836308098087       10.32990124158949
H           15.04480597847223       29.71032210122544       10.50231358951927
H           13.42703257350078       30.13902834909202        9.95836488981561
C           15.85239301341451       32.72276469881138        7.96424376147554
H           15.14170760286426       33.43630701158536        7.53962365193321
H           16.83816350716621       32.97147803970786        7.57133504852393
H           15.87420021907669       32.88652855413238        9.04196685896347
C           12.72504836426633       25.57967832553039        9.47836666620715
H           12.33474107466764       26.50504973721052        9.90322475378285
H           13.60341211348316       25.29757392052495       10.06471669436361
H           11.97053635410876       24.80620572631042        9.62184545975921
C           12.41376894834641       23.48593856149150        7.05663062642147
H           11.85646694960301       23.14678367753292        6.18610299050157
C           12.61138574318283       22.64565668628894        8.04459930172956
H           13.18736211603870       22.90424474805344        8.91826835551820
H           12.22010421438412       21.63979539068891        8.03218209112571
C           13.76966534789227       23.36503066324395        1.91977857010789
H           12.83616235076513       23.35483386751436        1.34975280324259
H           13.59249253598959       22.85000730237431        2.85995474375235
H           14.51239928837538       22.79639826295930        1.36139330007920
C           15.49885567886738       25.35532008140048        0.03359252177758
H           16.30731038877855       26.01722926681053       -0.27558773664812
C           15.14983430643338       24.35644923685658       -0.73389051992002
H           14.34029270238778       23.70676601202139       -0.45800961904721
H           15.62910079045857       24.11933286624380       -1.66858125891839
C           17.12876860093924       30.35244858831654        0.31375468728822
H           16.29942236396565       30.28260307818978       -0.39038771738167
H           17.81028613816388       29.52657727218491        0.10770586567589
H           17.65377253916564       31.28498073771197        0.12459156038719
C           17.55631492681504       32.47653667016371        2.69620407298415
H           16.91607637603296       33.33651109976881        2.49588676714057
H           18.31813865473154       32.44134679667385        1.91785039841544
H           18.05718072798814       32.63972604722312        3.64801197891152
O           16.62980971838023       27.23048566866520        5.04334226694785
H           16.74760253822688       26.48520684760892        4.44606862392737
H           17.40103361636584       27.58077193974336        5.49292670864928
C            9.61909812341879       29.54559029512977        2.69950983568107
H            9.61226369832150       30.49981218614446        2.17008042800708
H            8.70317393967003       29.48512549022081        3.28683212398541
H            9.60238609993157       28.75325723932325        1.95639862160330
N           11.13718046317680       30.31605484712432        4.55394871098680
H           10.55039673334861       31.07022687773249        4.87244966994481
C           10.83413284509663       29.42041149953951        3.55514662773776
C           12.33667287842600       29.96173036730002        5.07686833919401
H           12.84174812020757       30.50680175161164        5.84905767849117
N           12.80665278203225       28.89834254844786        4.48007034722000
C           11.88148895310435       28.54161605213657        3.53981582141735
H           12.04623059073363       27.67296240770671        2.93713984348981
78
 energy: -116.043978338011 gnorm: 0.033013743807 xtb: 6.7.1 (edcfbbe)
Fe          14.68133029235892       28.09966174242253        4.82760752181066
N           15.01523104033851       29.40668684973425        6.36224141046207
N           13.87781417549295       26.75375852386474        6.10133536030341
N           14.52403152442306       26.74324148049112        3.32922402355995
N           15.57719852278560       29.41350135493198        3.58790709077010
C           15.51625438505643       30.67061848309698        6.30387925740486
C           15.44162356354038       31.29922110207882        7.61572054703581
C           14.89541940397155       30.36711639229132        8.45133447691950
C           14.64455077698640       29.19072070081949        7.64858953840041
C           13.70569146368704       26.91610737160412        7.43876341929427
C           13.09825122082410       25.74336026831222        8.02482936841188
C           12.90491214063331       24.85932591876866        6.99729358958013
C           13.38257642949696       25.52904520531771        5.79426829474611
C           13.99119048806676       25.49315256280127        3.40296076599831
C           14.19849530615557       24.77852595034168        2.17256096924143
C           14.88062899402555       25.63217510032178        1.33610180083286
C           15.03640199247109       26.87207967411961        2.07822151032763
C           15.86924651688309       29.18700185175776        2.27966582168552
C           16.61344824788389       30.29781911565691        1.72845893639976
C           16.76741009126695       31.19787964951591        2.74161010625089
C           16.09780974330297       30.63306551053955        3.90239322567959
C           16.02605685804216       31.24200573402427        5.14736988460608
H           16.41750223762143       32.24850291015109        5.22055507702823
C           14.06937808974344       28.04006203087210        8.15463382339109
H           13.87828568551416       28.01608696390067        9.21722981394395
C           13.38567034882379       24.95971597334388        4.53336551136618
H           12.90104026395577       23.99636107053878        4.42462939876056
C           15.58804618679852       28.03651468489581        1.56410113488818
H           15.84057629934387       28.03590551251636        0.51236160907083
C           14.49221221621866       30.43955333876555        9.88748841231492
H           14.62155052655745       31.43099309975201       10.30826566974997
H           15.06226822285661       29.73094035097895       10.48797759181548
H           13.43884794253522       30.16744834957320        9.97223033871129
C           15.84688005855344       32.69926433061805        7.94510483389072
H           15.14117412516122       33.41596714221904        7.52105224155427
H           16.83455099158389       32.93562850304055        7.55363023152424
H           15.86848933546799       32.85126326680673        9.02246547657106
C           12.73725595474148       25.58507255064636        9.46002807142758
H           12.34494947824615       26.51305763794596        9.87287715515044
H           13.61084232098388       25.30127304474908       10.04960633381166
H           11.98187383792040       24.81153585102020        9.58253278570640
C           12.40507971714893       23.49750317535178        7.05073474898017
H           11.85427572954872       23.16221368090241        6.17795170641530
C           12.60508461789407       22.64788217347493        8.04924208821527
H           13.19095492708429       22.90231273583055        8.91543837602847
H           12.21835895836701       21.64248301402525        8.02999369587847
C           13.77145177849658       23.36772204267399        1.93830999620885
H           12.84689829483410       23.34552819436984        1.35623623561227
H           13.58953269447705       22.85442671858308        2.87714091317468
H           14.52971930196569       22.80571895377411        1.39648982460500
C           15.47896067734107       25.35711361094842        0.04604704794490
H           16.28497207383821       26.02254748861863       -0.24839092858186
C           15.14378254571674       24.35457102295409       -0.76594912623777
H           14.31132265248169       23.70884916469022       -0.54419371640068
H           15.65146651012431       24.14792841035028       -1.69193614863199
C           17.12016348085589       30.35725417018850        0.32646379118781
H           16.29490029550200       30.28720081535543       -0.38138658655752
H           17.80205407207949       29.53155043443635        0.12369644920016
H           17.64787185311489       31.28758128201457        0.13863016055215
C           17.54270696793390       32.47309046132549        2.70789154430123
H           16.89811073974087       33.32947029103561        2.50990184226801
H           18.29782427912230       32.43655826989593        1.92528205558159
H           18.05038950329500       32.64084718911472        3.65458681549301
O           16.62320952865280       27.17500028557190        5.12144201345649
H           16.80753449387858       26.49661604166137        4.43866256791482
H           17.43321828283242       27.58271425597636        5.48051863291317
C            9.62524067226157       29.53925881229546        2.70999985121612
H            9.62172378397367       30.49439120032984        2.18492120984763
H            8.71523680708215       29.47796208945536        3.30424616395065
H            9.61314495452835       28.74412698693601        1.97249035400277
N           11.13767562157920       30.32022270768517        4.54192647615095
H           10.55016224710802       31.07706446581281        4.85286252579400
C           10.83847801373308       29.41872858995614        3.55205348596666
C           12.33057765756360       29.96828377135175        5.07058799805310
H           12.82024902313136       30.50658813206201        5.85429466755781
N           12.81365876131535       28.90714634746188        4.47181108974486
C           11.89184703056553       28.54943207428460        3.53191939206794
H           12.05419415051059       27.68589378409806        2.92261035572708
78
 energy: -116.047682790243 gnorm: 0.033502895061 xtb: 6.7.1 (edcfbbe)
Fe          14.68434469166444       28.09499090537134        4.83078361913035
N           14.99353583748935       29.39207509894481        6.35394005287336
N           13.86357414206218       26.76198055787048        6.09535570956713
N           14.51353267579370       26.74983552124661        3.33352426935332
N           15.58604293071118       29.39876998734567        3.59770427897066
C           15.49781967687563       30.65301455924695        6.29451382717549
C           15.42443914452785       31.28679015650442        7.59751172106662
C           14.87673052297144       30.36663854487949        8.43736369122209
C           14.62151038465365       29.18884353791259        7.64041607524247
C           13.70746303829053       26.91640801495468        7.43306345669888
C           13.11424892393773       25.73970703032733        8.01954041373431
C           12.90923248647953       24.86234023807684        6.99214293268964
C           13.37665171326496       25.53617615704427        5.79185871049444
C           13.97815482774667       25.50132419142810        3.41034537418211
C           14.17831125440494       24.78457729172761        2.17952444905524
C           14.86066179345065       25.63458163352773        1.34265008430788
C           15.03024657636797       26.87220269937492        2.08523844911397
C           15.87081899883977       29.18021776062307        2.28796998090451
C           16.60558918709559       30.29828871208170        1.73773491278200
C           16.76457874338487       31.19013716690202        2.75379813982738
C           16.10103079676333       30.61775086218503        3.90824782233923
C           16.02423422589621       31.22827315122041        5.15013405854501
H           16.42214253367369       32.22952075450195        5.23290098220482
C           14.05685560107137       28.04047579781123        8.15465631037985
H           13.86626832299495       28.01972221450229        9.21605389555066
C           13.38710049247537       24.95832833718796        4.54013845412902
H           12.94001405830413       23.97603748765153        4.44559225782210
C           15.60046902527540       28.02712643687597        1.57419408847389
H           15.88343178198247       28.01968651546542        0.53055766314181
C           14.50521523870953       30.46155623116469        9.87964783530778
H           14.66259131941389       31.46111463751757       10.27720521034990
H           15.08646715687022       29.75651673777852       10.47457910108837
H           13.44930448954062       30.20628786938502        9.99935312483529
C           15.84361953947653       32.67922196119855        7.92076863194045
H           15.14483146434882       33.40118375600445        7.49429143046503
H           16.83494886440342       32.89735863431357        7.52761746756883
H           15.86526198874205       32.82385050470437        8.99884812346806
C           12.74823857570927       25.58616077086337        9.45129201796551
H           12.35308600607070       26.51845851013964        9.85160148597990
H           13.61804370790033       25.30464644428470       10.04681855460087
H           11.99183306503444       24.81143098814288        9.55831590217018
C           12.40353145323078       23.50552111273054        7.04004944641867
H           11.84575239403429       23.17559868231622        6.17296923587261
C           12.60453938012547       22.65016278789123        8.04409235315305
H           13.18862277112294       22.90860675674967        8.90922864040484
H           12.20619245860521       21.64998944692070        8.02196389063036
C           13.77156195037417       23.37068691902257        1.94470959450680
H           12.85290951692573       23.33335078914787        1.35563043044294
H           13.59213367422624       22.85439726805523        2.88414154546854
H           14.54804627761477       22.83195393690387        1.40329138031850
C           15.45137975384698       25.36202407127543        0.05174427555107
H           16.26730672649597       26.01628851558655       -0.22863499780019
C           15.11679470532264       24.37357918252114       -0.78418694507368
H           14.30376666207623       23.70014112056037       -0.58095617129745
H           15.65998864273970       24.19847277923333       -1.69960905824561
C           17.10959788303932       30.36411174980856        0.33706797965079
H           16.28514944717634       30.29385928392529       -0.37252439180324
H           17.79404681407940       29.53836197367794        0.13754569273457
H           17.63739754392726       31.29646575220062        0.15442149548487
C           17.52634248369420       32.47199558447282        2.72257452733369
H           16.86943094640762       33.32121082498038        2.53031090871179
H           18.27558248928315       32.44097877968048        1.93355149809079
H           18.03826278492114       32.64375440374852        3.66721935885680
O           16.63560596387428       27.13410173959253        5.17744287174490
H           16.84996042179450       26.49582420526590        4.47333092563993
H           17.46344128792708       27.57517057144059        5.46585811136963
C            9.62873909156243       29.52937815112543        2.71502251055923