78
 energy: -116.058057115729 gnorm: 0.000031487918 xtb: 6.7.1 (edcfbbe)
Fe          14.83647387532291       28.05703244321802        4.90812208713802
N           15.01020508017351       29.37369726766399        6.39229974950174
N           13.93092188599989       26.77002065214350        6.13156635885517
N           14.74789930322079       26.70715018590269        3.41493271739827
N           15.78097961466416       29.33614630977220        3.67240155048579
C           15.59981681533405       30.59680077086967        6.34441562676904
C           15.54137234128129       31.24593791799906        7.63680351779040
C           14.89268605921357       30.38572440127954        8.46497323332225
C           14.56736175593379       29.22211893413531        7.66760142077892
C           13.60059815304163       26.98104457745284        7.43248075894138
C           12.92371939824154       25.83420333048013        7.98455840940045
C           12.85728010141784       24.90650694569259        6.98020625426023
C           13.48946995655159       25.52259816763485        5.82771430714707
C           14.21642712522386       25.45387876229476        3.48187383254397
C           14.31342195840437       24.78753503407133        2.20997070828997
C           14.90525212829513       25.67849279386191        1.35236260642839
C           15.17005086483424       26.87000101833572        2.13351252537472
C           16.02799453966838       29.16028968982655        2.34540182625220
C           16.65171414985662       30.33602063307245        1.78240568927548
C           16.77698811362480       31.22848430594734        2.80223747179160
C           16.22327782101211       30.58777615687751        3.97265021848529
C           16.16157486433057       31.17716552981678        5.22203107581708
H           16.57542884887776       32.16866339237211        5.32590216926326
C           13.89680335661860       28.12105816414723        8.15848258080047
H           13.59843533727465       28.14333026483450        9.19544829602000
C           13.63373124232237       24.89398863991366        4.60624619316221
H           13.24831260714477       23.89010662852336        4.51412304196263
C           15.74973564052943       28.01632856268599        1.62160322355810
H           16.00254288198406       28.02213041575862        0.57264067708012
C           14.55584826389668       30.53675562553986        9.90862816450705
H           14.90435769213132       31.49350461429184       10.28992520737072
H           15.02156067442656       29.74378470852490       10.49378455813148
H           13.47749281749366       30.47940245506468       10.05928252309868
C           16.10733614695618       32.59395313929208        7.92745858260590
H           15.63292586414032       33.35415334799312        7.30579212033897
H           17.17809244398428       32.61127018510988        7.72361472783837
H           15.95354327007024       32.86088309507436        8.97003969631647
C           12.36443685868328       25.75008401185213        9.36166069184880
H           11.93724985067852       26.70545447046862        9.66275662053618
H           13.14126595908336       25.48566655667233       10.08085339735295
H           11.58567959618934       24.99112635118480        9.40290348189375
C           12.26675869240024       23.58647624477630        6.99027905030460
H           11.82048618415917       23.26481787876548        6.05601649496725
C           12.24029584536888       22.76103645510442        8.03174337623285
H           12.70945813407991       23.00590156234685        8.96841687307063
H           11.76907681085041       21.79386575776649        7.97223183331120
C           13.90494671676713       23.38028952666178        1.94611688859662
H           12.83500828714991       23.31636987405800        1.74051511888083
H           14.12122132615965       22.74835542471511        2.80627474604082
H           14.44303841341857       22.99123099255617        1.08394475522850
C           15.25407244388096       25.51272780932577       -0.04097830396644
H           16.14540617745326       26.03722326959864       -0.36598007292624
C           14.57498993064891       24.79112428787084       -0.92689077763804
H           13.65784388633587       24.28835195193377       -0.67472881585178
H           14.90304343595297       24.70072042659439       -1.94919842052094
C           17.05580223292177       30.47182507778989        0.35441610089970
H           16.19611567611091       30.33407675630033       -0.30164037748423
H           17.80275284523166       29.72143773520212        0.09342313468424
H           17.47883598076480       31.45507558471052        0.16357396975284
C           17.35559240215128       32.60208834095513        2.79026632127011
H           16.60928582276434       33.33685201496899        3.09392281507558
H           17.70903477499255       32.86437070652758        1.79615146349709
H           18.19585148900688       32.67010931133609        3.48168270540974
O           16.90478404599665       27.18227838360220        5.37398984411967
H           16.89733731423668       26.40221460930349        4.80867308925189
H           17.45580730206957       27.84235086756808        4.93946535410997
C            9.58701481057709       28.80356304306041        3.18853997107898
H            9.44339377635236       29.22721077535231        2.19458166826436
H            8.87682697025016       29.27655474889193        3.86664135748837
H            9.37366541467591       27.74013340681047        3.14731240036700
N           11.52455479783384       30.26047104998795        3.81670636930047
H           11.05470849735339       31.13389492222078        3.64362561747391
C           10.98112148533293       29.01304890360872        3.65443036470969
C           12.79680767357940       30.10070139759560        4.24566259190142
H           13.46590503335644       30.90926332935833        4.45653138120478
N           13.09161746583509       28.82887819161524        4.36456876623613
C           11.97197697910165       28.13990520164425        4.00100107780938
H           11.95429566672234       27.06993372186608        4.01204336812574
