72
 energy: -105.903533349640 gnorm: 0.235450099449 xtb: 6.7.1 (edcfbbe)
Fe           2.97000000000000       -3.07400000000000       15.62800000000000
N            1.56700000000000       -3.16200000000000       17.12400000000000
N            3.74700000000000       -4.79600000000000       16.24800000000000
N            4.54300000000000       -2.84900000000000       14.40100000000000
N            2.33100000000000       -1.19700000000000       15.20300000000000
C            0.49400000000000       -2.31500000000000       17.30300000000000
C           -0.31900000000000       -2.85000000000000       18.38500000000000
C            0.26400000000000       -3.96700000000000       18.82700000000000
C            1.47900000000000       -4.17500000000000       18.05900000000000
C            3.33000000000000       -5.56300000000000       17.31200000000000
C            4.06900000000000       -6.80300000000000       17.30700000000000
C            4.94200000000000       -6.76100000000000       16.27600000000000
C            4.74700000000000       -5.49200000000000       15.60000000000000
C            5.33500000000000       -3.87100000000000       13.90200000000000
C            6.04600000000000       -3.41600000000000       12.72600000000000
C            5.69700000000000       -2.13500000000000       12.51300000000000
C            4.73200000000000       -1.77100000000000       13.53900000000000
C            2.95300000000000       -0.29700000000000       14.36400000000000
C            2.18700000000000        0.93000000000000       14.38700000000000
C            1.10700000000000        0.74700000000000       15.15800000000000
C            1.16700000000000       -0.60500000000000       15.69200000000000
C            0.25100000000000       -1.17500000000000       16.56300000000000
H           -0.72100000000000       -0.69300000000000       16.67000000000000
C            2.34700000000000       -5.23500000000000       18.21000000000000
H            2.24500000000000       -5.85300000000000       19.10200000000000
C            5.44200000000000       -5.09600000000000       14.49100000000000
H            6.13200000000000       -5.81200000000000       14.04500000000000
C            4.12000000000000       -0.52900000000000       13.65600000000000
H            4.59000000000000        0.31900000000000       13.15700000000000
C           -0.21700000000000       -4.84700000000000       20.00300000000000
H           -1.32300000000000       -4.77900000000000       20.08900000000000
H            0.24100000000000       -4.49000000000000       20.95000000000000
H            0.06600000000000       -5.90600000000000       19.82000000000000
C           -1.65000000000000       -2.25500000000000       18.92200000000000
H           -2.50700000000000       -2.81700000000000       18.49299999999999
H           -1.73200000000000       -1.18800000000000       18.62200000000000
H           -1.68000000000000       -2.34100000000000       20.02900000000000
C            3.83300000000000       -7.89600000000000       18.37500000000000
H            2.83700000000000       -8.36200000000000       18.21500000000000
H            3.86000000000000       -7.44200000000000       19.38900000000000
H            4.61500000000000       -8.68000000000000       18.28900000000000
C            5.98100000000000       -7.79000000000000       15.78800000000000
H            6.83200000000000       -7.44100000000000       15.18600000000000
C            5.92100000000000       -9.10900000000000       16.05000000000000
H            5.09500000000000       -9.52300000000000       16.64700000000000
H            6.69700000000000       -9.78900000000000       15.67000000000000
C            7.05000000000000       -4.27200000000000       11.90900000000000
H            6.54500000000000       -4.67300000000000       11.00400000000000
H            7.40900000000000       -5.12200000000000       12.52800000000000
H            7.91000000000000       -3.64300000000000       11.59300000000000
C            6.14100000000000       -1.17300000000000       11.38900000000000
H            6.01300000000000       -0.09400000000000       11.55300000000000
C            6.67700000000000       -1.53000000000000       10.21300000000000
H            6.83900000000000       -2.59100000000000        9.97200000000000
H            6.96200000000000       -0.76600000000000        9.47400000000000
C            2.55200000000000        2.21000000000000       13.59500000000000
H            2.74600000000000        1.94600000000000       12.53300000000000
H            3.46700000000000        2.67000000000000       14.02600000000000
H            1.70800000000000        2.93200000000000       13.63800000000000
C           -0.01400000000000        1.77100000000000       15.47500000000000
H           -0.82100000000000        1.68400000000000       14.71700000000000
H            0.39900000000000        2.80200000000000       15.44400000000000
H           -0.44000000000000        1.56300000000000       16.48000000000000
O            4.22800000000000       -2.22500000000000       17.03300000000000
H            5.11700000000000       -2.34400000000000       16.69800000000000
H            4.00300000000000       -1.82800000000000       17.79600000000000
C            0.17000000000000       -4.41700000000000       14.53500000000000
H           -0.34700000000000       -5.15300000000000       13.88300000000000
H           -0.43800000000000       -3.48800000000000       14.55300000000000
H            0.21600000000000       -4.84000000000000       15.56100000000000
S            1.83000000000000       -4.06200000000000       13.93300000000000
H            2.32200000000000       -5.25300000000000       14.24200000000000
72
 energy: -105.948654902806 gnorm: 0.092870796492 xtb: 6.7.1 (edcfbbe)
Fe           2.99145764719078       -3.05261318646311       15.64935204987813
N            1.55654972484270       -3.17671813226380       17.10930672997624
N            3.73918784675679       -4.81223337971712       16.22788972992090
N            4.51510670971142       -2.85173102188277       14.34406554692418
N            2.31855476097843       -1.20359852651917       15.19491042489837
C            0.48769733610914       -2.34043901635914       17.28935326991745
C           -0.33427973019912       -2.84528528959268       18.37980446414017
C            0.26937421543342       -3.96363044166817       18.84694500974586
C            1.46840520069784       -4.16610717936487       18.05322873454608
C            3.34124476672584       -5.56912687304608       17.29683604832747
C            4.08281536608380       -6.81283127701323       17.32109059870078
C            4.95454931840207       -6.78311283625301       16.27090851017870
C            4.74021021083045       -5.50809185891736       15.60182116264698
C            5.32993778186235       -3.85770450294449       13.88091942909752
C            6.05955711909887       -3.41136999018424       12.71454949954428
C            5.70655501908628       -2.11078818661474       12.49866287485397
C            4.73936955960796       -1.76607742353291       13.53256561698728
C            2.95087413403111       -0.29319891252514       14.39048447676105
C            2.18811804485763        0.94155929021820       14.38029602851372
C            1.09399266296031        0.74901939464202       15.15521675454415
C            1.17515072472043       -0.60746777111572       15.67618084133640
C            0.26446755383198       -1.18508570834540       16.55352303903185
H           -0.68815062191514       -0.68081445549137       16.69056375600034
C            2.34571238094635       -5.22851619303422       18.19716943972969
H            2.22682114982344       -5.85724960080994       19.07338836221108
C            5.43914653274028       -5.09425586554596       14.48551554145749
H            6.13175902702833       -5.80319011378502       14.04969634875105
C            4.11334654625439       -0.53149690389158       13.66964906202317
H            4.55500540577899        0.30620940127777       13.13940930711184
C           -0.20814102257323       -4.83844194246110       19.98797694863090
H           -1.29750187817945       -4.77841242448779       20.08202946326377
H            0.23645007229612       -4.49969543619998       20.93071070378777
H            0.06563905001570       -5.88489062400138       19.82314691043823
C           -1.63148387220637       -2.25643086881526       18.90645616878574
H           -2.48738119936276       -2.80638598769547       18.49683294953605
H           -1.72810476728402       -1.20475824359129       18.62525853814467
H           -1.67019459636341       -2.33478614551382       19.99830951052589
C            3.83913871079543       -7.88150674104066       18.36564899864181
H            2.85755837937837       -8.34805220226662       18.21439988659101
H            3.86092515235460       -7.44556850641006       19.36942288623195
H            4.60490935191708       -8.65661375251719       18.30827611911998
C            5.95800701714729       -7.78590769389979       15.80806478111357
H            6.79249084934117       -7.42028548915126       15.20985336579926
C            5.91333525357455       -9.09442825464550       16.05234896017632
H            5.10360078166195       -9.53506636851906       16.61737944715282
H            6.67983990106653       -9.76595861587327       15.67837812257267
C            7.03568065691996       -4.26146147670674       11.92350109110376
H            6.54963862358882       -4.66567409142189       11.02717721548913
H            7.40120685311504       -5.10232607704276       12.51995779245085
H            7.89091275202969       -3.65441785844593       11.60883158880510
C            6.13967292115348       -1.18885172309264       11.40717335759491
H            5.99929656710651       -0.12337360237760       11.58150116191401
C            6.67106684355630       -1.53760650206506       10.23638646909031
H            6.82864304344039       -2.57331882303186        9.96684190913252
H            6.95170194037489       -0.78762284711917        9.50153143423313
C            2.55153520773873        2.19141086507082       13.60238072610761
H            2.74509378125651        1.94483526304408       12.55312112235189
H            3.45045943476311        2.65873003573663       14.02002445697001
H            1.72958798178412        2.91259950385594       13.63866704823935
C           -0.00139307790503        1.75170514334330       15.47072355961174
H           -0.80582690217683        1.68028981941758       14.72930090652873
H            0.39324977912918        2.77273477388977       15.44810603988694
H           -0.42656769253385        1.56478054764337       16.46103291176569
O            4.24915777652003       -2.21790233938758       17.03929874487518
H            5.14591479925508       -2.32506665301589       16.72473254870377
H            4.02524789878263       -1.79797523868151       17.84889833245487
C            0.15225249405635       -4.42938838628767       14.54196270526654
H           -0.34269660969480       -5.14885616265821       13.88110196858991
H           -0.42152484459577       -3.49835531954287       14.55385119302962
H            0.20902988110103       -4.83170332137832       15.55678287332518
S            1.81951178655884       -4.06133325361845       13.94601731362239
H            2.31452452681888       -5.26571641829457       14.22529911058817
72
 energy: -105.962425812937 gnorm: 0.023343890621 xtb: 6.7.1 (edcfbbe)
Fe           2.99808755627741       -3.04219282322541       15.65708686535949
N            1.55497608615959       -3.18787671805731       17.09436848724139
N            3.74273737014217       -4.81743940151647       16.21873242632423
N            4.49774889807605       -2.84822504530550       14.31237889371071
N            2.32114510959717       -1.20648906562729       15.20559714210224
C            0.48871232745319       -2.36177710043747       17.27261432125662
C           -0.33912344467113       -2.84477455715847       18.36467631144064
C            0.27809917898120       -3.96113018589145       18.85042112501612
C            1.46314894806689       -4.16160311760338       18.04024676374319
C            3.34844383923694       -5.56997613644522       17.28290430095937
C            4.08771372451783       -6.81373915147496       17.32890202138345
C            4.95617269146049       -6.79395811869690       16.26411212315450
C            4.73252727615218       -5.51612151408322       15.59884479753989
C            5.31176382419680       -3.84810075436173       13.86512857642188
C            6.06243774153949       -3.40953925652066       12.71260670682071
C            5.71085106147576       -2.09642730268191       12.49468747370491
C            4.73304870083251       -1.76876617292543       13.52483960247306
C            2.94668760792412       -0.29853763853756       14.40912790199442
C            2.19268932061339        0.94281471054977       14.38149254116629
C            1.08864937542392        0.74244011116692       15.15515783585439
C            1.18709752579014       -0.61417308263725       15.66762256652201
C            0.28154630595345       -1.19297949877003       16.54907394420868
H           -0.64763608644994       -0.66097431644064       16.72408943072528
C            2.33970979157305       -5.22798473999862       18.17611116368236
H            2.19919693967370       -5.87244951310430       19.03332933907547
C            5.42576840244097       -5.09046991046817       14.47621241767997
H            6.13174342462837       -5.78739941047815       14.05175153233217
C            4.09335481457417       -0.54212963907039       13.66586283662472
H            4.50524158819250        0.28886390360959       13.10667682924911
C           -0.19310038350874       -4.82596602013702       19.97249578711363
H           -1.27486671194350       -4.76906825308535       20.06755944895025
H            0.24323310199513       -4.50319311684081       20.91809866039546
H            0.07625167093180       -5.86611573220789       19.81365911259597
C           -1.61013164634734       -2.25719342095537       18.88360728809389
H           -2.47001713377496       -2.79838532963331       18.48649507353505
H           -1.71317761157493       -1.21207217458026       18.61270275792751
H           -1.64921430781444       -2.33200759544937       19.96903680006466
C            3.85065299116868       -7.86298702213439       18.36057993332019
H            2.87794295684418       -8.33219977962101       18.20761410165533
H            3.85911466386419       -7.43201403857946       19.35948246945816
H            4.61200068767262       -8.63260468994712       18.32109729316397
C            5.92859154337155       -7.77290299745322       15.82454422793660
H            6.75577542051886       -7.38699266016730       15.23889748903565
C            5.89699915326686       -9.08226855913238       16.05008602652340
H            5.09907873108788       -9.55305715950683       16.59278241673801
H            6.66881089653419       -9.74024349857319       15.68643667593499
C            7.02326781216412       -4.24761035348424       11.94078583426119
H            6.54567651890904       -4.65589521380655       11.04955705070956
H            7.38805580945658       -5.08321185877561       12.53048577996645
H            7.87769582999587       -3.65312540531414       11.62404739458940
C            6.13490629350791       -1.20454715530981       11.43809820035690
H            5.98302423980820       -0.14792189879942       11.62414224004600
C            6.66137397277973       -1.54559549241445       10.26407399103789
H            6.81645350745637       -2.56496425463927        9.96641047009858
H            6.94115944935656       -0.80097084080912        9.53602936755454
C            2.55445033768026        2.16934666605128       13.61258875974634
H            2.74760809704944        1.92937158622052       12.56936467355469
H            3.44765796507595        2.64004163073691       14.02133689383223
H            1.74365675840681        2.89163768103063       13.64553220618854
C            0.00924185150397        1.72713974408487       15.46518141653976
H           -0.79651214857060        1.66498304084121       14.73342331548539
H            0.39855733228627        2.74260694352541       15.44581669651284
H           -0.41345152668052        1.55119531241755       16.44993465471578
O            4.27151454738410       -2.20111675373028       17.04990763736052
H            5.18651327466579       -2.29141114148454       16.77812339875149
H            4.06120805728574       -1.77838687216434       17.88200554586044
C            0.13175994774593       -4.44032327262496       14.55019804722205
H           -0.34407810175085       -5.14970711049541       13.88096362963143
H           -0.41719103215923       -3.50507762172832       14.55512420046050
H            0.19533499112497       -4.83122786489024       15.55803751767612
S            1.80467769384918       -4.06271877737312       13.94654637694861
H            2.30395459954397       -5.27912322286856       14.19445286068291
72
 energy: -105.966903322691 gnorm: 0.022885057055 xtb: 6.7.1 (edcfbbe)
Fe           3.00667070603227       -3.03285912588344       15.67025958700420
N            1.55667340434869       -3.19501984452796       17.08001883572997
N            3.73997750942731       -4.81870350328409       16.21198889465212
N            4.47973091737913       -2.85095405142340       14.30038132322934
N            2.32328241733358       -1.21436763553003       15.20846056279179
C            0.49411331788847       -2.36898841614502       17.26067302788084
C           -0.33302147363529       -2.84569865266300       18.34957628823455
C            0.28395321207228       -3.96088858025122       18.83884013982913
C            1.46105722789730       -4.16537510606816       18.02506243497934
C            3.34356176664319       -5.57013931896563       17.27279519092556
C            4.08148405789703       -6.80903580862987       17.32769754599019
C            4.94665432550681       -6.79351692754206       16.25991908608650
C            4.72476211666760       -5.51808961401231       15.59235024152719
C            5.29504802624065       -3.84875795552129       13.86083900488040
C            6.05345466935296       -3.41201781364609       12.71738265360141
C            5.70334278196196       -2.09767015580740       12.49844902759062
C            4.72096290535831       -1.77286844189866       13.52091454792885
C            2.94397014820627       -0.30835671336740       14.41151646808587
C            2.19401172556853        0.93223056686733       14.38197448112796
C            1.08992571464801        0.73114217444006       15.15471922973451
C            1.19408282620854       -0.62074028367189       15.66884204752328
C            0.29358780953422       -1.19129535415331       16.55502022391538
H           -0.61656086207802       -0.63837048576943       16.76057683843749
C            2.32819933831733       -5.23614115599074       18.15735087228947
H            2.16624351840588       -5.89864591688942       18.99653793512601
C            5.41515060747579       -5.09032943746496       14.47044118690616
H            6.13018049707598       -5.77925362950075       14.04873980582766
C            4.07659109440923       -0.55061567375316       13.65274014687120
H            4.45755013688932        0.27446396113649       13.06174563174137
C           -0.18071644819916       -4.82123202178010       19.96209405728702
H           -1.26243552035665       -4.76173492711188       20.05863598801182
H            0.25910198214450       -4.50146945125802       20.90791102030139
H            0.08929364477673       -5.86158691618175       19.80148589792120
C           -1.59795767361442       -2.25099052655871       18.86327580382663
H           -2.46167260833048       -2.78838207110592       18.46751294491480
H           -1.69568331641705       -1.20532931064069       18.59007593241836
H           -1.63325403220627       -2.32422195654609       19.94917473367593
C            3.85884312243470       -7.84683837781065       18.36893028417126
H            2.89476557251845       -8.33344602513266       18.21063455910328
H            3.85012621314325       -7.40302725047487       19.36332315900927
H            4.63535814772313       -8.60377053638540       18.34781931194745
C            5.91883741684343       -7.76675236001715       15.83227678327268
H            6.74776506946553       -7.36635068617245       15.25990983060728
C            5.89207807698343       -9.08015268434604       16.04325691529790
H            5.07762695303565       -9.57596130328109       16.54456838797099
H            6.67555360907280       -9.72439627902771       15.68285369874365
C            7.01972598150848       -4.24387442781289       11.95463399882759
H            6.54461826144282       -4.65661323334780       11.06345119258797
H            7.38535178848618       -5.07591065038080       12.54989469297449
H            7.87191198644678       -3.64544670988114       11.63810939499664
C            6.13179228785306       -1.20355713733198       11.45712648530767
H            5.97905165065941       -0.14929970201512       11.65499587524559
C            6.65806081346925       -1.54076914595375       10.28122249879052
H            6.79921856618548       -2.55845179106852        9.96802120758143
H            6.93797055757499       -0.79253516924656        9.55921904481486
C            2.56241954466433        2.15376663031376       13.61616866161054
H            2.75504721844008        1.91125649704573       12.57282577016097
H            3.45898432792330        2.61957191087663       14.02496210229548
H            1.75473794196875        2.88021090346069       13.64980501994811
C            0.01025627815593        1.70947707621734       15.46359100441029
H           -0.79753088565810        1.64370711274965       14.73383799059366
H            0.40045009385294        2.72481931650201       15.44078410662019
H           -0.40919036083937        1.53443619242414       16.45052832140621
O            4.30157557940669       -2.16811092636814       17.07280790337613
H            5.23181020525823       -2.25612018799955       16.84520385566016
H            4.10205080534603       -1.76040399899453       17.91848849743587
C            0.11419636151668       -4.44838668856231       14.55708542441146
H           -0.35425393816908       -5.15438252512177       13.87969696897063
H           -0.42822536769945       -3.50991511026977       14.56085332729497
H            0.17596918828310       -4.84091109830281       15.56402336803563
S            1.79226485170790       -4.06057882439906       13.95759517118302
H            2.28646561016472       -5.29247272878524       14.15751554653095
72
 energy: -105.970275734234 gnorm: 0.018921042445 xtb: 6.7.1 (edcfbbe)
Fe           3.00386953244575       -3.03183018574771       15.67281838330513
N            1.56720676374858       -3.19739140384774       17.06767139168049
N            3.73899043041793       -4.81349830608987       16.20954673761361
N            4.45588971202178       -2.85518275848007       14.29510574258461
N            2.32859395867344       -1.22473651210855       15.21482350670685
C            0.50631850831884       -2.37074979095999       17.25248347229946
C           -0.32232941317529       -2.84564557085248       18.33419731553735
C            0.28919050478219       -3.96193384816932       18.82204847700474
C            1.46090380512426       -4.17067419319222       18.00847167056525
C            3.33842054816612       -5.56854046153579       17.26489324575022
C            4.07450812014810       -6.80260490864760       17.32362568889263
C            4.93532283111803       -6.78951628920454       16.25499814514666
C            4.71825114173268       -5.51615531037861       15.58749946331131
C            5.27679673240832       -3.84964598628444       13.86189682210791
C            6.04175070562700       -3.41425539031323       12.72615946519182
C            5.69211991909482       -2.10202897806215       12.50499525116651
C            4.70265702841428       -1.77965714097361       13.51626611779839
C            2.93990408874284       -0.32142322609413       14.40986622347384
C            2.19394437132147        0.91791722550748       14.38097822928171
C            1.09428386372002        0.71993581035622       15.15689663378847
C            1.20349079778387       -0.62560743101049       15.67654423374689
C            0.30933393571401       -1.18382754427289       16.56943601793161
H           -0.58147381443994       -0.61679976211606       16.80095170252469
C            2.31181554462780       -5.25038470494322       18.13614898383679
H            2.12493846846438       -5.93376255584479       18.95259783789155
C            5.40382563427408       -5.09032038394271       14.46581611892685
H            6.12271547707889       -5.77290186472543       14.04095702451301
C            4.05298523757703       -0.56258115926393       13.62878666961397
H            4.40218295265929        0.25421552782225       13.01048978795857
C           -0.16880726485533       -4.81965704736718       19.94961840822128
H           -1.25020838476814       -4.75705445363927       20.05331631835381
H            0.28069680984554       -4.49956077860799       20.89162104485914
H            0.10067614890159       -5.86091077144332       19.78698826229419
C           -1.58533911030690       -2.24050296616418       18.84017243845458
H           -2.45175279806097       -2.77195826133712       18.44082694559637
H           -1.67240412094256       -1.19438463591801       18.56093056457999
H           -1.62287174357636       -2.30966683252856       19.92656739636265
C            3.87295595008234       -7.83409135573286       18.37518715963783
H            2.92281750417705       -8.35044810050338       18.21660832469741
H            3.84371008221560       -7.37344768428632       19.36363874490459
H            4.67428300324552       -8.56837291010786       18.36295680440490
C            5.90927635401554       -7.76323830252898       15.83227274644042
H            6.75752555550526       -7.35034498682908       15.29643555054027
C            5.87061647165609       -9.07966739833628       16.02104291233128
H            5.06021010224343       -9.58096312156073       16.51765812578306
H            6.67745385375380       -9.71071887492164       15.68545631294680
C            7.01890640368515       -4.24104326707493       11.97144791165750
H            6.54961072239221       -4.66378790806382       11.08072988679677
H            7.39046023454237       -5.06615053311225       12.57449613927552
H            7.86560267205820       -3.63409767900178       11.65468904817863
C            6.12749918485252       -1.19760463304806       11.47448375641187
H            5.98835301056063       -0.14516993374706       11.69225265467245
C            6.64736514714447       -1.53029856491753       10.29456500312666
H            6.78145387575406       -2.54690677123837        9.97414543355103
H            6.94303240191229       -0.77524485396684        9.58604049808377
C            2.57292036980958        2.13621965626418       13.61573209596355
H            2.76324022700918        1.89129934581571       12.57152075781337
H            3.47597362383920        2.59025031190559       14.02620433666548
H            1.77207230908773        2.87115925463843       13.65158046251445
C            0.00863453429787        1.69195536327567       15.46310106714469
H           -0.80149225367000        1.61400808979208       14.73620940947942
H            0.39392667749175        2.70946922698035       15.43232661597698
H           -0.40587738832313        1.51827305310719       16.45335280414526
O            4.33365783712349       -2.11239521616493       17.08722860408878
H            5.28205362765362       -2.22582495920345       16.93386567710558
H            4.15365587756986       -1.75363730579423       17.96381238318909
C            0.08939250551299       -4.45810825439451       14.56384163796875
H           -0.37354025686063       -5.16325943951394       13.88208634569110
H           -0.45324904566011       -3.51974327627392       14.56964189336334
H            0.15175838084090       -4.85512504091128       15.57006968435838
S            1.76689252389655       -4.05769578728256       13.95675906750847
H            2.25945099775724       -5.29896529288087       14.11354840471028
72
 energy: -105.971536671597 gnorm: 0.021367152474 xtb: 6.7.1 (edcfbbe)
Fe           3.00360749395035       -3.02915406800731       15.67539791235398
N            1.57563692249415       -3.19683315677479       17.06212792861605
N            3.73428907094837       -4.81051772504003       16.20685481493560
N            4.43971051847740       -2.86053339523956       14.29407245977887
N            2.32849324438242       -1.23134817905804       15.21432908331325
C            0.51638165294537       -2.36668995756113       17.25266180597383
C           -0.31594914113669       -2.84442565132332       18.32821046793666
C            0.28664124534192       -3.96591733105291       18.80927518184996
C            1.45749198736590       -4.17773589586255       17.99701715402303
C            3.33103775869297       -5.57095514456202       17.25879177429785
C            4.07103214729207       -6.80086038414165       17.31956664105394
C            4.93122734008496       -6.78673243983488       16.25342103699222
C            4.71234883405927       -5.51681777970500       15.58305537754545
C            5.26518076554559       -3.85348779629451       13.86251532557260
C            6.03493248069869       -3.41664425088779       12.73040691648027
C            5.68337845339596       -2.10842444184364       12.50627326012958
C            4.68504638503368       -1.78827762179306       13.50712794982736
C            2.93240135828428       -0.33079390484692       14.39942304528584
C            2.19053198823239        0.90961347101543       14.37506309427358