72
 energy: -105.980474354556 gnorm: 0.000071782215 xtb: 6.7.1 (edcfbbe)
Fe           2.92143996668094       -2.98574561935201       15.67462680497235
N            1.54236737701483       -3.13174626399154       17.10227478762308
N            3.60824119686761       -4.82107824267181       16.15452859694439
N            4.37662726192399       -2.81899541490322       14.28830804738678
N            2.29723120688657       -1.14945510381629       15.23778948402786
C            0.59292229509562       -2.21366460028971       17.40931986045827
C           -0.23222255987376       -2.67542939209036       18.50526897790050
C            0.25386801125249       -3.89321006847486       18.86137819312487
C            1.36259362484590       -4.16217553075767       17.97068115717219
C            3.14250415083804       -5.63545104056377       17.14361661131175
C            3.86162612147303       -6.88093382464109       17.16153293541235
C            4.77973179437079       -6.81207286247233       16.14579005780302
C            4.61162361638889       -5.50666820475057       15.54177597520752
C            5.27263208183954       -3.77960023064945       13.92113126916281
C            6.12103112138304       -3.30683758367670       12.85920289167694
C            5.71623048632979       -2.02686699613818       12.58409040396465
C            4.62198639610795       -1.74810816878423       13.49010323327758
C            2.81759999238763       -0.30497398153436       14.31087104745489
C            2.06559563183817        0.93165587324099       14.26507212453363
C            1.07184125757931        0.80589481370874       15.18233505261797
C            1.23688810238445       -0.50154686171258       15.78190289243231
C            0.42780528488846       -0.99161313136883       16.78686440070114
H           -0.38002332730858       -0.36341607085651       17.12851325537973
C            2.10147784336590       -5.32722018965447       18.00308542128601
H            1.83471766507933       -6.06432321961293       18.74422572391918
C            5.37228429253283       -5.03855112743842       14.48722105954717
H            6.11325787825412       -5.70634739492534       14.07687303463637
C            3.90198039715876       -0.56831777864204       13.49797345944278
H            4.19378221792348        0.19753556279651       12.79671351653137
C           -0.20670965619545       -4.82006120482697       19.93301709878447
H           -1.05002532673487       -4.39697124373095       20.47281537288350
H            0.59601786361574       -5.00937978035461       20.64581703126292
H           -0.51559358475224       -5.77602026660385       19.50891106770545
C           -1.36905688219460       -1.90511846520343       19.08221455656370
H           -2.11523540079026       -1.69121260839562       18.31676273364517
H           -1.01936524133275       -0.95593335117117       19.48829723926633
H           -1.84878516032665       -2.46387618768175       19.88193200571309
C            3.65769153121241       -7.97234100739985       18.15260584750491
H            2.81579286842518       -8.60589961177593       17.86809739870563
H            3.45186627823697       -7.56213046108189       19.14010476616352
H            4.54927731414688       -8.59319297797647       18.21174411616976
C            5.76445444273765       -7.78942181984614       15.73692136795218
H            6.69844491411537       -7.38667045953273       15.36255433778642
C            5.60282055841015       -9.10759542788017       15.77979706373495
H            4.68067877692019       -9.56237374815539       16.09705743873734
H            6.38518472768646       -9.78057285415131       15.47099972520196
C            7.25326595736962       -4.06753353945734       12.26365139960059
H            6.89670059208255       -4.76234247901510       11.50156388858665
H            7.77630519263250       -4.64336280068015       13.02584448374539
H            7.95948935518228       -3.38194384899735       11.79998089865234
C            6.24535999736433       -1.08628203484585       11.62076976757090
H            6.21427470705719       -0.04462751851445       11.91865047408984
C            6.74276278026002       -1.40272783928935       10.43013349763677
H            6.75297413209277       -2.41436982027902       10.06381273437904
H            7.13301528614750       -0.65028486634741        9.76529147234259
C            2.37839869871479        2.07093527458424       13.35792046751435
H            2.32673380194410        1.75494213625797       12.31591127148648
H            3.38346600981465        2.44800113685001       13.54829069255294
H            1.67401168455462        2.88580797826519       13.50440995596062
C            0.00122804894513        1.77143745182835       15.55664867505306
H           -0.98329143347678        1.33370814001892       15.39141530932455
H            0.07594650037413        2.68004180678349       14.96457514730178
H            0.08021710762501        2.04031460606376       16.61014068008884
O            4.42135940783205       -2.16525346653846       17.12606221335992
H            5.02196478746187       -1.70461137111542       16.52900754334246
H            4.86483796652964       -2.97389502597212       17.40722285921669
C            0.42907319684561       -5.12900149173242       14.79492859448892
H            0.00039464790402       -5.76325312562826       14.02509010259382
H           -0.35218032817304       -4.56709365964949       15.29599800857578
H            0.98645597751565       -5.71050911525085       15.52110501135041
S            1.53420021478170       -3.90207614285644       14.01248069665368
H            2.40493630193713       -4.80498625469225       13.54837471084294
