72
 energy: -105.980056621403 gnorm: 0.000085020143 xtb: 6.7.1 (edcfbbe)
Fe          13.81745109618887       -0.53644640202821        9.53331983211692
N           12.09355092973850       -1.54431115197604        9.60633914521543
N           13.67483797923455       -0.15765374945471       11.50389593272248
N           15.52507737126756        0.51662254380067        9.45982263652449
N           13.90690760613713       -0.82348545584203        7.56549768171924
C           11.41337851937979       -2.07388860475431        8.55708278557828
C           10.21000684802752       -2.73712764307275        9.00914521850471
C           10.18196262137758       -2.59765579668368       10.36110391098577
C           11.36077047228214       -1.83737325025795       10.71455510977779
C           12.73243576564662       -0.64144073607381       12.36002354676868
C           12.96996748761722       -0.16930693118438       13.69686873528074
C           14.06892168285459        0.64518925082336       13.63136172595768
C           14.51309245267290        0.60784075175720       12.25361380816669
C           16.16617486595245        1.10674946998120       10.50724464066145
C           17.42516091967952        1.66523565300031       10.08638028866824
C           17.54056664446136        1.39032664420506        8.74953592075897
C           16.33365280013295        0.67756562200409        8.38176985250131
C           14.90453956102634       -0.43564169433295        6.72962842610393
C           14.60740307660201       -0.81923025816830        5.36607967485780
C           13.39783003823238       -1.43796020499078        5.39982710509033
C           12.98022212837983       -1.43638745040366        6.78508315150188
C           11.81065590992988       -2.01751216743226        7.23457185375461
H           11.16403232492200       -2.47159033963628        6.50002309232975
C           11.66341354263892       -1.44571452058114       12.00315716195304
H           10.99596403621524       -1.75985697891784       12.79038250480236
C           15.69032008258366        1.17297141714469       11.80406807769866
H           16.30752521912345        1.66657618890822       12.53738638424242
C           16.05326529726294        0.23374171115523        7.10354322809933
H           16.78209247189122        0.43406088285956        6.33392545819412
C            9.17206487674036       -3.08515802292571       11.34176902267380
H            9.64076931651032       -3.72255533347100       12.09192914685796
H            8.39468444636545       -3.65827050722352       10.84285334885262
H            8.70265632624007       -2.24644417814041       11.85638117238912
C            9.24033713334027       -3.42092501612563        8.10848378345658
H            9.72658962748905       -4.22912833869480        7.56118733953635
H            8.83408812920403       -2.71735452119751        7.38190593869331
H            8.41447040510406       -3.84091395645076        8.67710648216744
C           12.11811721760187       -0.48245412341500       14.87733057940928
H           12.03293644647824       -1.56067744470722       15.01417944743871
H           11.11346222418666       -0.07935934403042       14.74437769777564
H           12.54143683281390       -0.04877017648213       15.77959874336486
C           14.66260735303831        1.39558034485528       14.71875790039396
H           14.66393633036564        0.89452941997303       15.68049556142429
C           15.14926077736632        2.62813881342071       14.63240074665189
H           15.12360595500716        3.19117032625219       13.71452791045327
H           15.57090561864020        3.12878379399438       15.48789975072613
C           18.35125520921637        2.43960503114413       10.95636703757234
H           18.98231895575710        1.76962174000073       11.54203859447096
H           17.79589025009970        3.06868835796373       11.65037096887158
H           18.99330227580453        3.07299228463577       10.34757768542442
C           18.60232922857062        1.74041692975829        7.83165232761321
H           18.29203534823673        1.95368918159014        6.81529376644751
C           19.89325052691829        1.80707399593800        8.13906463494133
H           20.26229207008051        1.55808169666799        9.11852520031101
H           20.63229900670882        2.08717232893054        7.40695557523319
C           15.49827314129535       -0.54593774517978        4.20387334856973
H           16.47654024196141       -1.00304124481924        4.35443794609676
H           15.64252475303923        0.52710116976424        4.07632435524661
H           15.07111690332091       -0.94506810804788        3.28733682807716
C           12.60494191397437       -2.02739985443209        4.28491901049068
H           13.11278391591300       -1.88828025710230        3.33389377431511
H           11.62465695888328       -1.55508192000912        4.22305483291744
H           12.45652238366039       -3.09631878680135        4.44153927650257
O           12.73598234835759        1.41016566745543        9.23712467555712
H           13.47203375804621        1.99835345080039        9.03228916057474
H           12.46650379402331        1.59878325068953       10.14361019083661
C           14.62096901408401       -3.74875105449157        8.78136958781192
H           14.92279944731951       -4.72446849347954        9.14956437864785
H           15.18556896198775       -3.49317406576043        7.89077956121229
H           13.55858741966098       -3.71781646271361        8.56442522939507
S           15.02673956111730       -2.48355800843039       10.03544745869337
H           14.20437384400915       -2.97333761953337       10.97074313131576
