72
 energy: -105.848660244591 gnorm: 0.239672257482 xtb: 6.7.1 (edcfbbe)
Fe          13.72200000000000       -0.35400000000000        9.34600000000000
N           12.01000000000000       -1.32600000000000        9.54100000000000
N           13.70500000000000       -0.10700000000000       11.43400000000000
N           15.49000000000000        0.74600000000000        9.35700000000000
N           13.80200000000000       -0.57600000000000        7.49600000000000
C           11.30000000000000       -1.76200000000000        8.45100000000000
C           10.27700000000000       -2.61800000000000        8.90600000000000
C           10.37300000000000       -2.69700000000000       10.26100000000000
C           11.45700000000000       -1.88900000000000       10.66000000000000
C           12.88200000000000       -0.75300000000000       12.27300000000000
C           13.14800000000000       -0.34500000000000       13.60800000000000
C           14.16000000000000        0.56800000000000       13.55900000000000
C           14.51300000000000        0.71200000000000       12.12700000000000
C           16.10100000000000        1.36200000000000       10.41200000000000
C           17.39700000000000        1.73700000000000       10.02400000000000
C           17.56400000000000        1.33900000000000        8.70600000000000
C           16.35400000000000        0.71200000000000        8.29600000000000
C           14.85100000000000       -0.31300000000000        6.70100000000000
C           14.49900000000000       -0.62500000000000        5.31000000000000
C           13.22900000000000       -1.07100000000000        5.33000000000000
C           12.79800000000000       -1.03200000000000        6.73200000000000
C           11.52800000000000       -1.43000000000000        7.13400000000000
H           10.71600000000000       -1.47900000000000        6.41000000000000
C           11.88900000000000       -1.69400000000000       11.95900000000000
H           11.44700000000000       -2.28600000000000       12.76000000000000
C           15.51900000000000        1.56300000000000       11.65800000000000
H           15.85100000000000        2.39500000000000       12.27800000000000
C           16.11100000000000        0.18000000000000        7.05200000000000
H           16.91900000000000        0.14200000000000        6.32300000000000
C            9.48100000000000       -3.50300000000000       11.17000000000000
H            9.99100000000000       -4.45000000000000       11.44600000000000
H            8.53100000000000       -3.74500000000000       10.64600000000000
H            9.26800000000000       -2.92600000000000       12.09500000000000
C            9.26100000000000       -3.32200000000000        8.04600000000000
H            9.63100000000000       -3.37200000000000        7.00000000000000
H            8.30200000000000       -2.76100000000000        8.06300000000000
H            9.10300000000000       -4.35600000000000        8.42200000000000
C           12.44300000000000       -0.83100000000000       14.84800000000000
H           12.85500000000000       -1.81900000000000       15.14600000000000
H           11.35700000000000       -0.94100000000000       14.64300000000000
H           12.60200000000000       -0.10900000000000       15.67700000000000
C           14.77700000000000        1.27000000000000       14.69800000000000
H           14.82600000000000        0.80300000000000       15.69200000000000
C           15.28500000000000        2.48800000000000       14.53100000000000
H           15.10700000000000        3.04400000000000       13.59900000000000
H           15.89000000000000        2.95400000000000       15.32300000000000
C           18.41700000000000        2.44400000000000       10.88100000000000
H           19.24400000000000        1.74400000000000       11.12700000000000
H           17.94200000000000        2.78600000000000       11.82500000000000
H           18.83300000000000        3.31300000000000       10.32900000000000
C           18.77200000000000        1.52900000000000        7.88300000000000
H           18.70900000000000        1.56900000000000        6.78600000000000
C           19.96000000000000        1.65500000000000        8.46500000000000
H           20.07900000000000        1.45700000000000        9.54100000000000
H           20.84000000000000        1.95900000000000        7.87900000000000
C           15.38500000000000       -0.47500000000000        4.10000000000000
H           16.07800000000000       -1.34100000000000        4.03800000000000
H           15.98100000000000        0.45900000000000        4.18500000000000
H           14.76200000000000       -0.44600000000000        3.18000000000000
C           12.41200000000000       -1.51900000000000        4.14700000000000
H           13.05300000000000       -2.10600000000000        3.45400000000000
H           12.01600000000000       -0.63300000000000        3.60700000000000
H           11.57300000000000       -2.16000000000000        4.49200000000000
O           12.76400000000000        0.96900000000000        9.19700000000000
H           11.88100000000000        0.68300000000000        9.42900000000000
H           13.00300000000000        1.78900000000000        8.95200000000000
C           14.19300000000000       -3.95500000000000        9.90900000000000
H           14.15700000000000       -4.38100000000000       10.93400000000000
H           14.59200000000000       -4.73600000000000        9.22700000000000
H           13.15500000000000       -3.70400000000000        9.60500000000000
S           15.23600000000000       -2.47900000000000        9.84700000000000
H           14.52000000000000       -1.79400000000000       10.72700000000000
72
 energy: -105.904390856844 gnorm: 0.115552650939 xtb: 6.7.1 (edcfbbe)
Fe          13.76937534843092       -0.40346005217230        9.37085085523329
N           12.03454347385426       -1.34572702971925        9.53168865144833
N           13.70108520990158       -0.10510961858516       11.42438785249548
N           15.47682581526235        0.72352203443301        9.34308796802685
N           13.81054595420000       -0.58703448620522        7.49623065779020
C           11.28995950191259       -1.75305156566400        8.46024240395884
C           10.25129172202583       -2.61666828071600        8.90633516792552
C           10.36204435734017       -2.71036679692242       10.26375811511134
C           11.47038205154261       -1.90192326461242       10.64926520305343
C           12.88417540452437       -0.75979001843080       12.28136764268565
C           13.15652563253431       -0.34782071010430       13.62493748817513
C           14.14733945410349        0.59289193545238       13.56337882881279
C           14.48929242046712        0.73100576066488       12.13651578094929
C           16.08367311328642        1.35712410518689       10.38448710876317
C           17.40117244901681        1.74787903247193       10.01252939571534
C           17.58252160472128        1.33305091884279        8.70685052902130
C           16.35734941745600        0.70450307520734        8.30510108020705
C           14.86077080947809       -0.32384360284795        6.68716241074391
C           14.50543273583269       -0.62967980670091        5.30564671976300
C           13.22227834207878       -1.05868776784499        5.32234857064470
C           12.79380828664963       -1.01706869855909        6.71527649148941
C           11.53839622640604       -1.42063029359007        7.13664390355973
H           10.74093955833428       -1.51745579346904        6.41037625970027
C           11.90073839516081       -1.68877379708035       11.94906264232370
H           11.44036748070466       -2.25731649510506       12.74752115780477
C           15.50323415395451        1.54229628903596       11.63941812687711
H           15.89229313712780        2.33328907975459       12.26506956004004
C           16.10147925274604        0.17516695935250        7.05472033615217
H           16.89987511830566        0.16132225122723        6.32491693818453
C            9.48276306572835       -3.50538827560733       11.17315041565770
H            9.97890778510214       -4.44325533182562       11.45007807239486
H            8.54288445109266       -3.74251623210020       10.66538583536609
H            9.26648195632508       -2.94051823930673       12.08545938966982
C            9.25757242301048       -3.32133895474691        8.04208496613181
H            9.61857261306765       -3.37500432224008        7.01086415313886
H            8.30540802300882       -2.77830887316904        8.05655121932659
H            9.09637464943526       -4.34022651249205        8.40942181488196
C           12.44773176041064       -0.83285204339705       14.84832195553633
H           12.84606287350723       -1.80944633224029       15.14944244319792
H           11.37484455705998       -0.93964157910732       14.65433011822424
H           12.59336184258782       -0.12444224684688       15.66860877916142
C           14.77975258911297        1.27985356329934       14.68311425733155
H           14.83579241102805        0.78509051014418       15.65324324315128
C           15.28033841357599        2.50398828138509       14.55198258211485
H           15.11247430178605        3.06865087888860       13.64633806494747
H           15.86669483195096        2.96697508193030       15.33463655136001
C           18.39986833235080        2.44601125018496       10.88539596604353
H           19.21530284875120        1.76417134674537       11.15480288422819
H           17.94152192526949        2.79148361095442       11.81507669451041
H           18.83012304738548        3.29880011827622       10.34573328767114
C           18.77501895027020        1.52745036424487        7.89342671593507
H           18.68460989485467        1.58344527909898        6.80900861869564
C           19.97455338144104        1.65780785977535        8.45176543182852
H           20.11309405423736        1.46996100272995        9.50438382435946
H           20.84619568393639        1.93183609032569        7.87182436183212
C           15.38722054760991       -0.47676121288272        4.10790519122560
H           16.07531070249891       -1.32741032140984        4.03496971065750
H           15.97532855045596        0.44392868268812        4.17824447038104
H           14.77938838857226       -0.44255922410232        3.19752133081893
C           12.41111096890657       -1.51716566211838        4.15230635827436
H           13.03708345664444       -2.09704408312917        3.46441726108011
H           12.01353133595504       -0.65084481019858        3.61013446411164
H           11.58040292257516       -2.14882152695264        4.47918313458559
O           12.75515650938390        0.98627439246497        9.21065544436222
H           11.85437681328204        0.71452710528845        9.43091061349783
H           12.99938732541423        1.85843356359282        8.94482058776542
C           14.17883741287446       -3.96645927349833        9.90824389991945
H           14.16274783489684       -4.37396894708963       10.92475188132320
H           14.58846896254994       -4.72078781414555        9.23077932566702
H           13.16217324750702       -3.70827106040188        9.60132525180062
S           15.23984912689823       -2.49694520380203        9.84056453623825
H           14.54460280032911       -1.80635426250730       10.74465704493815
72
 energy: -105.931873721336 gnorm: 0.059426529682 xtb: 6.7.1 (edcfbbe)
Fe          13.80222735338894       -0.41442375250376        9.40097307089975
N           12.06604061694075       -1.37752690320712        9.52261844742316
N           13.71030490492195       -0.11967885352927       11.41735067823739
N           15.47583694773905        0.68189506950524        9.33610978932568
N           13.82205572220547       -0.60130169141546        7.49696353292326
C           11.29129421032973       -1.75502926495433        8.46865160055369
C           10.22931843558708       -2.61204432779861        8.90838904129384
C           10.35600393325599       -2.72196419978705       10.26549316555442
C           11.49240492613674       -1.92385442139279       10.63800852366866
C           12.89210007353026       -0.77329513095393       12.28936972759651
C           13.16241176851117       -0.34862625555151       13.63680495300769
C           14.13092421014355        0.61873650855300       13.56144207600291
C           14.46971366400314        0.74178945981716       12.14608366617867
C           16.06713431289456        1.34099015160003       10.36540002632005
C           17.39876655939841        1.75446141033980       10.00723791481207
C           17.59545202988941        1.32808655793972        8.71154986804550
C           16.36439088546917        0.68640397497441        8.31406904514107
C           14.87230585675854       -0.34275916063828        6.67347665852957
C           14.51228587385195       -0.63487343596413        5.30138065635728
C           13.21652487798204       -1.04360991764084        5.31586564922673
C           12.79657374346920       -1.01046794855598        6.70094092800652
C           11.55777908100852       -1.42698700369846        7.14323977880150
H           10.77265284736239       -1.57486957287854        6.41424773755759
C           11.91403417989150       -1.68834999398633       11.93805459196553
H           11.42214367406835       -2.22553076756835       12.73579127959104
C           15.49465323622581        1.51103814064742       11.62594306141139
H           15.94997690298472        2.25398752362635       12.26605882949375
C           16.09624869086910        0.16696659915436        7.05746043609374
H           16.88459433449274        0.19015671365852        6.32119942365423
C            9.48521992108309       -3.50777184867313       11.17846515349479
H            9.97154505182271       -4.44081018294521       11.45884229891575
H            8.54951687343449       -3.74291487416901       10.68233759382246
H            9.26795938747781       -2.94920571659102       12.08351049255568
C            9.24909721952321       -3.31534283481886        8.03884164691788
H            9.60873812667922       -3.37355053023223        7.01787972176583
H            8.29648629409397       -2.78924111460888        8.04509411577045
H            9.08721325479411       -4.32625481977474        8.40175440901280
C           12.45283984672371       -0.83461990538402       14.85014743550245
H           12.83986157366156       -1.80637573331634       15.15322712853589
H           11.38787081000377       -0.93825630605284       14.65971543528184
H           12.58955056569219       -0.13554467713908       15.66775262003023
C           14.77451683291479        1.29695020494128       14.66318660360858
H           14.84551060617455        0.76454290968483       15.60718480216402
C           15.27697552475293        2.52481721981634       14.57042751691424
H           15.12455319723596        3.10554997660743       13.68335030620063
H           15.83689258603812        2.98416884972844       15.36086532298044
C           18.37831078702393        2.44951569013878       10.89081296960022
H           19.18382745679115        1.77428405863155       11.17659626463992
H           17.92188015922521        2.80430073636221       11.80629484932762
H           18.82392800995670        3.28940156030289       10.35792233042658
C           18.77506581442581        1.52844129687584        7.90513682785152
H           18.65389972207007        1.59703846331223        6.83052896324067
C           19.99019884859047        1.65520076038682        8.43444420673148
H           20.14996837373251        1.49168240400057        9.47803543642795
H           20.85516962288584        1.89946819574415        7.84913352806576
C           15.39195464394886       -0.47984409117554        4.11194019693624
H           16.07965280353271       -1.31989282690110        4.03386587980840
H           15.97404361621299        0.43408992423256        4.17725392124478
H           14.79229455101864       -0.44202350236995        3.20744413662736
C           12.40816803997452       -1.51021732720241        4.15473528435932
H           13.02812773438868       -2.08661416707020        3.47275541839862
H           12.00457315790277       -0.65901590571024        3.60821339859492
H           11.58467835567892       -2.13832423602735        4.47433951987717
O           12.72822255107029        1.04621232761223        9.21958662948067
H           11.81345727838164        0.79616465336004        9.41695241065664
H           12.96155882034614        1.93736352995777        8.93537213548154
C           14.16708036386525       -3.97916026039571        9.90436048982035
H           14.16592574201452       -4.36944633650450       10.91634279659823
H           14.58352301193267       -4.71486193474828        9.22863143029203
H           13.16598570034832       -3.71017194535211        9.59670184717084
S           15.24942067820887       -2.51348610544120        9.83025921061280
H           14.58758263105581       -1.82556508688333       10.77458315658137
72
 energy: -105.946144504988 gnorm: 0.047655632289 xtb: 6.7.1 (edcfbbe)
Fe          13.81428504260427       -0.41098597473968        9.42090973540415
N           12.08795517948129       -1.40472901635421        9.51910895455719
N           13.71441865918191       -0.12985600368268       11.41230655241157
N           15.48059428447571        0.64235804562993        9.33616537329101
N           13.83169995260781       -0.60804894979874        7.49359377092707
C           11.30227989731237       -1.76678740193130        8.47252971990122
C           10.22002572544504       -2.60879529683082        8.91200036429497
C           10.35604093065679       -2.72897904568753       10.26663022712330
C           11.50943407048254       -1.94230609740816       10.63305748375304
C           12.89679955982613       -0.78179110104078       12.29304943768737
C           13.16304987217073       -0.34553430517624       13.63916151592661
C           14.11789215527736        0.63656454564056       13.55381226046912
C           14.45950004188268        0.74233923674743       12.14850374206594
C           16.05981671550790        1.31477439519025       10.36155018014214
C           17.39153653975051        1.75078740843492       10.00856600347378
C           17.59981714207323        1.32184620666270        8.71860549464276
C           16.37126194630642        0.66537048065853        8.31816744929035
C           14.88136258612876       -0.35447705578866        6.66320264708949
C           14.51839155573865       -0.63764262234235        5.29657843786697
C           13.21620813976615       -1.03397128867274        5.31120368912000
C           12.80447952681306       -1.01258092673177        6.69310748797278
C           11.57824253296289       -1.45003289531666        7.14806652089239
H           10.80423033329406       -1.64402675497750        6.41624945965746
C           11.91983663527400       -1.69094836317218       11.93231321402315
H           11.39636972093227       -2.19931952495036       12.72973796372336
C           15.50404825408623        1.47449582429531       11.62443509607611
H           16.01336966570607        2.17052154951094       12.28056778931633
C           16.09859346527275        0.16213698000536        7.05634581689825
H           16.87847736130281        0.22218206075594        6.31169929264476
C            9.48829760692924       -3.50995012667320       11.18615294912291
H            9.97138303312283       -4.44276069726702       11.47234567383424
H            8.54977396194760       -3.74694765064722       10.69640033884866
H            9.27130148068261       -2.94987321969327       12.09017838220064
C            9.23873095895501       -3.30616440791601        8.03797733960257
H            9.60124134812390       -3.36772921034102        7.01864308922707
H            8.28158966931349       -2.78817164139885        8.03445742962799
H            9.07389489412312       -4.31736889370472        8.39927106402056
C           12.45700364895772       -0.83547339860737       14.85219749672877
H           12.83820356046453       -1.80974095828988       15.15419289812879
H           11.39198882245651       -0.93653436401437       14.66300042994405
H           12.59196510675702       -0.14160125535758       15.67448973164015
C           14.76852771482079        1.31437904335233       14.64762122950899
H           14.85134750906437        0.74947851023404       15.57100236675108
C           15.26706909029789        2.54722007596228       14.59117944981005
H           15.12697099258602        3.15577774403754       13.71806737044358
H           15.80450793932576        2.99725715275627       15.40356009547580
C           18.35328626543568        2.45574527410142       10.89905794154097
H           19.14714198989182        1.77869313496169       11.21379802268501
H           17.88274841040114        2.83083610419459       11.79952306698596
H           18.81814097265561        3.28415523867567       10.36491806063988
C           18.77369574633792        1.53040273358185        7.91018962765781
H           18.62425108684034        1.60493080628202        6.84040221080612
C           20.00335475347059        1.65583496033794        8.40813446829853
H           20.19629825618973        1.50739509611567        9.45067258654636
H           20.86340330885913        1.86116401486087        7.79785545564157
C           15.40012926710463       -0.48251525707716        4.11030625718993
H           16.09222364990838       -1.31844805964750        4.03310326426615
H           15.97946537956437        0.43281397593036        4.17644861487806
H           14.80318068876893       -0.44488163355655        3.20507213266991
C           12.40431052753618       -1.50028780123257        4.15321946615720
H           13.02403737794740       -2.07635460734498        3.47198262398085
H           11.99222054181033       -0.65576313996521        3.60320783801689
H           11.58331361227551       -2.13033833637457        4.47459433551843
O           12.69757372917691        1.11744438673795        9.22826930979295
H           11.77073357128198        0.89409188738402        9.39201004300857
H           12.91591017095618        2.01309023730272        8.92611188890551
C           14.16221116927685       -3.98939567712425        9.89731254607009
H           14.16661425026595       -4.37216838927919       10.90978999268574
H           14.57807708479799       -4.72014413633313        9.21824374713159
H           13.16608088532449       -3.70703867135057        9.58929825208175
S           15.26664191210382       -2.53076916536822        9.82392765380513
H           14.65014056156880       -1.85285378717435       10.81558757748062
72
 energy: -105.955767252155 gnorm: 0.036361687178 xtb: 6.7.1 (edcfbbe)
Fe          13.81789037705974       -0.41055851415740        9.43364354683762
N           12.10264239332044       -1.42721520171349        9.51987340482434
N           13.71578700471169       -0.13935905545937       11.41059693749780
N           15.48750885770043        0.61159160351966        9.34181938860082
N           13.84028742440810       -0.61097692086151        7.48580196609011
C           11.31766251582857       -1.78470224527833        8.47349046319440
C           10.21907311797452       -2.61054725559401        8.91629194891311
C           10.35712772895390       -2.73364591806415       10.26812391573097
C           11.51796715894882       -1.95394862860000       10.63354334130151
C           12.89619966286169       -0.78539032715774       12.29584491958713
C           13.15968672607388       -0.34167613273540       13.63879145277063
C           14.11065466480806        0.64325624591340       13.54724085218336
C           14.45751687345997        0.73299742235494       12.14889855953634
C           16.06238994243454        1.28512972549986       10.36881229595036
C           17.38653818198845        1.74213186388747       10.01240776500478
C           17.59922721753610        1.31966062319340        8.72467158180017
C           16.37511534806222        0.65152337805456        8.31890850386816
C           14.88793584378516       -0.35680900107687        6.65371637061656
C           14.52386970316804       -0.63684555446661        5.28926074839926
C           13.22024644335842       -1.03088032897411        5.30552982763903
C           12.81479129630048       -1.02079223095890        6.68759108531874
C           11.59954758899003       -1.48556066948534        7.14989371697105
H           10.83750490711343       -1.71678265677191        6.41747465550017
C           11.91566138371965       -1.69084111337628       11.93213735584424
H           11.37097503294705       -2.17917288572515       12.72652259258478
C           15.52856677236886        1.43222241171092       11.63611627553676
H           16.06674573618846        2.08553156216704       12.30626137968334
C           16.10281990363835        0.16618362906956        7.05214803424306
H           16.87647888573818        0.25145748143965        6.30371188376636
C            9.49097843130318       -3.51065988192547       11.19525779802698
H            9.97584641909889       -4.44208488584967       11.48863049875978
H            8.54949905706242       -3.75336402834529       10.71025689395573
H            9.27426607808710       -2.94524800040135       12.09831978288895
C            9.22898468952221       -3.29694162439114        8.03973041881120
H            9.59279872909896       -3.36095031677790        7.01903062358018
H            8.27196889858244       -2.77608331418226        8.03019555555326
H            9.05580641102817       -4.30955483673045        8.39915810977614
C           12.45838249173609       -0.83498982664697       14.85465807636051
H           12.83685396596947       -1.81401455526515       15.15035093454315
H           11.39067120158579       -0.93178822667476       14.66934766902560
H           12.59914856133155       -0.14656924241456       15.68276467631399
C           14.76060340715392        1.33048615288370       14.63819224079675
H           14.85257031534959        0.74542538274252       15.54679842373576
C           15.24810902451518        2.56739382973353       14.60988102327096
H           15.12257782128678        3.20184951767944       13.74872323739236
H           15.76832931527473        3.00362069990693       15.44464662907760
C           18.33428799535915        2.46199772829834       10.90382769427288
H           19.11486061410565        1.78228774098486       11.25152412766301
H           17.84305480255701        2.86649873575190       11.78469045449575
H           18.81699392861007        3.27644479284053       10.36341084408861
C           18.77130882239278        1.52690578393641        7.90959610196559
H           18.59886451308613        1.60393330508733        6.84300865299337
C           20.01217946240930        1.64299248533855        8.37810450053542
H           20.23430704604007        1.52905474570311        9.42460120430455
H           20.85863805981923        1.83311392121714        7.74244230144383
C           15.41016550024174       -0.48319516342235        4.10489925733178
H           16.10828141403514       -1.31654244111998        4.03402735250237
H           15.98692377861774        0.43585852460003        4.17166164571274
H           14.81711898993106       -0.45079378260024        3.19562747585840
C           12.40158333766446       -1.49043308950144        4.14836940407144
H           13.01940622034239       -2.06470233670152        3.46198522014371
H           11.98170385162251       -0.64638492860011        3.60144137794931
H           11.58176903710997       -2.12348514944537        4.47330938700018
O           12.66734476637946        1.19674640166823        9.24111592176548
H           11.72592361310592        1.00683810516077        9.35428608767088
H           12.86739476933761        2.08680504121983        8.91451179230172
C           14.16336289160578       -3.99844021186655        9.88963212814389
H           14.16384761139024       -4.38381206716359       10.90110192657566
H           14.57177948813234       -4.72991388641706        9.20482019481570
H           13.16975755164885       -3.70152117480998        9.58126144587469
S           15.28879354480079       -2.55020688472695        9.82514735931837
H           14.72353487821997       -1.89255434512683       10.86552877953676
72
 energy: -105.962030879706 gnorm: 0.025855221677 xtb: 6.7.1 (edcfbbe)
Fe          13.81429524494751       -0.41015728492790        9.43901106252216
N           12.11047452914061       -1.44194135080009        9.52377178159247
N           13.71645075201237       -0.15122477061595       11.41335647952353
N           15.49583489057633        0.59350030555340        9.34962016004849
N           13.84720935449670       -0.61186362062609        7.47645009843961
C           11.33405342030301       -1.80614562806728        8.47252765786976
C           10.22510546045188       -2.61925851081793        8.91961765827842
C           10.35738807442000       -2.73630557877399       10.27016672609388
C           11.51855698661197       -1.95865761359799       10.63780014308624
C           12.89106546059817       -0.78656394806878       12.29881432737634
C           13.15207282523997       -0.33833157802292       13.63883069107651
C           14.10936623629475        0.63893733114138       13.54506064733835
C           14.46321170411652        0.71501128492151       12.14885513857206
C           16.07400106045058        1.25802543264984       10.38158170070830
C           17.38762917174235        1.73103485493148       10.01720618503869
C           17.59742974702007        1.32168450893517        8.72741974244463
C           16.37735027055554        0.64551316965496        8.31822153275788
C           14.89200955020655       -0.35119531381476        6.64646569019792
C           14.52878968476782       -0.63268478338902        5.28081709987502