78
 energy: -115.974072625201 gnorm: 0.248837505002 xtb: 6.7.1 (edcfbbe)
Fe          11.56600000000000       -2.61900000000000        1.56200000000000
N           12.18500000000000       -0.97100000000000        2.55400000000000
N            9.85000000000000       -2.62700000000000        2.66400000000000
N           10.94400000000000       -4.25000000000000        0.55600000000000
N           13.25100000000000       -2.52500000000000        0.37600000000000
C           13.34600000000000       -0.26500000000000        2.30400000000000
C           13.33100000000000        0.93900000000000        3.10600000000000
C           12.18600000000000        0.95200000000000        3.82600000000000
C           11.44100000000000       -0.25300000000000        3.48800000000000
C            9.51600000000000       -1.74000000000000        3.67300000000000
C            8.33400000000000       -2.22900000000000        4.34900000000000
C            7.95300000000000       -3.36300000000000        3.73300000000000
C            8.91500000000000       -3.63800000000000        2.68100000000000
C            9.77300000000000       -4.93600000000000        0.79100000000000
C            9.60200000000000       -5.92000000000000       -0.26400000000000
C           10.67300000000000       -5.85400000000000       -1.08900000000000
C           11.53600000000000       -4.81400000000000       -0.56600000000000
C           13.57200000000000       -3.46100000000000       -0.60400000000000
C           14.91600000000000       -3.21400000000000       -1.08000000000000
C           15.41600000000000       -2.04000000000000       -0.28200000000000
C           14.33200000000000       -1.66700000000000        0.59000000000000
C           14.36800000000000       -0.61900000000000        1.46700000000000
H           15.27900000000000       -0.02100000000000        1.50200000000000
C           10.21400000000000       -0.61000000000000        3.99900000000000
H            9.76000000000000        0.06500000000000        4.72500000000000
C            8.88400000000000       -4.71300000000000        1.82300000000000
H            8.09300000000000       -5.44800000000000        1.97000000000000
C           12.74000000000000       -4.42800000000000       -1.09900000000000
H           13.06500000000000       -4.94100000000000       -2.00400000000000
C           11.70800000000000        2.03000000000000        4.82500000000000
H           12.46400000000000        2.84200000000000        4.88400000000000
H           11.58400000000000        1.57900000000000        5.83300000000000
H           10.74300000000000        2.46000000000000        4.48000000000000
C           14.44900000000000        2.00800000000000        3.09300000000000
H           14.92800000000000        2.03200000000000        2.09100000000000
H           15.21800000000000        1.75600000000000        3.85400000000000
H           14.01500000000000        3.00800000000000        3.30900000000000
C            7.64500000000000       -1.50800000000000        5.51900000000000
H            7.79700000000000       -0.41200000000000        5.42000000000000
H            8.08600000000000       -1.84700000000000        6.48100000000000
H            6.55500000000000       -1.72400000000000        5.50300000000000
C            6.77600000000000       -4.29700000000000        4.05900000000000
H            6.31200000000000       -4.87800000000000        3.24900000000000
C            6.27400000000000       -4.44900000000000        5.28400000000000
H            6.69700000000000       -3.89400000000000        6.13400000000000
H            5.43000000000000       -5.13200000000000        5.46100000000000
C            8.38000000000000       -6.84600000000000       -0.38900000000000
H            7.45800000000000       -6.27900000000000       -0.14000000000000
H            8.48100000000000       -7.69800000000000        0.31700000000000
H            8.30000000000000       -7.22300000000000       -1.43100000000000
C           10.96500000000000       -6.64500000000000       -2.38500000000000
H           11.41700000000000       -6.10900000000000       -3.23200000000000
C           10.71500000000000       -7.93800000000000       -2.57100000000000
H           10.26400000000000       -8.54000000000000       -1.76900000000000
H           10.95600000000000       -8.42100000000000       -3.52900000000000
C           15.69000000000000       -4.02200000000000       -2.13600000000000
H           15.23800000000000       -3.85300000000000       -3.13700000000000
H           15.63600000000000       -5.10500000000000       -1.89400000000000
H           16.75000000000000       -3.69100000000000       -2.15900000000000
C           16.79600000000000       -1.38100000000000       -0.37600000000000
H           17.26500000000000       -1.64000000000000       -1.34900000000000
H           17.44500000000000       -1.75000000000000        0.44700000000000
H           16.69000000000000       -0.27700000000000       -0.31000000000000
O           10.61100000000000       -1.44100000000000        0.28500000000000
H           10.90100000000000       -0.55000000000000        0.48000000000000
H           10.03000000000000       -1.67900000000000       -0.34500000000000
C           14.80000000000000       -6.46400000000000        4.07600000000000
H           14.33800000000000       -7.45500000000000        4.27100000000000
H           15.35400000000000       -6.14100000000000        4.98300000000000
H           15.49800000000000       -6.55500000000000        3.21700000000000
N           12.71600000000000       -5.15700000000000        4.63400000000000
H           12.59800000000000       -5.56900000000000        5.53700000000000
C           13.73000000000000       -5.46800000000000        3.75500000000000
C           11.93800000000000       -4.23300000000000        4.08400000000000
H           11.05100000000000       -3.81300000000000        4.55700000000000
N           12.42600000000000       -3.92500000000000        2.88800000000000
C           13.51800000000000       -4.71700000000000        2.64500000000000
H           14.04600000000000       -4.67300000000000        1.70100000000000
78
 energy: -116.026704449493 gnorm: 0.099938273935 xtb: 6.7.1 (edcfbbe)
Fe          11.57110899406102       -2.64194864437938        1.57799579241244
N           12.17432221178215       -0.96375091998247        2.54203726535344
N            9.85496978716627       -2.64293334467506        2.67686690822340
N           10.93739588812709       -4.24642025855257        0.53997641380905
N           13.25282213792128       -2.54044383844766        0.39451867419661
C           13.33457696053621       -0.26617201045439        2.31280034948729
C           13.33798022685545        0.94600996438753        3.11049748693824
C           12.18492538657496        0.95902317432526        3.82856865002214
C           11.45295716534696       -0.24683069981394        3.47231415804428
C            9.51386091735704       -1.75896798812749        3.67034280437236
C            8.31984447198413       -2.22555321780266        4.34828903382899
C            7.94293855673518       -3.38588109272099        3.73941752784585
C            8.91528033797993       -3.63662108870190        2.68460632847493
C            9.77981729589466       -4.93757279087312        0.76951728781726
C            9.60176539629972       -5.93879342906947       -0.26819809263760
C           10.67623858308149       -5.85870628531358       -1.10579069199500
C           11.52281522052636       -4.79930653917158       -0.57572302164498
C           13.58880394675431       -3.43105325941146       -0.59672955719231
C           14.93451963742016       -3.18203094115967       -1.05959444072420
C           15.40679037079884       -2.07578237061554       -0.30839104960338
C           14.33055999234674       -1.70325742705707        0.57483214933996
C           14.35997661583335       -0.63667147436752        1.46172971424253
H           15.26319449075121       -0.03433576602640        1.48987330973563
C           10.22266624229134       -0.61416260190266        3.99141886112311
H            9.77798281640958        0.05372341615882        4.72335256777651
C            8.89014409759861       -4.71110902827753        1.81316494445292
H            8.09621683524152       -5.43655562439040        1.95417609285432
C           12.74460035296435       -4.41526963226143       -1.09735808923808
H           13.07746960992255       -4.94349457244894       -1.98574533947138
C           11.71367707172296        2.01400325923930        4.81036145614265
H           12.44951778569402        2.82154450374811        4.88184511704584
H           11.58318008326005        1.58255189622165        5.80938265393059
H           10.75927921148532        2.44573608122199        4.48650352332075
C           14.43510173376299        1.99339866033982        3.09203298743074
H           14.91592834034992        2.03134809532195        2.10928051899500
H           15.20076322357845        1.75984135653674        3.84131429377738
H           14.02343850354688        2.98481800048711        3.30780804092402
C            7.65153093065201       -1.51100703497088        5.50128594690989
H            7.79414183841945       -0.42861143335369        5.42023307230503
H            8.07717967690226       -1.83901524153095        6.45863932369813
H            6.57696036246253       -1.72105725312082        5.50223486566077
C            6.79453157651785       -4.28105297866688        4.06122769263833
H            6.34851454991129       -4.85190752930935        3.24693015936762
C            6.28251542296268       -4.43915383349329        5.27782041486616
H            6.69007232548588       -3.91318431657485        6.13151316979425
H            5.44972177138773       -5.11365068135901        5.45683783103044
C            8.39161810456264       -6.83647579416120       -0.38731230366114
H            7.47590371289674       -6.28666771163521       -0.14248893900534
H            8.47879861388849       -7.68423518628195        0.30271678499185
H            8.30540067480194       -7.21679323564217       -1.41004275592866
C           10.95881683074940       -6.63199783832021       -2.35898968584263
H           11.41108299621406       -6.08764602342410       -3.18906571939489
C           10.70939944891792       -7.92270363328189       -2.55370569100249
H           10.27363568477575       -8.53852142340569       -1.77639515077602
H           10.94634207309094       -8.40579864050658       -3.49896297116204
C           15.67490069858411       -3.99274728597115       -2.10791401627228
H           15.24093472114982       -3.84747709697602       -3.10747665915280
H           15.63228536445430       -5.06829792899460       -1.88767599427587
H           16.72731905582260       -3.69491113869133       -2.15271759349084
C           16.76333622008070       -1.40551252247191       -0.38419373775019
H           17.25460682408950       -1.63910043763546       -1.33438411288833
H           17.42054172198231       -1.74564132557047        0.42873204194122
H           16.67978340436734       -0.31290699421073       -0.31115243487823
O           10.62270808055153       -1.42305721051292        0.28196462351312
H           10.88624787100886       -0.51998301951587        0.45803064398807
H           10.00212278187795       -1.66273533713345       -0.38273779665462
C           14.79632189039681       -6.46996488305932        4.07890889306728
H           14.35212477109717       -7.45258743954943        4.27221292787841
H           15.35244148814161       -6.15453847840743        4.96921356490155
H           15.48631219147476       -6.55343466164768        3.23551171049803
N           12.72892397836087       -5.16727613132579        4.64054585522945
H           12.60557350280497       -5.58018366197410        5.54784327855566
C           13.73371999311750       -5.47922290294552        3.75984649663915
C           11.95285239262804       -4.22917416517300        4.07872750712558
H           11.07556139310599       -3.81217722240988        4.54409612907510
N           12.41823553871492       -3.92369073654323        2.88589441818490
C           13.51377910290749       -4.70677497172359        2.65930787682127
H           14.03876991871823       -4.66149822050181        1.72264570404385
78
 energy: -116.042336706826 gnorm: 0.035293119456 xtb: 6.7.1 (edcfbbe)
Fe          11.57511307270065       -2.65775906755319        1.58466426870842
N           12.17304202085973       -0.96709140861990        2.53988918218371
N            9.86595749011988       -2.65998294204469        2.68732942096072
N           10.93110069214521       -4.23910479983069        0.52699541850268
N           13.25772545650376       -2.56279998337393        0.41570726223304
C           13.32592432351918       -0.27387968480125        2.31650763303721
C           13.34208540423459        0.94348947694465        3.10821188749979
C           12.18171264144806        0.95649011370818        3.82373957000685
C           11.46193423867238       -0.25053567109150        3.45765628527717
C            9.52055751032201       -1.77769083286243        3.66661114989810
C            8.32084547969242       -2.22424396444185        4.34541768984614
C            7.94605855483990       -3.40212317309164        3.74298691072916
C            8.92449562114354       -3.63968756483902        2.68817777412453
C            9.78480943108680       -4.93392063047610        0.75317822831091
C            9.60340121054088       -5.94741931738213       -0.26745524833849
C           10.67974235468711       -5.85432550957405       -1.11368961094944
C           11.51184848406252       -4.78034974770325       -0.58095736569153
C           13.59601429586777       -3.42235123659403       -0.58173406920939
C           14.94324093724396       -3.15795412868015       -1.04303197692691
C           15.39516309447728       -2.10632659605502       -0.32492214894770
C           14.32499698717695       -1.73530090746081        0.57687093513311
C           14.34956984330706       -0.65650529028222        1.45850089063389
H           15.24476281477308       -0.04900124243187        1.47371145922751
C           10.23318751671808       -0.62458807983011        3.98381189763424
H            9.79865421273735        0.03555744867224        4.72323093994508
C            8.89688462532094       -4.70764584321242        1.80294076064915
H            8.09448516122838       -5.42124169112272        1.92997327530988
C           12.74900168921381       -4.40965537591096       -1.08950668304992
H           13.09352449769964       -4.95082419236453       -1.96162986986259
C           11.71588830679451        1.99331015420427        4.79374157100680
H           12.44277434396751        2.79807593930040        4.87154915624777
H           11.58188080736514        1.56898259951332        5.78787207206839
H           10.76506130902923        2.42474572993935        4.48222170945558
C           14.42261693671728        1.97538243772796        3.09135280493522
H           14.90305442832277        2.02161664247707        2.11758434686743
H           15.18767652009298        1.75151396725092        3.83508911834919
H           14.01961571749593        2.96147861503891        3.31137529492092
C            7.65932086664465       -1.51416342156782        5.47972139477831
H            7.79819786952209       -0.43861788748134        5.40641161519162
H            8.07690344062317       -1.83666695752724        6.43547085217850
H            6.59212425717795       -1.72381473278095        5.49037208669428
C            6.82448476366664       -4.26404426364557        4.05909845348312
H            6.39540530832728       -4.82571806469996        3.23662455990180
C            6.29810111571155       -4.43037054375433        5.26989377220027
H            6.69078208445641       -3.92913963378828        6.13500093320186
H            5.46401202176514       -5.09125343419714        5.44221994481319
C            8.40688920571558       -6.82993945380749       -0.38501776641996
H            7.49707093386932       -6.28448516748744       -0.14166805769901
H            8.48190707146725       -7.67727986932874        0.29665744973032
H            8.31780430341361       -7.21207383746771       -1.39873872121308
C           10.95675950464149       -6.61010182672827       -2.32531815529749
H           11.41536247973616       -6.05637392903833       -3.13854700922588
C           10.70310223238412       -7.89983524308016       -2.52920744736092
H           10.27882718383545       -8.53157637346365       -1.76957637742917
H           10.93377952555900       -8.38027702184092       -3.46810931014598
C           15.66061307747110       -3.96401725159582       -2.08403213223499
H           15.22396509147088       -3.82445522581381       -3.07530357756514
H           15.61480609740660       -5.03151191998992       -1.86082260514424
H           16.70937077115882       -3.68158542303551       -2.13809527877407
C           16.73205110389716       -1.42956421690759       -0.39166049332187
H           17.23417523236782       -1.65175504618353       -1.33052149287874
H           17.38377921990257       -1.75804790040601        0.42176843123739
H           16.64220110787841       -0.34569137140278       -0.31329568348598
O           10.63412482018069       -1.39929977293808        0.25233096610791
H           10.84410321539139       -0.47598484910886        0.41117811748581
H            9.97966602508068       -1.62508984025642       -0.40967172989219
C           14.79498106681537       -6.47603671803422        4.07901567741937
H           14.36124743780898       -7.45479560880354        4.27300579069661
H           15.35291117433686       -6.16622975199336        4.96123579295311
H           15.48031151410578       -6.55527028487980        3.24321054450687
N           12.73944343713011       -5.17371064796956        4.64719594468499
H           12.61141116738338       -5.58706057208004        5.55638152862206
C           13.73632307764900       -5.48645910330357        3.76277396397639
C           11.96646484895522       -4.22344949223525        4.07801462972207
H           11.09881319985276       -3.80560879089051        4.54222671394392
N           12.41564430622195       -3.91460471318229        2.88689678585400
C           13.51077415524999       -4.69705534950752        2.67103405106324
H           14.04057665163934       -4.64931873094345        1.74287389691522
78
 energy: -116.047082797509 gnorm: 0.024415876739 xtb: 6.7.1 (edcfbbe)
Fe          11.57441621117604       -2.65601817650413        1.57883044375980
N           12.17379343934545       -0.97382081130434        2.53575355514607
N            9.87870753517071       -2.66782514566859        2.68669318232519
N           10.92514919806506       -4.22700731451113        0.52405440383586
N           13.25958487538321       -2.58204387046626        0.43477243971179
C           13.32431675926181       -0.28344049640806        2.31769151695353
C           13.34123495828676        0.93366587888412        3.10443296334316
C           12.17971547059092        0.94614302636902        3.81681571004731
C           11.46567791431163       -0.26008259104865        3.45153942947351
C            9.53451516591835       -1.78768011815696        3.66481629268811
C            8.33705123740924       -2.22678331035516        4.34251808253498
C            7.96333826209118       -3.40684936597773        3.74366389108185
C            8.93579931926115       -3.64246742632677        2.68687809902673
C            9.78255126587699       -4.92520411477189        0.74902739007750
C            9.60484090511743       -5.94426328116884       -0.26002778957361
C           10.68083549656593       -5.84562856934876       -1.10495425903713
C           11.50558460679648       -4.76838394610578       -0.57733833975259
C           13.58905747611560       -3.43363526795898       -0.56884453702054
C           14.93328093112407       -3.16528672924104       -1.03862541209439
C           15.38880891348044       -2.11138542913290       -0.31503176318268
C           14.31990678182690       -1.75027904085983        0.59470435530908
C           14.34643518782188       -0.66889217120163        1.46349950857982
H           15.23648506446779       -0.05614515395839        1.46338365552813
C           10.24370502241164       -0.63553740048095        3.98400369406692
H            9.81742068634070        0.01727019729690        4.73272606000891
C            8.89573354764166       -4.70196279173001        1.79532271773328
H            8.08319849132507       -5.40576379884056        1.90727049694494
C           12.74764834386920       -4.41439133446878       -1.08094261644421
H           13.10514289615943       -4.96941143376055       -1.93848701803583
C           11.70987502537905        1.97597312023138        4.78492400765310
H           12.43542532800819        2.78132598642385        4.86478172740906
H           11.57565122397052        1.54574977096511        5.77638684436633
H           10.75713427684410        2.40303906184554        4.47349094269184
C           14.41915836970105        1.96213173578744        3.09093833711996
H           14.89776898072576        2.01294164765144        2.11659307026227
H           15.18455063600091        1.73507834535921        3.83338114543609
H           14.01459448334198        2.94601036609007        3.31807055304005
C            7.66789298331463       -1.51229010284128        5.46387702542027
H            7.80395914493733       -0.43681782006327        5.38471582226829
H            8.08120336551826       -1.82957897348343        6.42309728471407
H            6.60180813773044       -1.72780545127902        5.46979852051667
C            6.84365629639097       -4.25951186820639        4.05425902179698
H            6.42699142360493       -4.81712271471867        3.22350046202752
C            6.30563816719140       -4.42623445674033        5.26033620975492
H            6.70083401429966       -3.94555005539061        6.13739708094425
H            5.46524142474767       -5.07968379085106        5.42151291533402
C            8.41469581270057       -6.82854749104299       -0.38038398649412
H            7.50501977921225       -6.28223207010462       -0.13895603564773
H            8.48710170511505       -7.67737145076089        0.29985109174493
H            8.33097855285760       -7.21071593951403       -1.39465811564949
C           10.96254995110495       -6.59395091974351       -2.30673759100813
H           11.43419855691889       -6.03397365134066       -3.10743438103063
C           10.69968861831731       -7.88122954449399       -2.51215819049958
H           10.27861013309976       -8.51612958874958       -1.75317516737899
H           10.92590390293270       -8.35979417336235       -3.45065366997812
C           15.64557332048974       -3.95834898065469       -2.08081506055622
H           15.19868759003921       -3.80944992466335       -3.06379381892028
H           15.59727059898336       -5.02166145830587       -1.84879631268987
H           16.69231520223929       -3.67112314739931       -2.13348666622649
C           16.71685862765244       -1.43540388417606       -0.38882005647939
H           17.21602225118839       -1.66233483497445       -1.32730178965399
H           17.36124184800514       -1.76445673415764        0.42786453115851
H           16.61127425229246       -0.35505688238810       -0.31414229910239
O           10.65479593849720       -1.37245866524711        0.19724371705472
H           10.78788621751732       -0.43088997100864        0.37500800113388
H            9.95309902296292       -1.58468249227630       -0.42915945312390
C           14.79520812215558       -6.48168207341279        4.07671718982241
H           14.36290051671667       -7.46151130756725        4.27038459237778
H           15.35754832606989       -6.17748251996026        4.95831088147096
H           15.47932231801944       -6.56042430959607        3.23992763502483
N           12.74718267451288       -5.17130680034736        4.65346474793699
H           12.61788985466030       -5.58583945149413        5.56226370340525
C           13.73971325327138       -5.48617604778031        3.76516706859566
C           11.97794166661611       -4.21419827679570        4.08586520009438
H           11.11795347890148       -3.78941445048922        4.55626655143444
N           12.41957421613924       -3.90528218876340        2.89133579613202
C           13.51536872328233       -4.68887598356351        2.67847756634486
H           14.05330572260851       -4.63653959943914        1.75611719691658
78
 energy: -116.049824687127 gnorm: 0.047282945171 xtb: 6.7.1 (edcfbbe)
Fe          11.57736014110791       -2.65248098264608        1.57410004813338
N           12.17589363694929       -0.98334529535840        2.52798339668899
N            9.89178621839176       -2.66846592995696        2.67373107607157
N           10.92052983597316       -4.20992380600477        0.52580562946184
N           13.25340503707148       -2.60213702828152        0.45895566352119
C           13.32425925467113       -0.29385194551041        2.31576571354658
C           13.34102163537293        0.92057642449541        3.09991413344393
C           12.17894362226446        0.93217221089863        3.80884642969993
C           11.46903015074549       -0.27165442234101        3.44354222785617
C            9.55151399843142       -1.79508186369970        3.65895828228564
C            8.36081456454276       -2.23059992942354        4.33827599939018
C            7.98606406604135       -3.40941644124594        3.74135912768736
C            8.94832836768266       -3.64179070704400        2.68030578323282
C            9.77856712007444       -4.91232385517830        0.74634010446347
C            9.60819194766712       -5.93741414394882       -0.25021210803872
C           10.68570823317938       -5.83528355098892       -1.09071663174861
C           11.50238040599912       -4.75656856456401       -0.56738672375471
C           13.57836821133360       -3.44859217306052       -0.54866346683845
C           14.91746706654646       -3.17461212381194       -1.02863988538409
C           15.37568159414922       -2.11826218387438       -0.30066653374905
C           14.30917984312951       -1.76614323571286        0.61549611616363
C           14.34477838802675       -0.68167016422423        1.46720754447335
H           15.23267941133193       -0.06818460399318        1.45161828748468
C           10.25634117221279       -0.64739343159470        3.98596705237453
H            9.84042938243963       -0.00494468469698        4.74780207330889
C            8.89025988065037       -4.69239895991585        1.78470587840881
H            8.06919898243201       -5.38709411910552        1.88242752407569
C           12.75027744871200       -4.42552372170173       -1.06528261118911
H           13.11937063744767       -4.99144474486687       -1.90880336515423
C           11.69953746958056        1.95528670440650        4.77780800845676
H           12.42059401675621        2.76481166892121        4.86236625660808
H           11.56481370268745        1.51670043175863        5.76658253928164
H           10.74351849464389        2.37516372639840        4.46381566033142
C           14.41944106802121        1.94729564732852        3.09101959813641
H           14.89377130730845        2.00570631256766        2.11407393548394
H           15.18744191646000        1.71135654794505        3.82927810316381
H           14.01382608947960        2.92908854462521        3.32995565660162
C            7.68019440780986       -1.51002407761966        5.44718978748786
H            7.80953235595380       -0.43362013193251        5.35540967229795
H            8.08738129316948       -1.81499725131519        6.41386396710254
H            6.61493875708160       -1.73501853886928        5.44388674158649
C            6.86496974840709       -4.26069838444752        4.04721021877826
H            6.45328901394069       -4.80714252278596        3.20678863152211
C            6.31913700750296       -4.43039135248640        5.24890514178495
H            6.70524386408716       -3.95508266101907        6.13341825660495
H            5.46506826968644       -5.07013366830301        5.39520259376906
C            8.42318537192595       -6.82731298966462       -0.37395543810431
H            7.51016261736360       -6.28331779723408       -0.13580428648396
H            8.49517381236268       -7.67782344084000        0.30567767918868
H            8.34715010495922       -7.20919884192462       -1.39011847692861
C           10.97747978945397       -6.58005482865444       -2.28959345469300
H           11.46064497607041       -6.01389428642541       -3.07855329278834
C           10.69954592533352       -7.86383769770342       -2.49497340762557
H           10.26680066895694       -8.49247459259160       -1.73669569392895
H           10.92253562420350       -8.34313697433295       -3.43293201712433
C           15.62416598508088       -3.95434272554012       -2.07917628607738
H           15.16649738875547       -3.79729000876998       -3.05497095038465
H           15.57944048128459       -5.01712043103911       -1.84828505309219
H           16.66941464218375       -3.66113696921803       -2.13684452423769
C           16.69756841874218       -1.44126894003218       -0.38258755821250
H           17.19629324261336       -1.67598170571146       -1.31975691854658
H           17.33970069090589       -1.76262380502499        0.43830588306334
H           16.58055420969461       -0.36245065943722       -0.31879733070994
O           10.70737254770210       -1.33631381985611        0.09727765438652
H           10.69311211720526       -0.37545830566146        0.34067212553416
H            9.89225211191568       -1.51753421516409       -0.42977626989075
C           14.79781749546041       -6.48882123499941        4.07410403546252