78
 energy: -116.058078168346 gnorm: 0.000060198051 xtb: 6.7.1 (edcfbbe)
Fe          11.57224427645112       -2.64243064666566        1.51621451008849
N           12.17893066630364       -0.99454372119467        2.50140072672618
N            9.88675362088199       -2.66600674896263        2.62312014436345
N           10.93500566463879       -4.23810845595950        0.50575959016828
N           13.21557708546472       -2.56959175853903        0.39361791930784
C           13.35094917960980       -0.32692841657056        2.32980636347654
C           13.44988577717338        0.77875766203419        3.25489896369152
C           12.30841600981364        0.76277274238475        3.99539293333825
C           11.52899310434217       -0.35540904581295        3.51454396611113
C            9.54335152613758       -1.80020793100606        3.61929539965507
C            8.28888028784605       -2.17631611470250        4.21499888028288
C            7.87829834009301       -3.31140057808549        3.56465308001186
C            8.89237876053237       -3.59103778343165        2.56827241811386
C            9.79181972723567       -4.94265225531411        0.72564203757883
C            9.68749240912549       -6.05125440570850       -0.19039597216230
C           10.80630779158692       -6.00453446704876       -0.97773196707101
C           11.56672386750917       -4.85578488476289       -0.52212265247478
C           13.54805812518966       -3.41488677010452       -0.61529306950634
C           14.82882806328767       -3.05472941916125       -1.18621034034039
C           15.26253090315350       -1.97003631068053       -0.49227323015928
C           14.23981759090728       -1.68271489695998        0.49139005670630
C           14.31851125240942       -0.63945312241444        1.39328310681690
H           15.20035182446095       -0.01811682052857        1.36308074011802
C           10.30018572664796       -0.71555756023278        4.03317374891349
H            9.91084821669308       -0.11776105441625        4.84312034519554
C            8.84605616539381       -4.65978409846386        1.69450791993206
H            8.00450404231055       -5.33047445286326        1.77505910260541
C           12.78942086464733       -4.48441105218067       -1.04981324426062
H           13.18601856489894       -5.07752721409160       -1.85975898002624
C           11.88070711115395        1.67693030277462        5.09240495973968
H           12.63032706790946        2.44393160140337        5.27029543271645
H           11.73118065043961        1.12268714794462        6.01957709097434
H           10.94122250136707        2.16886675509080        4.83867750927538
C           14.60662833663514        1.71562811910099        3.32402619837487
H           14.73877541964777        2.23205853194518        2.37297258633874
H           15.52615887630783        1.17272477082151        3.54351298841968
H           14.45550346944036        2.46176631590539        4.10033049749452
C            7.57918428533191       -1.41027132030543        5.27685360035120
H            7.70646540010589       -0.33856367626734        5.13067644257392
H            7.96423388344738       -1.66358087352761        6.26628362742441
H            6.51590613698147       -1.64049411252076        5.25437368962659
C            6.67658755275485       -4.09121935944296        3.76007132921725
H            6.26984632108663       -4.55522324578238        2.86904986089459
C            6.05879510355831       -4.28069270523251        4.92160032505155
H            6.44133680607316       -3.88563845299999        5.84648521840682
H            5.15614379635204       -4.86488006575817        4.99018326108757
C            8.53275291114524       -6.98707182625269       -0.27700922384122
H            7.59410386536434       -6.45591190553610       -0.12623054178283
H            8.60513674001685       -7.76691063570226        0.48304274219800
H            8.51007560332875       -7.46163042457510       -1.25584908761161
C           11.19348139628977       -6.86807674108676       -2.07134328716468
H           11.72926570240233       -6.38577462138720       -2.88068871297218
C           10.95156328857129       -8.17282302028052       -2.14654477187644
H           10.46586150779879       -8.71208139620735       -1.35197983478560
H           11.25674766896958       -8.75433042104486       -3.00075527849877
C           15.47832673166280       -3.77710868943148       -2.31618932340798
H           14.84358657491259       -3.74916060458043       -3.20200378155879
H           15.65035959679233       -4.82201054938443       -2.05645012660075
H           16.43474155857278       -3.32455988626278       -2.56633949400412
C           16.51745068925909       -1.18289500892873       -0.65531913843757
H           17.13029264248689       -1.59335209914934       -1.45402852162086
H           17.10061373815081       -1.19537974430394        0.26584743504283
H           16.28964649416585       -0.14454829721368       -0.89729250890932
O           10.45901513290175       -1.21848075020994        0.10316980761144
H           10.81212360989610       -0.37822468903412        0.41532222909267
H            9.56714096414926       -1.30008380807877        0.45812579905627
C           14.52901566440007       -6.62544390210795        4.05808069989997
H           13.98826571499377       -7.34837897270605        4.66867072898914
H           15.43070091683395       -6.33203939223421        4.59559495723023
H           14.81836525310191       -7.10331260486446        3.12747693619947
N           13.15929165397153       -4.64732666382920        4.75269977112526
H           13.28976933329132       -4.77614941254163        5.74261718101046
C           13.68021719287214       -5.44277301884580        3.76597244953530
C           12.44150697114433       -3.67008930249357        4.15478166931418
H           11.91902410364107       -2.90018162826710        4.68376198720990
N           12.47654044613131       -3.79805519149757        2.85070845120292
C           13.24375408678307       -4.89624127410129        2.59324040896631
H           13.42812009265201       -5.21749366957016        1.58890326423617
