78
 energy: -115.969500298339 gnorm: 0.250526318923 xtb: 6.7.1 (edcfbbe)
Fe          28.24200000000000       91.20699999999998       52.42000000000000
N           29.27000000000000       92.80800000000001       51.79300000000000
N           29.44600000000000       91.08799999999999       54.05200000000000
N           27.27200000000000       89.56899999999999       53.00200000000000
N           27.15700000000000       91.25900000000000       50.75599999999999
C           29.02199999999999       93.55099999999999       50.64300000000000
C           29.85000000000000       94.70799999999998       50.66299999999999
C           30.63700000000000       94.70300000000000       51.78700000000000
C           30.26900000000000       93.48799999999999       52.47799999999999
C           30.44600000000000       91.97400000000000       54.43800000000000
C           31.06000000000000       91.52100000000000       55.64399999999999
C           30.47300000000000       90.36400000000000       55.99700000000000
C           29.44300000000000       90.06999999999999       54.99600000000000
C           27.47100000000000       88.83300000000000       54.16600000000000
C           26.44500000000000       87.83300000000000       54.34700000000000
C           25.60400000000000       87.93999999999998       53.27999999999999
C           26.12100000000000       88.98099999999998       52.42999999999999
C           26.13600000000000       90.38399999999999       50.37899999999999
C           25.69100000000000       90.68100000000000       49.02500000000000
C           26.41200000000000       91.74400000000000       48.59300000000000
C           27.28000000000000       92.12700000000000       49.69500000000000
C           28.15700000000000       93.22300000000000       49.61500000000000
H           28.15500000000000       93.83399999999999       48.71300000000000
C           30.76600000000000       93.12000000000000       53.72800000000000
H           31.47700000000000       93.80199999999999       54.19300000000000
C           28.52000000000000       89.04900000000001       55.07300000000000
H           28.61200000000000       88.35299999999998       55.90600000000000
C           25.61900000000000       89.34999999999999       51.19299999999999
H           24.75700000000000       88.79900000000001       50.81699999999999
C           31.67400000000000       95.72300000000000       52.23900000000000
H           31.73200000000000       96.54700000000000       51.49600000000000
H           32.67000000000000       95.23699999999999       52.31600000000000
H           31.38000000000000       96.14600000000000       53.22300000000000
C           29.88600000000000       95.70300000000000       49.53399999999999
H           28.85700000000000       95.86300000000000       49.14800000000000
H           30.52300000000000       95.31399999999999       48.71100000000000
H           30.28800000000000       96.67200000000000       49.90000000000000
C           32.13700000000000       92.33600000000000       56.34999999999999
H           31.87000000000000       93.41400000000000       56.31400000000000
H           33.11300000000000       92.19000000000000       55.84000000000000
H           32.21200000000000       92.01899999999999       57.41200000000000
C           30.72700000000000       89.53100000000001       57.14500000000000
H           29.88900000000000       88.95800000000000       57.56800000000000
C           31.98200000000000       89.37900000000000       57.79199999999999
H           32.86800000000000       89.91999999999999       57.42700000000000
H           32.08300000000000       88.71899999999999       58.66599999999999
C           26.37100000000000       86.98500000000000       55.60100000000000
H           26.42100000000000       87.64100000000001       56.49600000000000
H           27.22600000000000       86.27600000000000       55.62600000000000
H           25.41200000000000       86.42400000000001       55.61900000000000
C           24.35100000000000       87.27800000000001       53.01800000000000
H           23.50900000000000       87.86199999999999       52.61799999999999
C           24.13600000000000       85.92200000000000       53.24300000000000
H           24.94100000000000       85.28800000000000       53.64200000000000
H           23.15800000000000       85.46799999999999       53.02500000000000
C           24.65000000000000       89.84000000000000       48.31300000000000
H           23.70200000000000       89.85599999999998       48.89200000000000
H           25.00600000000000       88.79099999999998       48.23299999999999
H           24.46099999999999       90.25500000000000       47.30000000000000
C           26.38100000000000       92.44400000000000       47.24799999999999
H           25.92800000000000       93.45200000000000       47.36500000000000
H           25.76899999999999       91.85500000000000       46.53200000000000
H           27.41600000000000       92.55700000000000       46.86000000000000
O           27.16100000000000       92.27200000000001       53.28400000000000
H           27.47800000000000       93.16000000000000       53.11999999999999
H           26.45700000000000       92.04799999999999       53.77900000000000
C           30.69700000000000       87.39500000000000       48.97600000000000
H           30.97600000000000       86.41900000000000       49.42800000000000
H           31.53600000000000       87.75199999999998       48.34199999999999
H           29.78500000000000       87.25699999999999       48.35699999999999
N           31.39700000000000       88.74900000000000       51.00000000000000
H           32.32400000000000       88.37799999999999       51.05599999999999
C           30.42500000000000       88.39100000000001       50.06400000000000
C           30.83800000000000       89.67900000000000       51.79400000000000
H           31.36300000000000       90.14800000000000       52.62600000000000
N           29.58500000000000       89.93300000000001       51.42200000000000
C           29.31700000000000       89.14700000000001       50.32000000000000
H           28.35900000000000       89.19799999999998       49.81699999999999
78
 energy: -116.021850942879 gnorm: 0.102859481229 xtb: 6.7.1 (edcfbbe)
Fe          28.28799032855554       91.15718343523348       52.38559084991769
N           29.26390450317641       92.81758502259402       51.80318507674129
N           29.44406622410642       91.08413212114841       54.05590882449497
N           27.25555429113393       89.56460415768481       53.01677511993060
N           27.13923745111331       91.26509905581780       50.75487167178167
C           29.03173422919107       93.54512455684487       50.65663341214767
C           29.86421761058661       94.71077428768388       50.65174206614400
C           30.63181399522371       94.69701116318463       51.78307557995881
C           30.24222535784030       93.49766647468937       52.49001634194362
C           30.42930646023929       91.97086931630918       54.43085225441499
C           31.06404984237586       91.53233161169030       55.64221875702889
C           30.47968188584450       90.35475216289018       56.00413898861566
C           29.43622666588058       90.09185518782677       55.00551691623497
C           27.47297413381990       88.84469238665991       54.16552091658077
C           26.45308089564756       87.84277284138575       54.35122064316681
C           25.60216534906138       87.94597414140235       53.28048502359614
C           26.12566803106840       89.00281412340433       52.43988577005209
C           26.14223369019209       90.38566721770529       50.38690938208329
C           25.69304779424776       90.67176678894246       49.03571362764334
C           26.41283413504528       91.74060922685420       48.59954905327382
C           27.29031077260174       92.11471276424932       49.69361929190489
C           28.15814962002263       93.20262177761352       49.63505369020059
H           28.14844094839109       93.81625823677773       48.74049968043341
C           30.75336975201373       93.11842615323215       53.72487917176403
H           31.47989208230717       93.78673190605024       54.17649510459331
C           28.52173478522758       89.05987050763765       55.06418785695729
H           28.61071924657462       88.36410965935075       55.89159805326820
C           25.63178305208665       89.36771152709080       51.19666583720903
H           24.77946528204829       88.81015675483906       50.81787289981715
C           31.65801171103934       95.70561674618378       52.23235741748773
H           31.73071767211825       96.52638176607717       51.51017359542896
H           32.64790700505979       95.24211897078114       52.31908305533091
H           31.38598999424201       96.13283505657262       53.20559353613306
C           29.88549053327634       95.70710625659051       49.53583463367011
H           28.87419325417646       95.87067100937757       49.14905006255773
H           30.51357614969931       95.33144256697837       48.71889906490414
H           30.28494931043854       96.66408680856097       49.88373094893567
C           32.12813477828058       92.33101365953748       56.34577914771505
H           31.87654971500677       93.39692530604492       56.31569357775210
H           33.09832691332055       92.19310721968458       55.85296950187021
H           32.21121787213737       92.02370023702193       57.39300168640141
C           30.75298984511325       89.52469615874794       57.15457509771807
H           29.91545151536289       88.95805652302296       57.56074049393808
C           31.94977890502366       89.38792643542247       57.77559742976025
H           32.83748058188698       89.90011043721017       57.42236084504561
H           32.06399697617761       88.73954859935158       58.63821621516185
C           26.36893605736252       86.99190667342975       55.58722128036779
H           26.41984781113922       87.62700958716579       56.48029134738117
H           27.20654082099013       86.28449276258517       55.62478989517186
H           25.42806477520028       86.43290236752178       55.61505075614411
C           24.35560919963332       87.25417839924430       53.01978002872357
H           23.53091895345543       87.84349080455517       52.61654743830957
C           24.14080828655339       85.94535861580763       53.24522328810759
H           24.92767155941383       85.30506090136777       53.62649374342336
H           23.18072353602148       85.48625748232865       53.03254035206292
C           24.65778020134064       89.84924370173336       48.32106146963921
H           23.71518229253795       89.85480004165701       48.88083185290244
H           24.99667370144572       88.81019011520223       48.23187747632842
H           24.46474584337193       90.24554481972898       47.31865460639974
C           26.37843055549958       92.43676643508037       47.26588402600461
H           25.93539239361112       93.43620494654999       47.36300154566520
H           25.78174602524496       91.86646013051248       46.54641640202325
H           27.39308391807192       92.55143726631887       46.86626569542651
O           27.16188062209389       92.28391319211732       53.27582356056079
H           27.46356576203860       93.18611453005555       53.13437768613930
H           26.41513497200933       92.05967425737911       53.80835277887782
C           30.70163518255517       87.39269381495794       48.97838057687338
H           30.97607615732666       86.42556361971891       49.41498547244481
H           31.52436174404711       87.73794536111699       48.34247633559384
H           29.80489425511952       87.26045719120647       48.36732521785412
N           31.38864374279142       88.74292273744486       50.98808378507742
H           32.31965997462008       88.36995486121226       51.04916887649134
C           30.43482879008030       88.38865837473908       50.05245748962292
C           30.83485057960981       89.67609987832218       51.78527267597979
H           31.34892713113167       90.14101045954443       52.61055946322245
N           29.60335837371508       89.93384144995268       51.41309857248084
C           29.33527418226241       89.14336856653051       50.32817618162901
H           28.38111145172235       89.19124833095273       49.83419195136067
78
 energy: -116.037618084408 gnorm: 0.046648251908 xtb: 6.7.1 (edcfbbe)
Fe          28.31742990756909       91.13140804508910       52.36887332041440
N           29.27309496164697       92.81702778443635       51.80061515001593
N           29.45220211609182       91.07364539780002       54.05200024203798
N           27.25652256316141       89.55693487731378       53.01968760835397
N           27.14813673145365       91.24875191620039       50.74273840996081
C           29.04648973177851       93.53281144045154       50.66377148729490
C           29.87660240912892       94.71104279107649       50.63980637633627
C           30.62291222172476       94.69314896484434       51.78104085994356
C           30.22653380109121       93.49988559380422       52.49552021326333
C           30.41628268066263       91.96494039348164       54.41994515901860
C           31.06243254048145       91.54238793126673       55.63783799635306
C           30.47591105714831       90.35605508083273       56.00483565951358
C           29.43850359247044       90.10502005081865       55.00447301565197
C           27.47880043809911       88.85778529783606       54.16267491667583
C           26.46090510596030       87.85512209544311       54.35381051205725
C           25.60638322809324       87.95983770467795       53.28350043136631
C           26.14140172275150       89.02289130534064       52.44926326466669
C           26.15614025416146       90.38332140240080       50.39266388254160
C           25.69582022907794       90.66333021122705       49.04586260132402
C           26.41561161647985       91.73305793951539       48.60565824002351
C           27.30470297417773       92.09613707445300       49.69180042834229
C           28.16209981103776       93.18044976513372       49.65417352587410
H           28.14225056550049       93.79972899161490       48.76877107142587
C           30.74782908391154       93.11410274297242       53.71892686735814
H           31.48939502585591       93.76795222197649       54.15839116185163
C           28.52648761757990       89.06837073797774       55.05383452735998
H           28.60853012746591       88.37582350059996       55.87948806453527
C           25.64707874060637       89.38275329840187       51.20365968163980
H           24.80354035894642       88.81900497599405       50.82509979023501
C           31.64214731466377       95.68839506156810       52.23042105136646
H           31.72076885256148       96.50449303805743       51.51661354413663
H           32.62614424473629       95.23040734008009       52.32161145590617
H           31.37969450691178       96.11260804267391       53.19930921050786
C           29.88806191376965       95.71008035918101       49.53396671719577
H           28.88470019140124       95.87572673163623       49.15206478747081
H           30.50931324925338       95.34847243674419       48.71514378623258
H           30.28657292243207       96.66021592120170       49.87409954838313
C           32.11822360516692       92.32661232574712       56.33978280773578
H           31.87942283477687       93.38747371179521       56.31312661200283
H           33.08820093748285       92.19015348915924       55.86134474787624
H           32.20041915682886       92.02108015745770       57.37831757134794
C           30.76084232828701       89.52470355590974       57.15591541504340
H           29.91981223713854       88.95919507366931       57.54166643719604
C           31.92815847422079       89.38904925568812       57.75440551355809
H           32.82000294572070       89.88398988501790       57.41359120198081
H           32.04955591275289       88.75847070998391       58.61948642518196
C           26.36603424858176       86.99837956642278       55.57258607862933
H           26.41893669527869       87.61908492227637       56.46697047814985
H           27.19136523994448       86.28788808182811       55.61347790694828
H           25.43243491289828       86.44547339906764       55.59651178281482
C           24.36725667317695       87.24508807750263       53.02066500028025
H           23.56093716310488       87.84312347713868       52.60752651739745
C           24.15298046483510       85.96024496985838       53.24262933977137
H           24.92315935437492       85.31132091260552       53.61970255579102
H           23.20024598669426       85.49940938513397       53.04286848264732
C           24.66310529108246       89.85737668854752       48.33056038364890
H           23.72332360769970       89.85928813519482       48.87980180444498
H           24.99184076392854       88.82298938325077       48.23436005377518
H           24.47485585331166       90.24937623661560       47.33534107294228
C           26.37488237348072       92.42722300914235       47.28308742521516
H           25.93873229834842       93.42191418140534       47.37608367953606
H           25.78356471244698       91.86619130211740       46.56503396070904
H           27.37951083563435       92.54096578580102       46.87888686316452
O           27.12865021961394       92.31097301069619       53.28272598122636
H           27.40779500373410       93.22852457746777       53.18262001066868
H           26.37404533319832       92.09532594703225       53.84026456670065
C           30.70582915686262       87.39077355870181       48.97961526933614
H           30.97805079090936       86.42869136372958       49.40793079707317
H           31.51985015599553       87.72486873679289       48.33946298594933
H           29.81643977876867       87.26310126022886       48.37413927950469
N           31.38325719306974       88.74011059468708       50.97697989256715
H           32.31613686377067       88.36512236129892       51.04162043087392
C           30.44203768582923       88.38927934541128       50.04452319200127
C           30.83223157238024       89.67705712275232       51.77962359168746
H           31.34166087363235       90.13732376182729       52.59919302601092
N           29.60480587551898       89.93414836798306       51.41855722904275
C           29.34591855415569       89.14549190292014       50.33723058021582
H           28.39505162551873       89.18401394600909       49.84882848271744
78
 energy: -116.043327991469 gnorm: 0.037659085186 xtb: 6.7.1 (edcfbbe)
Fe          28.32594791153939       91.12912114121244       52.36683889005474
N           29.27949321855239       92.81338244034116       51.79538950345238
N           29.45327955549816       91.07309679855337       54.04666993478460
N           27.26457394302390       89.55885595530846       53.02069191557991
N           27.16193609104745       91.23509194577525       50.73757580659856
C           29.05919164769310       93.52009164949770       50.65997025206835
C           29.88377756749173       94.70711377801540       50.62964424704641
C           30.61684748689851       94.68968179387281       51.77736614715556
C           30.22258562764897       93.49759056219861       52.49374129897281
C           30.41270681648252       91.96270401236879       54.40880128066965
C           31.05979261283897       91.54761376397687       55.63015872601400
C           30.46949109785803       90.36150215219833       55.99703881968483
C           29.43931157381371       90.11223384509898       54.99936523661396
C           27.48613994479588       88.86577676987673       54.16262124096691
C           26.46726600328518       87.86379051073564       54.35411647563591
C           25.61580296458714       87.97058593602958       53.28412620303219
C           26.15712723177485       89.03261438302627       52.45283739222444
C           26.17130709933929       90.37592932474834       50.39486958647482
C           25.69989687105713       90.65670577268440       49.05307105261655
C           26.42060858916928       91.72312742757217       48.61044988667128
C           27.32020258241930       92.07893110127750       49.68892070192426
C           28.17289800307558       93.16217996782738       49.65697590851573
H           28.14110012238604       93.78920644125429       48.77948866107597
C           30.75222588561853       93.11028730734839       53.71012549827178
H           31.50740029306043       93.75173790709498       54.14041352421970
C           28.53042816602510       89.07324739065167       55.05058475538096
H           28.60959434570573       88.38308826193909       55.87622830219984
C           25.65981806076170       89.38398369572329       51.20727570153320
H           24.81842681146551       88.81935472402608       50.83266169803534
C           31.63312816344136       95.67646798345740       52.23400794656283
H           31.71617646959803       96.49285841846562       51.52323715362303
H           32.61284440317439       95.21184526383357       52.32733129925652
H           31.36944029836911       96.09399309299246       53.20411342923573
C           29.89119783436579       95.71129027093393       49.52968883791267
H           28.88702427202886       95.88149887315016       49.15387238513073
H           30.50737112291289       95.36055566414861       48.70271603298969
H           30.29244221203244       96.65986681062041       49.87070372378567
C           32.11148260012544       92.32560597193726       56.33607123713170
H           31.88172352269413       93.38806781099748       56.30951858153155
H           33.08490550214785       92.18405734194869       55.86688384581385
H           32.18452085652618       92.01670762680851       57.37353810224880
C           30.75010836909086       89.52696330184797       57.14654380212622
H           29.90442888794903       88.96417810744830       57.52295245876372
C           31.92194305920765       89.39283199277929       57.74839096436533
H           32.81953701731429       89.86987351825098       57.39908133138289
H           32.04533227145782       88.75973841119543       58.60992174708151
C           26.36281515065955       87.00091892922063       55.56252649284390
H           26.41842556487629       87.61148192434187       56.46284204493635
H           27.17997501863766       86.28187431503305       55.59886798850653
H           25.42463864809646       86.45760471645454       55.57384459288566
C           24.38211344676530       87.25058842540318       53.01646826758412
H           23.58731404221875       87.85290879930398       52.59058399605680
C           24.16349776255833       85.96664737732320       53.24892336064554
H           24.93004051090023       85.31105049511132       53.62028964275711
H           23.21336948278678       85.50526908188968       53.04449846092063
C           24.66279769012662       89.86190632289207       48.33969090572845
H           23.72285495760314       89.86707010231797       48.88677361288713
H           24.98403277294384       88.82612908974760       48.23861477512357
H           24.48039177882602       90.25925625870833       47.34675652131244
C           26.37117882685492       92.41915413721594       47.29463497854680
H           25.93859954141443       93.41360103621786       47.39446401232085
H           25.77479999332497       91.86135007110930       46.57998891132308
H           27.37310466833921       92.53071355303764       46.88580805307955
O           27.07789394253820       92.34295377500518       53.29309425521109
H           27.34347405338679       93.27104725115967       53.24531468776298
H           26.33293867095017       92.13390950064078       53.87521667586206
C           30.70787361068287       87.39004067253114       48.97887532801435
H           30.98011595377680       86.42866079001864       49.40720060776751
H           31.52005891738300       87.71676343349081       48.33292658980274
H           29.81755336013316       87.26277151107703       48.37608303755330
N           31.38740411796222       88.74236333637279       50.96982773423954
H           32.31995102357565       88.36617936645760       51.03484655364241
C           30.44724392717196       88.39135506434285       50.04149433589481
C           30.83767164200997       89.67809449682574       51.77819530082498
H           31.34822319165152       90.13575462961242       52.59613102738589
N           29.60649788195317       89.93647109899820       51.42316187123780
C           29.34950776333066       89.14422031714486       50.34451079127051
H           28.39785709921191       89.17086289994353       49.85995305965400
78
 energy: -116.048260733140 gnorm: 0.033544184561 xtb: 6.7.1 (edcfbbe)
Fe          28.33201595334368       91.12924524371842       52.36583116005463
N           29.28534960914686       92.80516954175781       51.78722456185500
N           29.45063915136602       91.07661965181144       54.03941502358512
N           27.27758578054135       89.56353257730223       53.02064397039224
N           27.18307548196680       91.21735196052957       50.73174403782517
C           29.06996955956831       93.50646798053708       50.65142832838301
C           29.89031757352199       94.70017976420556       50.61862421691501
C           30.61236523937480       94.68584124826596       51.77147437524557
C           30.22272266177056       93.49244470270446       52.48796967948409
C           30.41296950904412       91.96219022736874       54.39655730262673
C           31.06054070857849       91.55109701074602       55.61875445783652
C           30.46536169592135       90.36855006438086       55.98652777730334
C           29.43804482924567       90.11976000403254       54.99571648817921
C           27.49413870995915       88.87191230440388       54.16560644825949
C           26.47471820481706       87.86867285009801       54.35296161863020
C           25.62842786784211       87.97732518690115       53.28223031577905
C           26.17242215382505       89.03944966392545       52.45462703447070
C           26.18623281602269       90.36633755678008       50.39605611603430
C           25.70529922354225       90.64883776313545       49.05862483182941
C           26.42780758011221       91.71048414820460       48.61309809053419
C           27.33616307805987       92.06158859609782       49.68431240594202
C           28.18517242786473       93.14623515530695       49.65206299450207
H           28.14594326661266       93.77801393787605       48.77902286472116
C           30.76263163956744       93.10628292963294       53.69810801862931
H           31.52985381322540       93.73575910270124       54.12045157528082
C           28.53324265918935       89.07735419716145       55.05352759249434
H           28.61239607417837       88.38829728905543       55.87892565532922
C           25.66942814691460       89.37980237741523       51.21012934549497
H           24.82895415813045       88.81423949936557       50.84033434289680
C           31.62742282652746       95.66651570491514       52.24081851978364
H           31.71750901387164       96.48777668974374       51.53552251402110
H           32.60375626677818       95.19229540979168       52.33587181400679
H           31.35833023139390       96.07460428260973       53.21429437951633
C           29.89451743547424       95.71009081231237       49.52406243769784
H           28.88596794621738       95.88879458171483       49.15834212765073
H           30.50234936315434       95.36762311191384       48.68545058234833
H           30.30299683918668       96.65645180942884       49.87043856204092
C           32.10826474088105       92.32559669466826       56.33239622722988
H           31.88645461429637       93.39114206875945       56.30319064779636
H           33.08766847485534       92.17592821525766       55.87476258811049
H           32.16504179213836       92.01298335308078       57.37176995225068
C           30.73849470382742       89.52862175794880       57.13137991234136
H           29.88901036151898       88.97552506189339       57.51061317216253
C           31.91720724059849       89.38185046319747       57.72806332390793
H           32.81101262095130       89.86674875841027       57.38264594329529
H           32.03177971837887       88.76011130830091       58.60005523824188
C           26.35909310469801       86.99956209682291       55.55352248611009
H           26.42131666003976       87.59898328355763       56.46193838713950
H           27.16533038597166       86.26600788934998       55.58201712257485
H           25.40997184107347       86.47198060521882       55.55101569204134
C           24.40151059286292       87.25686249021636       53.00518948309994
H           23.61344791736743       87.85990950716221       52.56960572041630
C           24.18048847969742       85.97037204884577       53.24388990076525
H           24.93927160716823       85.31653837122241       53.63563418021251
H           23.22589853993701       85.51370630126918       53.04448664325957
C           24.65844734142899       89.86505109757526       48.34971138107054
H           23.71828651923970       89.87931578670556       48.89837404123269
H           24.96896209647947       88.82498509757613       48.24510040762740
H           24.48080254137664       90.26980465016743       47.35746513787184
C           26.36706478903337       92.41176127087408       47.30268858122742
H           25.93747899075963       93.40728013922596       47.41468683799718
H           25.76000652887271       91.85761977973418       46.59236730957210
H           27.36678320654296       92.52197081557860       46.88562423875528
O           26.99839891329840       92.39242411478637       53.30067697688271
H           27.25967841592356       93.32703795179660       53.34289395853539
H           26.28610181729276       92.19492787627551       53.92984164697608
C           30.70946708970268       87.38832990853081       48.97769415319099